# vtk DataFile Version 3.0
vtk output
ASCII
DATASET UNSTRUCTURED_GRID
POINTS 5233 float
9.997500e-01	-3.633244e-05	0.0	9.990000e-01	-1.454728e-04	0.0	9.977600e-01	-3.275130e-04	0.0	9.960200e-01	-5.899576e-04	0.0	9.937800e-01	-9.472051e-04	0.0	9.910500e-01	-1.422403e-03	0.0	9.878400e-01	-2.046219e-03	0.0	9.841300e-01	-2.855065e-03	0.0	9.799500e-01	-3.861321e-03	0.0	9.752800e-01	-5.062169e-03	0.0	9.701500e-01	-6.410742e-03	0.0	9.645400e-01	-7.848473e-03	0.0	9.584700e-01	-9.299894e-03	0.0	9.519400e-01	-1.070954e-02	0.0	9.449600e-01	-1.204940e-02	0.0	9.375400e-01	-1.332386e-02	0.0	9.296900e-01	-1.456022e-02	0.0	9.214000e-01	-1.579682e-02	0.0	9.127000e-01	-1.706089e-02	0.0	9.035800e-01	-1.837348e-02	0.0	8.940600e-01	-1.973821e-02	0.0	8.841500e-01	-2.115045e-02	0.0	8.738500e-01	-2.260195e-02	0.0	8.631800e-01	-2.408061e-02	0.0	8.521600e-01	-2.557576e-02	0.0	8.407700e-01	-2.708425e-02	0.0	8.290500e-01	-2.859685e-02	0.0	8.170100e-01	-3.010971e-02	0.0	8.046400e-01	-3.162203e-02	0.0	7.919700e-01	-3.312816e-02	0.0	7.790100e-01	-3.462483e-02	0.0	7.657800e-01	-3.610742e-02	0.0	7.522800e-01	-3.757339e-02	0.0	7.385200e-01	-3.901887e-02	0.0	7.245300e-01	-4.043799e-02	0.0	7.103200e-01	-4.182711e-02	0.0	6.958900e-01	-4.318368e-02	0.0	6.812700e-01	-4.450249e-02	0.0	6.664700e-01	-4.578055e-02	0.0	6.515000e-01	-4.701508e-02	0.0	6.363800e-01	-4.820277e-02	0.0	6.211300e-01	-4.934072e-02	0.0	6.057600e-01	-5.042708e-02	0.0	5.902800e-01	-5.146023e-02	0.0	5.747100e-01	-5.243813e-02	0.0	5.590600e-01	-5.335964e-02	0.0	5.433600e-01	-5.422268e-02	0.0	5.276100e-01	-5.502708e-02	0.0	5.118400e-01	-5.577122e-02	0.0	4.960500e-01	-5.645506e-02	0.0	4.802700e-01	-5.707728e-02	0.0	4.645100e-01	-5.763752e-02	0.0	4.487800e-01	-5.813533e-02	0.0	4.331100e-01	-5.856966e-02	0.0	4.175000e-01	-5.894028e-02	0.0	4.019700e-01	-5.924634e-02	0.0	3.865400e-01	-5.948696e-02	0.0	3.712300e-01	-5.966126e-02	0.0	3.560400e-01	-5.976847e-02	0.0	3.409900e-01	-5.980744e-02	0.0	3.261100e-01	-5.977707e-02	0.0	3.114000e-01	-5.967621e-02	0.0	2.968700e-01	-5.950350e-02	0.0	2.825500e-01	-5.925784e-02	0.0	2.684500e-01	-5.893793e-02	0.0	2.545700e-01	-5.854208e-02	0.0	2.409400e-01	-5.806940e-02	0.0	2.275700e-01	-5.751861e-02	0.0	2.144700e-01	-5.688837e-02	0.0	2.016600e-01	-5.617798e-02	0.0	1.891400e-01	-5.538573e-02	0.0	1.769300e-01	-5.451117e-02	0.0	1.650400e-01	-5.355342e-02	0.0	1.534900e-01	-5.251266e-02	0.0	1.422900e-01	-5.138858e-02	0.0	1.314400e-01	-5.017986e-02	0.0	1.209500e-01	-4.888622e-02	0.0	1.108500e-01	-4.751040e-02	0.0	1.011300e-01	-4.605016e-02	0.0	9.181000e-02	-4.450760e-02	0.0	8.290000e-02	-4.288376e-02	0.0	7.440000e-02	-4.117797e-02	0.0	6.633000e-02	-3.939372e-02	0.0	5.869000e-02	-3.753066e-02	0.0	5.149000e-02	-3.559078e-02	0.0	4.474000e-02	-3.357656e-02	0.0	3.844000e-02	-3.148766e-02	0.0	3.260000e-02	-2.932689e-02	0.0	2.723000e-02	-2.709793e-02	0.0	2.232000e-02	-2.479571e-02	0.0	1.790000e-02	-2.243425e-02	0.0	1.395000e-02	-2.000273e-02	0.0	1.049000e-02	-1.751245e-02	0.0	7.520000e-03	-1.496438e-02	0.0	5.040000e-03	-1.235877e-02	0.0	3.050000e-03	-9.694235e-03	0.0	1.560000e-03	-6.986269e-03	0.0	5.600000e-04	-4.214048e-03	0.0	6.000000e-05	-1.385760e-03	0.0	0.000000e+00	0.000000e+00	0.0	6.000000e-05	1.265763e-03	0.0	5.600000e-04	3.633913e-03	0.0	1.560000e-03	5.805558e-03	0.0	3.050000e-03	7.831500e-03	0.0	5.040000e-03	9.756403e-03	0.0	7.520000e-03	1.158775e-02	0.0	1.049000e-02	1.334039e-02	0.0	1.395000e-02	1.502478e-02	0.0	1.790000e-02	1.664880e-02	0.0	2.232000e-02	1.821204e-02	0.0	2.723000e-02	1.972768e-02	0.0	3.260000e-02	2.119161e-02	0.0	3.844000e-02	2.261156e-02	0.0	4.474000e-02	2.398895e-02	0.0	5.149000e-02	2.532519e-02	0.0	5.869000e-02	2.662337e-02	0.0	6.633000e-02	2.788425e-02	0.0	7.440000e-02	2.910856e-02	0.0	8.290000e-02	3.029827e-02	0.0	9.181000e-02	3.145233e-02	0.0	1.011300e-01	3.257230e-02	0.0	1.108500e-01	3.365819e-02	0.0	1.209500e-01	3.470892e-02	0.0	1.314400e-01	3.572640e-02	0.0	1.422900e-01	3.670837e-02	0.0	1.534900e-01	3.765461e-02	0.0	1.650400e-01	3.856551e-02	0.0	1.769300e-01	3.944043e-02	0.0	1.891400e-01	4.027792e-02	0.0	2.016600e-01	4.107722e-02	0.0	2.144700e-01	4.183686e-02	0.0	2.275700e-01	4.255643e-02	0.0	2.409400e-01	4.323425e-02	0.0	2.545700e-01	4.386909e-02	0.0	2.684500e-01	4.445954e-02	0.0	2.825500e-01	4.500331e-02	0.0	2.968700e-01	4.549924e-02	0.0	3.114000e-01	4.594554e-02	0.0	3.261100e-01	4.633976e-02	0.0	3.409900e-01	4.668003e-02	0.0	3.560400e-01	4.696447e-02	0.0	3.712300e-01	4.719052e-02	0.0	3.865400e-01	4.735588e-02	0.0	4.019700e-01	4.745838e-02	0.0	4.175000e-01	4.749559e-02	0.0	4.331100e-01	4.746515e-02	0.0	4.487800e-01	4.736482e-02	0.0	4.645100e-01	4.719226e-02	0.0	4.802700e-01	4.694548e-02	0.0	4.960500e-01	4.662248e-02	0.0	5.118400e-01	4.622133e-02	0.0	5.276100e-01	4.574088e-02	0.0	5.433600e-01	4.517946e-02	0.0	5.590600e-01	4.453670e-02	0.0	5.747100e-01	4.381148e-02	0.0	5.902800e-01	4.300445e-02	0.0	6.057600e-01	4.211589e-02	0.0	6.211300e-01	4.114717e-02	0.0	6.363800e-01	4.009969e-02	0.0	6.515000e-01	3.897541e-02	0.0	6.664700e-01	3.777768e-02	0.0	6.812700e-01	3.651071e-02	0.0	6.958900e-01	3.517866e-02	0.0	7.103200e-01	3.378633e-02	0.0	7.245300e-01	3.234128e-02	0.0	7.385200e-01	3.084885e-02	0.0	7.522800e-01	2.931599e-02	0.0	7.657800e-01	2.775258e-02	0.0	7.790100e-01	2.616701e-02	0.0	7.919700e-01	2.456692e-02	0.0	8.046400e-01	2.296282e-02	0.0	8.170100e-01	2.136436e-02	0.0	8.290500e-01	1.978389e-02	0.0	8.407700e-01	1.822821e-02	0.0	8.521600e-01	1.670576e-02	0.0	8.631800e-01	1.522739e-02	0.0	8.738500e-01	1.379358e-02	0.0	8.841500e-01	1.240752e-02	0.0	8.940600e-01	1.107040e-02	0.0	9.035800e-01	9.780501e-03	0.0	9.127000e-01	8.540498e-03	0.0	9.214000e-01	7.361328e-03	0.0	9.296900e-01	6.259576e-03	0.0	9.375400e-01	5.266251e-03	0.0	9.449600e-01	4.410567e-03	0.0	9.519400e-01	3.717490e-03	0.0	9.584700e-01	3.193131e-03	0.0	9.645400e-01	2.817229e-03	0.0	9.701500e-01	2.544773e-03	0.0	9.752800e-01	2.319772e-03	0.0	9.799500e-01	2.089842e-03	0.0	9.841300e-01	1.825174e-03	0.0	9.878400e-01	1.518961e-03	0.0	9.910500e-01	1.189789e-03	0.0	9.937800e-01	8.628728e-04	0.0	9.960200e-01	5.665851e-04	0.0	9.977600e-01	3.231806e-04	0.0	9.990000e-01	1.450776e-04	0.0	9.997500e-01	3.632617e-05	0.0	1.000000e+00	0.000000e+00	0.0	1.984229e+01	2.506660e+00	0.0	1.937166e+01	4.973800e+00	0.0	1.859553e+01	7.362490e+00	0.0	1.752613e+01	9.635070e+00	0.0	1.618034e+01	1.175571e+01	0.0	1.457937e+01	1.369094e+01	0.0	1.274848e+01	1.541027e+01	0.0	1.071654e+01	1.688656e+01	0.0	8.515590e+00	1.809654e+01	0.0	6.180340e+00	1.902113e+01	0.0	3.747630e+00	1.964575e+01	0.0	1.255810e+00	1.996053e+01	0.0	-1.255810e+00	1.996053e+01	0.0	-3.747630e+00	1.964574e+01	0.0	-6.180340e+00	1.902113e+01	0.0	-8.515590e+00	1.809654e+01	0.0	-1.071654e+01	1.688656e+01	0.0	-1.274848e+01	1.541026e+01	0.0	-1.457937e+01	1.369094e+01	0.0	-1.618034e+01	1.175570e+01	0.0	-1.752613e+01	9.635070e+00	0.0	-1.859553e+01	7.362490e+00	0.0	-1.937166e+01	4.973800e+00	0.0	-1.984229e+01	2.506660e+00	0.0	-2.000000e+01	0.000000e+00	0.0	-1.984229e+01	-2.506670e+00	0.0	-1.937166e+01	-4.973800e+00	0.0	-1.859553e+01	-7.362490e+00	0.0	-1.752613e+01	-9.635080e+00	0.0	-1.618034e+01	-1.175571e+01	0.0	-1.457937e+01	-1.369094e+01	0.0	-1.274848e+01	-1.541027e+01	0.0	-1.071653e+01	-1.688656e+01	0.0	-8.515580e+00	-1.809654e+01	0.0	-6.180340e+00	-1.902113e+01	0.0	-3.747620e+00	-1.964575e+01	0.0	-1.255810e+00	-1.996053e+01	0.0	1.255810e+00	-1.996053e+01	0.0	3.747630e+00	-1.964574e+01	0.0	6.180340e+00	-1.902113e+01	0.0	8.515590e+00	-1.809654e+01	0.0	1.071654e+01	-1.688656e+01	0.0	1.274848e+01	-1.541026e+01	0.0	1.457937e+01	-1.369094e+01	0.0	1.618034e+01	-1.175570e+01	0.0	1.752614e+01	-9.635070e+00	0.0	1.859553e+01	-7.362490e+00	0.0	1.937166e+01	-4.973790e+00	0.0	1.984229e+01	-2.506660e+00	0.0	2.000000e+01	0.000000e+00	0.0	6.074041e-02	-4.539354e-02	0.0	6.601886e-01	-6.005891e-02	0.0	4.255552e-01	6.170519e-02	0.0	6.897643e-01	4.906678e-02	0.0	3.791239e-01	-7.363411e-02	0.0	9.994675e-01	-7.276006e-04	0.0	9.985545e-01	-1.331469e-03	0.0	7.738140e-01	-4.743591e-02	0.0	6.898604e-01	-5.718549e-02	0.0	-1.132302e-03	5.529510e-03	0.0	7.467807e-01	-5.084424e-02	0.0	5.833320e-01	5.749958e-02	0.0	9.928162e-01	-3.736668e-03	0.0	9.899362e-01	-4.744977e-03	0.0	5.989080e-01	5.656365e-02	0.0	7.187652e-01	-5.410087e-02	0.0	-1.471671e-03	6.011877e-04	0.0	9.865729e-01	-5.907851e-03	0.0	9.827333e-01	-7.228598e-03	0.0	-1.306831e-03	-6.484975e-03	0.0	6.451053e-01	-6.140917e-02	0.0	8.244831e-01	-4.033066e-02	0.0	7.997431e-01	-4.392871e-02	0.0	3.484833e-01	6.060309e-02	0.0	8.479033e-01	-3.669810e-02	0.0	2.473682e-01	5.611493e-02	0.0	8.699434e-01	-3.305521e-02	0.0	1.045907e-02	1.739039e-02	0.0	8.904971e-01	-2.945815e-02	0.0	7.702025e-02	-4.977136e-02	0.0	9.094924e-01	-2.596177e-02	0.0	-1.770807e-03	-3.212432e-03	0.0	9.424839e-01	-1.918247e-02	0.0	9.268489e-01	-2.256812e-02	0.0	1.794351e-02	-2.755219e-02	0.0	4.257420e-01	-7.306475e-02	0.0	8.591049e-01	-3.487251e-02	0.0	9.563367e-01	-1.567725e-02	0.0	9.784094e-01	-8.728713e-03	0.0	9.683310e-01	-1.208717e-02	0.0	1.582643e-01	-6.363157e-02	0.0	9.001965e-01	-2.769539e-02	0.0	7.604302e-01	-4.915594e-02	0.0	9.971360e-01	-2.087394e-03	0.0	5.990501e-01	-6.508021e-02	0.0	4.414445e-01	-7.271517e-02	0.0	5.363197e-01	-6.901229e-02	0.0	4.730159e-01	-7.178361e-02	0.0	5.046767e-01	-7.054746e-02	0.0	4.888344e-01	-7.120244e-02	0.0	1.249496e-01	-5.913031e-02	0.0	2.784042e-02	-3.303978e-02	0.0	3.945695e-01	-7.352589e-02	0.0	4.621630e-02	-4.069358e-02	0.0	4.101102e-01	-7.333644e-02	0.0	3.187157e-01	-7.324512e-02	0.0	3.486134e-01	-7.360990e-02	0.0	3.350431e-02	-3.565612e-02	0.0	2.895117e-01	-7.254250e-02	0.0	9.348863e-01	-2.088218e-02	0.0	1.468054e-01	-6.222197e-02	0.0	1.946448e-01	-6.728359e-02	0.0	8.579480e-02	-5.182831e-02	0.0	1.045867e-01	-5.567294e-02	0.0	5.678223e-01	-6.719406e-02	0.0	1.700669e-01	-6.494727e-02	0.0	6.145276e-01	-6.391913e-02	0.0	8.804146e-01	-3.124829e-02	0.0	2.266409e-02	-3.033681e-02	0.0	9.952219e-01	-2.870363e-03	0.0	6.731541e-03	-1.886055e-02	0.0	1.848780e-02	2.156857e-02	0.0	9.183790e-01	-2.425548e-02	0.0	9.49641
[...]
POINT_DATA 5233

SCALARS Conservative_1 float 1
LOOKUP_TABLE default
1.199835e+00	1.181621e+00	1.171212e+00	1.164790e+00	1.160234e+00	1.155784e+00	1.148910e+00	1.137995e+00	1.121808e+00	1.100437e+00	1.075122e+00	1.048473e+00	1.024861e+00	1.008286e+00	9.998823e-01	9.978054e-01	9.989029e-01	1.000336e+00	1.000353e+00	9.983530e-01	9.945567e-01	9.895225e-01	9.838368e-01	9.779720e-01	9.722058e-01	9.666488e-01	9.612915e-01	9.560869e-01	9.509699e-01	9.459088e-01	9.408876e-01	9.358623e-01	9.307988e-01	9.257137e-01	9.206587e-01	9.156827e-01	9.108044e-01	9.060286e-01	9.013668e-01	8.968359e-01	8.924357e-01	8.881772e-01	8.840430e-01	8.800501e-01	8.762133e-01	8.725844e-01	8.691522e-01	8.658521e-01	8.625366e-01	8.591962e-01	8.560336e-01	8.534046e-01	8.514282e-01	8.498193e-01	8.479099e-01	8.449416e-01	8.403911e-01	8.343731e-01	8.277461e-01	8.217839e-01	8.174103e-01	8.148437e-01	8.138174e-01	8.138926e-01	8.147519e-01	8.161907e-01	8.181566e-01	8.205643e-01	8.233269e-01	8.263328e-01	8.296046e-01	8.333099e-01	8.376975e-01	8.428330e-01	8.486363e-01	8.549602e-01	8.618719e-01	8.695521e-01	8.780581e-01	8.874295e-01	8.977784e-01	9.091642e-01	9.217394e-01	9.356225e-01	9.510048e-01	9.681652e-01	9.873328e-01	1.008868e+00	1.033257e+00	1.060814e+00	1.092069e+00	1.127484e+00	1.166894e+00	1.209825e+00	1.254556e+00	1.298050e+00	1.331727e+00	1.350882e+00	1.339633e+00	1.308578e+00	1.284771e+00	1.222013e+00	1.100957e+00	1.003681e+00	9.275264e-01	8.714412e-01	8.330386e-01	8.076632e-01	7.905124e-01	7.788432e-01	7.709552e-01	7.656732e-01	7.624330e-01	7.604907e-01	7.594673e-01	7.593573e-01	7.600317e-01	7.612530e-01	7.626981e-01	7.640325e-01	7.652629e-01	7.667136e-01	7.686532e-01	7.709408e-01	7.731745e-01	7.751145e-01	7.768458e-01	7.785162e-01	7.802335e-01	7.820734e-01	7.840947e-01	7.862835e-01	7.885695e-01	7.908559e-01	7.931046e-01	7.952943e-01	7.974154e-01	7.994293e-01	8.013626e-01	8.033878e-01	8.058182e-01	8.088810e-01	8.125591e-01	8.165343e-01	8.203824e-01	8.238149e-01	8.268333e-01	8.297618e-01	8.330442e-01	8.370659e-01	8.418481e-01	8.471978e-01	8.529121e-01	8.589456e-01	8.652475e-01	8.717153e-01	8.783032e-01	8.851000e-01	8.922714e-01	8.998328e-01	9.077164e-01	9.158380e-01	9.241553e-01	9.326565e-01	9.413082e-01	9.500958e-01	9.589695e-01	9.679124e-01	9.768504e-01	9.857860e-01	9.946362e-01	1.003320e+00	1.011776e+00	1.019918e+00	1.027700e+00	1.035101e+00	1.042168e+00	1.049079e+00	1.056096e+00	1.063608e+00	1.071913e+00	1.081110e+00	1.090815e+00	1.100164e+00	1.107904e+00	1.112696e+00	1.113447e+00	1.109791e+00	1.102492e+00	1.093721e+00	1.086568e+00	1.084014e+00	1.087909e+00	1.098140e+00	1.112745e+00	1.129943e+00	1.148434e+00	1.168613e+00	1.192707e+00	1.181126e+00	9.999766e-01	9.999700e-01	9.999537e-01	9.999301e-01	9.999064e-01	9.998787e-01	9.998396e-01	9.997850e-01	9.997230e-01	9.996714e-01	9.996372e-01	9.996485e-01	9.997025e-01	9.998123e-01	9.999065e-01	9.999826e-01	1.000024e+00	1.000050e+00	1.000064e+00	1.000070e+00	1.000073e+00	1.000074e+00	1.000074e+00	1.000076e+00	1.000077e+00	1.000080e+00	1.000085e+00	1.000091e+00	1.000101e+00	1.000114e+00	1.000128e+00	1.000149e+00	1.000168e+00	1.000194e+00	1.000211e+00	1.000221e+00	1.000222e+00	1.000209e+00	1.000198e+00	1.000185e+00	1.000179e+00	1.000164e+00	1.000148e+00	1.000127e+00	1.000104e+00	1.000077e+00	1.000059e+00	1.000045e+00	1.000013e+00	9.999796e-01	9.435607e-01	9.017884e-01	8.259537e-01	9.235388e-01	8.408433e-01	1.183073e+00	1.173593e+00	9.405610e-01	9.109988e-01	1.217690e+00	9.305773e-01	8.726385e-01	1.151781e+00	1.145060e+00	8.791356e-01	9.206251e-01	1.307921e+00	1.136093e+00	1.123724e+00	1.337688e+00	8.973708e-01	9.606784e-01	9.505090e-01	8.080350e-01	9.712593e-01	7.934511e-01	9.823806e-01	8.791246e-01	9.930124e-01	9.163288e-01	1.000465e+00	1.344709e+00	1.005984e+00	1.002870e+00	1.100038e+00	8.522398e-01	9.767758e-01	1.025309e+00	1.107464e+00	1.065613e+00	8.477729e-01	9.973332e-01	9.355891e-01	1.164183e+00	8.848656e-01	8.537311e-01	8.704096e-01	8.575279e-01	8.637735e-01	8.604600e-01	8.675725e-01	1.042481e+00	8.462829e-01	9.768518e-01	8.500012e-01	8.196090e-01	8.278829e-01	1.018128e+00	8.179732e-01	1.003492e+00	8.537680e-01	8.342627e-01	9.045887e-01	8.842048e-01	8.772462e-01	8.425373e-01	8.889139e-01	9.878970e-01	1.069692e+00	1.157699e+00	1.209128e+00	8.236028e-01	1.002214e+00	1.012688e+00	1.087685e+00	1.134875e+00	9.659005e-01	8.221351e-01	8.737474e-01	9.255663e-01	9.455181e-01	8.754534e-01	8.275472e-01	8.809679e-01	9.063393e-01	9.593535e-01	1.248720e+00	1.133595e+00	8.342917e-01	8.381074e-01	1.211161e+00	8.246369e-01	8.939136e-01	8.181296e-01	8.201491e-01	8.553131e-01	9.157624e-01	1.280166e+00	1.318481e+00	8.540954e-01	1.324761e+00	7.947336e-01	7.735843e-01	7.803934e-01	7.743006e-01	8.221777e-01	1.140164e+00	8.484919e-01	8.352262e-01	1.097206e+00	1.105925e+00	1.052439e+00	8.388748e-01	8.292401e-01	8.141687e-01	1.083771e+00	1.067186e+00	7.718539e-01	1.092410e+00	1.106697e+00	1.099174e+00	7.727297e-01	7.720974e-01	7.999394e-01	7.956500e-01	7.824431e-01	8.039417e-01	8.321867e-01	8.181100e-01	7.795143e-01	7.758961e-01	8.926498e-01	7.854071e-01	7.891150e-01	9.075764e-01	8.662188e-01	9.572272e-01	9.401490e-01	9.917172e-01	9.745098e-01	1.024118e+00	1.008432e+00	1.059592e+00	1.038609e+00	1.104331e+00	1.075315e+00	1.102365e+00	1.031505e+00	1.045528e+00	1.000166e+00	1.016423e+00	9.658643e-01	9.831560e-01	9.317683e-01	9.486413e-01	8.999349e-01	9.154617e-01	8.600102e-01	8.857437e-01	7.871535e-01	7.912493e-01	7.810427e-01	7.838660e-01	7.762793e-01	7.777717e-01	8.468865e-01	7.863045e-01	8.307799e-01	9.826438e-01	1.043711e+00	9.555551e-01	8.228106e-01	8.671281e-01	1.054619e+00	8.067474e-01	9.236052e-01	7.723034e-01	7.716370e-01	7.978150e-01	7.732796e-01	1.090200e+00	1.092257e+00	8.019899e-01	1.099256e+00	1.110323e+00	8.058705e-01	8.107493e-01	1.092008e+00	1.206468e+00	1.157922e+00	1.174440e+00	8.930754e-01	9.963537e-01	1.124342e+00	8.433358e-01	1.286679e+00	1.170254e+00	9.292676e-01	8.603910e-01	8.187194e-01	7.839986e-01	1.200207e+00	1.259977e+00	8.235922e-01	9.162490e-01	1.003180e+00	1.199556e+00	8.740261e-01	9.115975e-01	9.454498e-01	1.133414e+00	8.257217e-01	9.760943e-01	9.655610e-01	9.118808e-01	1.317277e+00	8.359063e-01	1.132610e+00	1.041599e+00	8.597082e-01	9.209828e-01	9.026210e-01	8.579011e-01	9.238333e-01	8.472808e-01	9.963886e-01	9.503474e-01	9.572966e-01	8.549595e-01	9.156018e-01	1.020722e+00	7.817815e-01	9.234267e-01	7.871110e-01	1.042016e+00	1.100517e+00	8.108890e-01	8.504765e-01	1.099723e+00	1.048822e+00	1.108270e+00	1.100983e+00	1.094526e+00	7.965737e-01	8.088248e-01	7.945625e-01	7.816772e-01	9.070632e-01	8.397040e-01	9.145582e-01	7.847620e-01	7.931670e-01	1.098095e+00	1.118959e+00	1.055689e+00	8.535887e-01	1.215364e+00	1.145783e+00	1.131560e+00	1.009977e+00	1.134313e+00	1.234063e+00	1.331123e+00	1.315260e+00	1.101966e+00	1.217659e+00	9.512812e-01	1.163073e+00	1.148624e+00	8.282055e-01	8.753041e-01	1.123092e+00	9.867678e-01	8.804518e-01	1.141717e+00	1.332428e+00	8.564023e-01	8.242694e-01	9.707754e-01	8.028359e-01	9.814602e-01	9.918270e-01	9.369185e-01	1.000208e+00	1.005498e+00	1.017355e+00	1.048190e+00	1.027409e+00	1.058820e+00	1.110075e+00	8.740469e-01	9.356734e-01	9.405800e-01	1.155424e+00	8.598008e-01	8.624203e-01	8.655255e-01	1.073965e+00	8.517234e-01	8.546180e-01	8.296476e-01	1.003690e+00	1.007786e+00	1.011230e+00	8.665717e-01	9.009754e-01	8.787050e-01	8.900642e-01	1.077064e+00	1.094559e+00	9.257905e-01	9.307273e-01	8.911234e-01	8.821805e-01	8.823224e-01	8.861069e-01	9.845683e-01	9.671506e-01	1.165203e+00	8.351674e-01	8.414486e-01	8.483774e-01	8.438161e-01	8.324813e-01	8.294520e-01	8.230357e-01	8.236305e-01	8.269290e-01	1.298648e+00	1.267566e+00	7.994736e-01	1.095817e+00	8.558252e-01	8.456291e-01	8.414868e-01	8.380164e-01	1.095711e+00	1.100232e+00	1.077431e+00	8.349532e-01	8.317768e-01	8.202613e-01	1.070029e+00	1.096341e+00	7.857594e-01	7.886821e-01	7.986494e-01	8.007375e-01	7.859289e-01	7.836482e-01	7.825458e-01	9.891622e-01	9.559517e-01	9.476714e-01	9.809375e-01	1.013167e+00	1.062725e+00	1.035110e+00	1.028023e+00	1.005404e+00	9.973762e-01	9.726030e-01	9.642660e-01	9.394812e-01	9.313839e-01	9.079751e-01	9.005990e-01	8.676392e-01	8.615409e-01	8.935886e-01	8.869007e-01	7.926756e-01	7.910126e-01	7.895707e-01	7.883158e-01	8.811506e-01	8.080939e-01	8.196563e-01	9.553327e-01	9.604150e-01	8.687874e-01	8.720140e-01	1.070611e+00	8.348966e-01	7.821499e-01	7.829106e-01	8.068910e-01	8.048974e-01	8.165529e-01	8.133930e-01	1.091142e+00	1.084638e+00	8.941225e-01	8.983209e-01	1.024782e+00	1.297459e+00	8.249302e-01	1.311683e+00	8.535608e-01	8.289293e-01	9.508457e-01	8.774879e-01	1.007319e+00	1.107256e+00	1.101190e+00	1.096647e+00	1.081899e+00	1.115916e+00	1.160540e+00	1.181447e+00	1.153172e+00	1.200927e+00	1.103643e+00	1.283523e+00	9.195867e-01	1.010739e+00	1.131604e+00	8.760690e-01	1.172931e+00	1.220839e+00	9.220172e-01	1.276008e+00	9.266895e-01	1.131159e+00	9.861853e-01	1.190639e+00	8.324547e-01	9.810489e-01	9.174077e-01	1.139495e+00	1.160611e+00	1.095957e+00	8.582276e-01	1.093329e+00	9.165708e-01	1.125920e+00	8.530588e-01	8.059133e-01	8.139962e-01	7.923023e-01	7.988442e-01	1.171560e+00	1.293362e+00	1.185421e+00	9.092061e-01	1.241141e+00	1.055107e+00	9.316383e-01	1.312307e+00	8.658955e-01	8.626005e-01	1.077694e+00	9.826039e-01	1.017917e+00	9.873822e-01	9.241260e-01	1.097468e+00	1.095705e+00	1.051879e+00	1.045260e+00	8.119917e-01	8.079796e-01	8.000024e-01	7.905713e-01	9.084511e-01	9.128797e-01	8.453112e-01	9.426938e-01	7.914302e-01	1.095956e+00	1.136206e+00	1.029685e+00	1.134874e+00	1.249591e+00	1.315114e+00	1.053291e+00	1.186196e+00	1.178460e+00	1.070332e+00	1.122771e+00	8.824505e-01	8.610009e-01	8.306265e-01	9.706771e-01	9.758534e-01	9.911818e-01	9.958801e-01	9.591622e-01	9.448246e-01	1.000138e+00	1.003929e+00	1.029570e+00	1.041131e+00	1.112256e+00	9.412098e-01	9.460406e-01	1.146007e+00	8.648513e-01	8.678044e-01	8.572446e-01	8.594804e-01	1.031155e+00	1.014937e+00	1.020923e+00	8.808730e-01	8.730337e-01	8.808137e-01	8.843199e-01	1.085539e+00	1.099662e+00	9.314727e-01	9.363888e-01	9.085587e-01	8.983466e-01	8.891677e-01	8.879989e-01	8.918564e-01	1.011022e+00	9.922421e-01	9.748963e-01	8.368660e-01	8.425604e-01	8.484747e-01	8.598813e-01	8.545718e-01	8.497581e-01	8.413239e-01	8.377472e-01	8.286965e-01	8.297208e-01	8.346810e-01	8.175464e-01	8.483923e-01	8.444097e-01	1.096493e+00	8.410773e-01	8.378808e-01	8.344363e-01	8.266426e-01	1.071878e+00	8.033366e-01	8.094519e-01	8.038623e-01	8.018967e-01	7.908501e-01	7.906744e-01	7.905178e-01	9.555048e-01	1.065232e+00	1.058494e+00	1.038604e+00	1.031898e+00	1.025076e+00	1.010523e+00	1.003007e+00	9.952610e-01	9.795101e-01	9.715251e-01	9.635137e-01	9.475545e-01	9.396402e-01	9.318402e-01	9.091913e-01	8.696493e-01	8.638050e-01	9.021097e-01	8.953327e-01	8.888134e-01	7.982530e-01	7.966636e-01	7.953376e-01	7.942029e-01	7.932398e-01	8.283185e-01	8.423202e-01	9.557003e-01	9.606607e-01	9.656175e-01	8.709958e-01	8.742163e-01	8.600174e-01	8.818812e-01	7.914911e-01	7.933458e-01	7.957126e-01	8.100245e-01	8.227945e-01	8.193387e-01	8.163611e-01	1.089476e+00	1.084375e+00	1.078394e+00	8.958274e-01	8.999241e-01	9.041265e-01	8.321063e-01	8.301719e-01	1.290032e+00	9.274574e-01	1.129323e+00	1.097643e+00	8.828728e-01	1.262176e+00	1.159476e+00	1.013073e+00	1.018011e+00	1.057066e+00	1.112648e+00	8.565523e-01	1.271332e+00	9.664861e-01	1.206327e+00	1.092453e+00	1.120589e+00	1.172500e+00	9.175433e-01	1.131148e+00	1.185407e+00	1.188067e+00	9.561852e-01	8.733379e-01	1.103875e+00	8.600433e-01	9.396237e-01	8.661486e-01	8.355191e-01	1.100990e+00	8.782586e-01	1.090387e+00	1.087366e+00	9.863608e-01	7.986338e-01	8.095933e-01	1.122155e+00	8.179036e-01	9.864209e-01	1.146667e+00	1.105952e+00	1.144083e+00	1.078642e+00	1.128210e+00	9.231558e-01	1.231589e+00	9.282715e-01	9.323678e-01	1.154279e+00	1.129985e+00	1.180618e+00	1.015318e+00	8.603404e-01	8.156580e-01	1.219792e+00	1.002925e+00	9.256072e-01	1.048548e+00	8.177031e-01	8.136568e-01	8.115830e-01	9.142259e-01	9.192299e-01	1.095683e+00	1.043113e+00	1.087151e+00	1.254761e+00	1.296892e+00	1.079761e+00	1.065696e+00	1.113127e+00	8.854903e-01	9.763024e-01	9.812954e-01	9.913028e-01	9.960460e-01	9.668209e-01	9.526790e-01	1.000476e+00	1.004750e+00	1.008889e+00	1.041470e+00	1.053066e+00	9.465863e-01	9.518188e-01	1.137270e+00	8.680472e-01	8.707204e-01	8.628625e-01	8.646594e-01	1.023949e+00	1.031622e+00	8.884715e-01	8.800010e-01	8.869568e-01	1.091122e+00	1.102775e+00	9.374940e-01	9.427732e-01	9.162580e-01	9.061217e-01	8.971491e-01	8.899267e-01	8.943084e-01	1.036953e+00	1.017475e+00	9.989070e-01	9.820261e-01	8.403207e-01	8.449641e-01	8.503618e-01	8.555841e-01	8.673552e-01	8.618158e-01	8.566129e-01	8.519463e-01	8.477605e-01	8.371723e-01	8.356044e-01	8.441195e-01	8.517406e-01	1.094599e+00	1.093712e+00	8.479712e-01	8.445779e-01	8.411478e-01	8.374691e-01	8.335657e-01	8.261567e-01	8.365793e-01	8.076554e-01	8.059316e-01	7.984287e-01	7.987481e-01	7.995330e-01	8.003128e-01	1.067136e+00	1.061030e+00	1.054862e+00	1.042196e+00	1.035870e+00	1.029522e+00	1.022059e+00	1.009082e+00	1.001027e+00	9.935960e-01	9.783960e-01	9.711470e-01	9.629851e-01	9.558180e-01	9.475678e-01	9.405697e-01	9.323621e-01	8.665725e-01	8.715023e-01	9.111530e-01	9.034772e-01	8.976350e-01	8.904884e-01	8.042737e-01	8.028528e-01	8.014792e-01	8.004200e-01	7.994914e-01	7.988760e-01	8.488641e-01	8.645338e-01	9.613981e-01	9.665684e-01	9.713293e-01	8.738880e-01	8.762142e-01	8.801236e-01	8.841531e-01	9.072839e-01	9.342788e-01	8.014631e-01	8.038187e-01	8.076966e-01	8.122250e-01	8.296637e-01	8.260550e-01	8.228260e-01	8.199011e-01	1.073027e+00	1.083320e+00	1.078558e+00	8.975595e-01	9.021770e-01	9.056715e-01	9.104966e-01	8.409531e-01	8.383997e-01	8.365061e-01	1.147952e+00	1.125312e+00	1.073703e+00	1.177459e+00	1.171205e+00	9.361544e-01	9.357056e-01	1.193479e+00	1.096496e+00	1.235414e+00	1.080812e+00	8.821152e-01	8.064658e-01	1.019135e+00	1.127618e+00	1.235277e+00	1.292523e+00	1.294558e+00	1.281737e+00	1.250921e+00	1.138748e+00	8.218867e-01	1.084577e+00	1.121558e+00	1.026471e+00	9.593741e-01	8.664410e-01	1.115893e+00	1.068720e+00	1.082061e+00	8.769838e-01	8.668146e-01	9.228974e-01	9.815067e-01	8.601454e-01	8.872721e-01	8.232865e-01	1.109639e+00	9.478112e-01	1.165186e+00	1.099772e+00	1.292747e+00	1.182395e+00	1.173240e+00	1.019631e+00	1.060925e+00	1.266870e+00	9.862535e-01	1.215171e+00	1.088065e+00	1.162437e+00	1.177068e+00	1.178081e+00	1.125324e+00	8.421843e-01	8.428457e-01	1.104086e+00	8.876717e-01	1.085436e+00	1.113504e+00	9.273179e-01	1.200535e+00	8.191065e-01	8.177623e-01	8.150518e-01	9.185285e-01	1.053748e+00	1.090471e+00	1.275436e+00	1.103497e+00	9.823938e-01	9.865175e-01	9.919059e-01	9.963412e-01	9.606486e-01	9.749383e-01	1.001479e+00	1.005480e+00	1.010434e+00	1.015516e+00	1.052011e+00	1.062693e+00	9.505873e-01	1.128599e+00	8.711392e-01	8.739873e-01	8.679228e-01	8.701808e-01	1.033919e+00	1.042144e+00	8.958440e-01	8.867713e-01	1.095049e+00	1.104753e+00	9.441402e-01	9.241679e-01	9.132919e-01	9.065985e-01	8.944620e-01	1.041971e+00	1.023329e+00	1.005482e+00	9.899442e-01	8.450908e-01	8.475451e-01	8.527660e-01	8.571118e-01	8.623507e-01	8.743569e-01	8.699456e-01	8.629154e-01	8.594212e-01	8.537454e-01	1.094052e+00	1.092118e+00	1.090238e+00	8.548583e-01	8.519901e-01	8.476646e-01	8.446699e-01	8.400834e-01	8.437049e-01	8.559790e-01	8.139597e-01	8.115299e-01	8.058648e-01	8.086910e-01	8.107127e-01	1.062833e+00	1.057410e+00	1.051342e+00	1.045515e+00	1.039306e+00	1.033370e+00	1.026538e+00	1.016654e+00	1.007258e+00	9.955783e-01	9.668424e-01	9.520676e-01	9.373792e-01	9.089921e-01	8.967583e-01	8.108666e-01	8.087174e-01	8.084533e-01	8.064861e-01	8.068219e-01	8.060706e-01	8.060419e-01	8.703737e-01	8.866778e-01	9.675549e-01	9.720388e-01	9.770926e-01	8.770750e-01	8.809096e-01	9.067388e-01	9.307356e-01	9.568062e-01	8.127454e-01	8.158033e-01	8.207719e-01	8.278999e-01	8.351174e-01	8.369009e-01	8.324516e-01	8.300905e-01	8.265649e-01	1.078276e+00	1.073026e+00	9.020705e-01	9.100937e-01	8.512235e-01	8.467594e-01	8.454000e-01	8.424952e-01	1.166095e+00	1.154353e+00	1.181124e+00	1.255232e+00	1.180683e+00	1.088617e+00	1.106531e+00	1.183737e+00	1.086430e+00	1.141065e+00	1.105958e+00	1.255471e+00	1.081598e+00	1.161479e+00	8.286268e-01	1.177726e+00	1.061359e+00	1.152709e+00	1.141329e+00	1.079421e+00	8.885929e-01	1.101695e+00	8.494532e-01	1.035109e+00	1.024719e+00	9.103724e-01	9.436696e-01	8.859538e-01	1.231299e+00	8.725682e-01	9.696703e-01	9.567941e-01	8.161212e-01	1.094239e+00	1.066114e+00	1.213192e+00	1.031383e+00	1.070047e+00	1.170723e+00	1.097567e+00	1.291546e+00	1.245103e+00	1.113762e+00	9.439299e-01	8.694245e-01	8.608072e-01	1.112106e+00	1.173868e+00	1.129496e+00	1.275419e+00	1.176738e+00	1.063996e+00	1.217018e+00	1.199817e+00	8.879018e-01	1.101371e+00	1.083984e+00	1.080387e+00	8.779113e-01	8.243163e-01	8.204188e-01	9.356440e-01	1.092242e+00	1.123161e+00	1.122051e+00	9.899753e-01	9.993572e-01	9.825470e-01	1.008947e+00	1.017417e+00	1.060598e+00	1.121015e+00	8.759116e-01	1.043319e+00	1.051467e+00	8.990838e-01	1.097469e+00	9.511539e-01	9.585525e-01	9.274783e-01	9.140331e-01	8.952144e-01	1.046349e+00	1.027747e+00	1.010933e+00	9.993523e-01	8.533776e-01	8.612632e-01	8.688172e-01	8.735488e-01	8.632306e-01	1.091460e+00	1.088977e+00	8.530398e-01	8.452617e-01	8.756822e-01	8.173480e-01	8.214640e-01	1.003360e+00	1.056169e+00	1.044956e+00	1.033431e+00	1.022855e+00	1.013472e+00	9.910279e-01	9.773581e-01	9.632798e-01	9.491494e-01	9.349905e-01	9.210774e-01	9.085152e-01	8.980014e-01	8.151447e-01	8.137412e-01	8.139062e-01	8.126263e-01	8.147154e-01	8.920059e-01	9.089727e-01	9.670614e-01	9.751535e-01	9.830984e-01	8.798796e-01	8.835902e-01	9.282244e-01	9.513931e-01	9.766016e-01	1.002763e+00	8.253425e-01	8.290168e-01	8.346710e-01	8.432775e-01	8.542576e-01	8.603411e-01	8.381881e-01	8.336856e-01	1.077857e+00	1.073360e+00	9.026134e-01	9.184895e-01	9.269805e-01	8.554031e-01	8.504821e-01	1.117366e+00	1.166031e+00	1.161193e+00	1.136229e+00	1.025149e+00	1.108352e+00	1.173797e+00	1.135640e+00	1.185624e+00	1.135116e+00	1.147622e+00	1.126794e+00	1.092835e+00	1.193887e+00	1.235763e+00	1.088375e+00	9.513889e-01	8.366001e-01	1.125020e+00	1.017037e+00	1.099308e+00	8.873548e-01	1.066983e+00	1.169559e+00	8.756428e-01	1.043528e+00	9.187687e-01	8.964288e-01	1.083531e+00	1.091455e+00	1.082002e+00	1.066797e+00	1.171383e+00	1.098724e+00	1.103058e+00	1.082858e+00	8.278925e-01	8.987194e-01	9.353705e-01	9.893461e-01	1.150498e+00	1.157242e+00	1.272200e+00	1.075358e+00	1.085469e+00	1.175644e+00	1.099205e+00	1.169337e+00	1.152230e+00	8.906621e-01	1.225013e+00	9.795536e-01	9.642289e-01	1.094842e+00	1.233845e+00	1.067199e+00	1.106576e+00	9.436954e-01	1.254475e+00	1.176120e+00	1.004890e+00	1.213176e+00	1.200203e+00	8.795139e-01	1.117494e+00	1.079387e+00	8.887190e-01	8.319326e-01	9.090510e-01	1.118656e+00	1.143749e+00	9.979024e-01	1.007469e+00	1.025323e+00	1.034247e+00	1.114285e+00	8.792620e-01	1.051214e+00	1.058980e+00	8.698587e-01	9.747017e-01	9.826458e-01	9.586462e-01	9.495705e-01	9.342801e-01	9.194654e-01	1.048799e+00	8.579480e-01	8.627662e-01	9.050560e-01	8.911481e-01	9.269449e-01	1.091451e+00	8.708895e-01	8.626774e-01	8.322270e-01	1.059568e+00	1.049641e+00	1.009955e+00	1.038991e+00	1.028698e+00	1.019283e+00	9.992757e-01	9.869461e-01	9.737457e-01	9.602828e-01	9.466811e-01	9.330512e-01	9.202459e-01	8.247365e-01	8.227297e-01	8.217303e-01	8.217066e-01	8.218884e-01	8.263286e-01	9.121923e-01	9.305200e-01	9.664291e-01	9.898783e-01	8.824516e-01	8.861544e-01	9.485659e-01	9.695478e-01	9.931440e-01	1.016697e+00	1.041301e+00	8.393885e-01	8.452779e-01	8.507180e-01	8.590443e-01	8.712707e-01	8.548225e-01	8.475642e-01	8.416654e-01	1.074610e+00	1.067884e+00	9.033660e-01	9.109143e-01	8.786933e-01	8.686275e-01	8.613857e-01	8.575252e-01	1.152312e+00	1.152997e+00	1.149700e+00	1.121104e+00	1.156340e+00	1.140359e+00	1.113871e+00	1.050451e+00	1.172801e+00	1.120701e+00	1.117945e+00	1.071718e+00	1.165997e+00	1.084798e+00	8.325323e-01	1.137623e+00	1.141613e+00	1.128237e+00	1.169438e+00	1.071214e+00	9.255970e-01	1.026755e+00	1.024873e+00	9.592924e-01	1.132823e+00	1.131977e+00	1.128166e+00	1.171846e+00	1.172221e+00	9.001389e-01	9.