# vtk DataFile Version 3.0
vtk output
ASCII
DATASET UNSTRUCTURED_GRID
POINTS 200 float
9.997500e-01	-3.633244e-05	0.0	9.990000e-01	-1.454728e-04	0.0	9.977600e-01	-3.275130e-04	0.0	9.960200e-01	-5.899576e-04	0.0	9.937800e-01	-9.472051e-04	0.0	9.910500e-01	-1.422403e-03	0.0	9.878400e-01	-2.046219e-03	0.0	9.841300e-01	-2.855065e-03	0.0	9.799500e-01	-3.861321e-03	0.0	9.752800e-01	-5.062169e-03	0.0	9.701500e-01	-6.410742e-03	0.0	9.645400e-01	-7.848473e-03	0.0	9.584700e-01	-9.299894e-03	0.0	9.519400e-01	-1.070954e-02	0.0	9.449600e-01	-1.204940e-02	0.0	9.375400e-01	-1.332386e-02	0.0	9.296900e-01	-1.456022e-02	0.0	9.214000e-01	-1.579682e-02	0.0	9.127000e-01	-1.706089e-02	0.0	9.035800e-01	-1.837348e-02	0.0	8.940600e-01	-1.973821e-02	0.0	8.841500e-01	-2.115045e-02	0.0	8.738500e-01	-2.260195e-02	0.0	8.631800e-01	-2.408061e-02	0.0	8.521600e-01	-2.557576e-02	0.0	8.407700e-01	-2.708425e-02	0.0	8.290500e-01	-2.859685e-02	0.0	8.170100e-01	-3.010971e-02	0.0	8.046400e-01	-3.162203e-02	0.0	7.919700e-01	-3.312816e-02	0.0	7.790100e-01	-3.462483e-02	0.0	7.657800e-01	-3.610742e-02	0.0	7.522800e-01	-3.757339e-02	0.0	7.385200e-01	-3.901887e-02	0.0	7.245300e-01	-4.043799e-02	0.0	7.103200e-01	-4.182711e-02	0.0	6.958900e-01	-4.318368e-02	0.0	6.812700e-01	-4.450249e-02	0.0	6.664700e-01	-4.578055e-02	0.0	6.515000e-01	-4.701508e-02	0.0	6.363800e-01	-4.820277e-02	0.0	6.211300e-01	-4.934072e-02	0.0	6.057600e-01	-5.042708e-02	0.0	5.902800e-01	-5.146023e-02	0.0	5.747100e-01	-5.243813e-02	0.0	5.590600e-01	-5.335964e-02	0.0	5.433600e-01	-5.422268e-02	0.0	5.276100e-01	-5.502708e-02	0.0	5.118400e-01	-5.577122e-02	0.0	4.960500e-01	-5.645506e-02	0.0	4.802700e-01	-5.707728e-02	0.0	4.645100e-01	-5.763752e-02	0.0	4.487800e-01	-5.813533e-02	0.0	4.331100e-01	-5.856966e-02	0.0	4.175000e-01	-5.894028e-02	0.0	4.019700e-01	-5.924634e-02	0.0	3.865400e-01	-5.948696e-02	0.0	3.712300e-01	-5.966126e-02	0.0	3.560400e-01	-5.976847e-02	0.0	3.409900e-01	-5.980744e-02	0.0	3.261100e-01	-5.977707e-02	0.0	3.114000e-01	-5.967621e-02	0.0	2.968700e-01	-5.950350e-02	0.0	2.825500e-01	-5.925784e-02	0.0	2.684500e-01	-5.893793e-02	0.0	2.545700e-01	-5.854208e-02	0.0	2.409400e-01	-5.806940e-02	0.0	2.275700e-01	-5.751861e-02	0.0	2.144700e-01	-5.688837e-02	0.0	2.016600e-01	-5.617798e-02	0.0	1.891400e-01	-5.538573e-02	0.0	1.769300e-01	-5.451117e-02	0.0	1.650400e-01	-5.355342e-02	0.0	1.534900e-01	-5.251266e-02	0.0	1.422900e-01	-5.138858e-02	0.0	1.314400e-01	-5.017986e-02	0.0	1.209500e-01	-4.888622e-02	0.0	1.108500e-01	-4.751040e-02	0.0	1.011300e-01	-4.605016e-02	0.0	9.181000e-02	-4.450760e-02	0.0	8.290000e-02	-4.288376e-02	0.0	7.440000e-02	-4.117797e-02	0.0	6.633000e-02	-3.939372e-02	0.0	5.869000e-02	-3.753066e-02	0.0	5.149000e-02	-3.559078e-02	0.0	4.474000e-02	-3.357656e-02	0.0	3.844000e-02	-3.148766e-02	0.0	3.260000e-02	-2.932689e-02	0.0	2.723000e-02	-2.709793e-02	0.0	2.232000e-02	-2.479571e-02	0.0	1.790000e-02	-2.243425e-02	0.0	1.395000e-02	-2.000273e-02	0.0	1.049000e-02	-1.751245e-02	0.0	7.520000e-03	-1.496438e-02	0.0	5.040000e-03	-1.235877e-02	0.0	3.050000e-03	-9.694235e-03	0.0	1.560000e-03	-6.986269e-03	0.0	5.600000e-04	-4.214048e-03	0.0	6.000000e-05	-1.385760e-03	0.0	0.000000e+00	0.000000e+00	0.0	6.000000e-05	1.265763e-03	0.0	5.600000e-04	3.633913e-03	0.0	1.560000e-03	5.805558e-03	0.0	3.050000e-03	7.831500e-03	0.0	5.040000e-03	9.756403e-03	0.0	7.520000e-03	1.158775e-02	0.0	1.049000e-02	1.334039e-02	0.0	1.395000e-02	1.502478e-02	0.0	1.790000e-02	1.664880e-02	0.0	2.232000e-02	1.821204e-02	0.0	2.723000e-02	1.972768e-02	0.0	3.260000e-02	2.119161e-02	0.0	3.844000e-02	2.261156e-02	0.0	4.474000e-02	2.398895e-02	0.0	5.149000e-02	2.532519e-02	0.0	5.869000e-02	2.662337e-02	0.0	6.633000e-02	2.788425e-02	0.0	7.440000e-02	2.910856e-02	0.0	8.290000e-02	3.029827e-02	0.0	9.181000e-02	3.145233e-02	0.0	1.011300e-01	3.257230e-02	0.0	1.108500e-01	3.365819e-02	0.0	1.209500e-01	3.470892e-02	0.0	1.314400e-01	3.572640e-02	0.0	1.422900e-01	3.670837e-02	0.0	1.534900e-01	3.765461e-02	0.0	1.650400e-01	3.856551e-02	0.0	1.769300e-01	3.944043e-02	0.0	1.891400e-01	4.027792e-02	0.0	2.016600e-01	4.107722e-02	0.0	2.144700e-01	4.183686e-02	0.0	2.275700e-01	4.255643e-02	0.0	2.409400e-01	4.323425e-02	0.0	2.545700e-01	4.386909e-02	0.0	2.684500e-01	4.445954e-02	0.0	2.825500e-01	4.500331e-02	0.0	2.968700e-01	4.549924e-02	0.0	3.114000e-01	4.594554e-02	0.0	3.261100e-01	4.633976e-02	0.0	3.409900e-01	4.668003e-02	0.0	3.560400e-01	4.696447e-02	0.0	3.712300e-01	4.719052e-02	0.0	3.865400e-01	4.735588e-02	0.0	4.019700e-01	4.745838e-02	0.0	4.175000e-01	4.749559e-02	0.0	4.331100e-01	4.746515e-02	0.0	4.487800e-01	4.736482e-02	0.0	4.645100e-01	4.719226e-02	0.0	4.802700e-01	4.694548e-02	0.0	4.960500e-01	4.662248e-02	0.0	5.118400e-01	4.622133e-02	0.0	5.276100e-01	4.574088e-02	0.0	5.433600e-01	4.517946e-02	0.0	5.590600e-01	4.453670e-02	0.0	5.747100e-01	4.381148e-02	0.0	5.902800e-01	4.300445e-02	0.0	6.057600e-01	4.211589e-02	0.0	6.211300e-01	4.114717e-02	0.0	6.363800e-01	4.009969e-02	0.0	6.515000e-01	3.897541e-02	0.0	6.664700e-01	3.777768e-02	0.0	6.812700e-01	3.651071e-02	0.0	6.958900e-01	3.517866e-02	0.0	7.103200e-01	3.378633e-02	0.0	7.245300e-01	3.234128e-02	0.0	7.385200e-01	3.084885e-02	0.0	7.522800e-01	2.931599e-02	0.0	7.657800e-01	2.775258e-02	0.0	7.790100e-01	2.616701e-02	0.0	7.919700e-01	2.456692e-02	0.0	8.046400e-01	2.296282e-02	0.0	8.170100e-01	2.136436e-02	0.0	8.290500e-01	1.978389e-02	0.0	8.407700e-01	1.822821e-02	0.0	8.521600e-01	1.670576e-02	0.0	8.631800e-01	1.522739e-02	0.0	8.738500e-01	1.379358e-02	0.0	8.841500e-01	1.240752e-02	0.0	8.940600e-01	1.107040e-02	0.0	9.035800e-01	9.780501e-03	0.0	9.127000e-01	8.540498e-03	0.0	9.214000e-01	7.361328e-03	0.0	9.296900e-01	6.259576e-03	0.0	9.375400e-01	5.266251e-03	0.0	9.449600e-01	4.410567e-03	0.0	9.519400e-01	3.717490e-03	0.0	9.584700e-01	3.193131e-03	0.0	9.645400e-01	2.817229e-03	0.0	9.701500e-01	2.544773e-03	0.0	9.752800e-01	2.319772e-03	0.0	9.799500e-01	2.089842e-03	0.0	9.841300e-01	1.825174e-03	0.0	9.878400e-01	1.518961e-03	0.0	9.910500e-01	1.189789e-03	0.0	9.937800e-01	8.628728e-04	0.0	9.960200e-01	5.665851e-04	0.0	9.977600e-01	3.231806e-04	0.0	9.990000e-01	1.450776e-04	0.0	9.997500e-01	3.632617e-05	0.0	1.000000e+00	0.000000e+00	0.0	
CELLS 200	600
2	149	150	2	150	151	2	151	152	2	152	153	2	153	154	2	154	155	2	155	156	2	156	157	2	157	158	2	158	159	2	159	160	2	160	161	2	161	162	2	162	163	2	163	164	2	164	165	2	165	166	2	166	167	2	167	168	2	168	169	2	169	170	2	170	171	2	171	172	2	172	173	2	173	174	2	174	175	2	175	176	2	176	177	2	177	178	2	178	179	2	179	180	2	180	181	2	181	182	2	31	32	2	32	33	2	33	34	2	34	35	2	35	36	2	36	37	2	37	38	2	38	39	2	39	40	2	40	41	2	41	42	2	42	43	2	43	44	2	44	45	2	45	46	2	46	47	2	47	48	2	48	49	2	49	50	2	50	51	2	51	52	2	52	53	2	53	54	2	54	55	2	55	56	2	56	57	2	57	58	2	58	59	2	59	60	2	60	61	2	61	62	2	62	63	2	63	64	2	64	65	2	65	66	2	66	67	2	67	68	2	68	69	2	69	70	2	70	71	2	71	72	2	72	73	2	73	74	2	74	75	2	75	76	2	76	77	2	77	78	2	78	79	2	79	80	2	80	81	2	81	82	2	82	83	2	83	84	2	113	114	2	114	115	2	115	116	2	116	117	2	117	118	2	118	119	2	119	120	2	120	121	2	121	122	2	122	123	2	123	124	2	124	125	2	125	126	2	126	127	2	127	128	2	128	129	2	129	130	2	130	131	2	131	132	2	132	133	2	133	134	2	134	135	2	135	136	2	136	137	2	137	138	2	138	139	2	139	140	2	140	141	2	141	142	2	142	143	2	143	144	2	144	145	2	145	146	2	146	147	2	147	148	2	148	149	2	84	85	2	85	86	2	86	87	2	87	88	2	88	89	2	89	90	2	90	91	2	91	92	2	92	93	2	93	94	2	94	95	2	95	96	2	96	97	2	97	98	2	98	99	2	99	100	2	100	101	2	101	102	2	102	103	2	103	104	2	104	105	2	105	106	2	106	107	2	107	108	2	108	109	2	109	110	2	110	111	2	111	112	2	112	113	2	199	0	2	0	1	2	1	2	2	2	3	2	3	4	2	4	5	2	5	6	2	6	7	2	182	183	2	183	184	2	184	185	2	185	186	2	186	187	2	187	188	2	188	189	2	189	190	2	190	191	2	191	192	2	192	193	2	193	194	2	194	195	2	195	196	2	196	197	2	197	198	2	198	199	2	7	8	2	8	9	2	9	10	2	10	11	2	11	12	2	12	13	2	13	14	2	14	15	2	15	16	2	16	17	2	17	18	2	18	19	2	19	20	2	20	21	2	21	22	2	22	23	2	23	24	2	24	25	2	25	26	2	26	27	2	27	28	2	28	29	2	29	30	2	30	31	
CELL_TYPES 200
3	3	3	3	3	3	3	3	3	3	3	3	3	3	3	3	3	3	3	3	3	3	3	3	3	3	3	3	3	3	3	3	3	3	3	3	3	3	3	3	3	3	3	3	3	3	3	3	3	3	3	3	3	3	3	3	3	3	3	3	3	3	3	3	3	3	3	3	3	3	3	3	3	3	3	3	3	3	3	3	3	3	3	3	3	3	3	3	3	3	3	3	3	3	3	3	3	3	3	3	3	3	3	3	3	3	3	3	3	3	3	3	3	3	3	3	3	3	3	3	3	3	3	3	3	3	3	3	3	3	3	3	3	3	3	3	3	3	3	3	3	3	3	3	3	3	3	3	3	3	3	3	3	3	3	3	3	3	3	3	3	3	3	3	3	3	3	3	3	3	3	3	3	3	3	3	3	3	3	3	3	3	3	3	3	3	3	3	3	3	3	3	3	3	3	3	3	3	3	3	
POINT_DATA 200

SCALARS Conservative_1 float 1
LOOKUP_TABLE default
1.199835e+00	1.181621e+00	1.171212e+00	1.164790e+00	1.160234e+00	1.155784e+00	1.148910e+00	1.137995e+00	1.121808e+00	1.100437e+00	1.075122e+00	1.048473e+00	1.024861e+00	1.008286e+00	9.998823e-01	9.978054e-01	9.989029e-01	1.000336e+00	1.000353e+00	9.983530e-01	9.945567e-01	9.895225e-01	9.838368e-01	9.779720e-01	9.722058e-01	9.666488e-01	9.612915e-01	9.560869e-01	9.509699e-01	9.459088e-01	9.408876e-01	9.358623e-01	9.307988e-01	9.257137e-01	9.206587e-01	9.156827e-01	9.108044e-01	9.060286e-01	9.013668e-01	8.968359e-01	8.924357e-01	8.881772e-01	8.840430e-01	8.800501e-01	8.762133e-01	8.725844e-01	8.691522e-01	8.658521e-01	8.625366e-01	8.591962e-01	8.560336e-01	8.534046e-01	8.514282e-01	8.498193e-01	8.479099e-01	8.449416e-01	8.403911e-01	8.343731e-01	8.277461e-01	8.217839e-01	8.174103e-01	8.148437e-01	8.138174e-01	8.138926e-01	8.147519e-01	8.161907e-01	8.181566e-01	8.205643e-01	8.233269e-01	8.263328e-01	8.296046e-01	8.333099e-01	8.376975e-01	8.428330e-01	8.486363e-01	8.549602e-01	8.618719e-01	8.695521e-01	8.780581e-01	8.874295e-01	8.977784e-01	9.091642e-01	9.217394e-01	9.356225e-01	9.510048e-01	9.681652e-01	9.873328e-01	1.008868e+00	1.033257e+00	1.060814e+00	1.092069e+00	1.127484e+00	1.166894e+00	1.209825e+00	1.254556e+00	1.298050e+00	1.331727e+00	1.350882e+00	1.339633e+00	1.308578e+00	1.284771e+00	1.222013e+00	1.100957e+00	1.003681e+00	9.275264e-01	8.714412e-01	8.330386e-01	8.076632e-01	7.905124e-01	7.788432e-01	7.709552e-01	7.656732e-01	7.624330e-01	7.604907e-01	7.594673e-01	7.593573e-01	7.600317e-01	7.612530e-01	7.626981e-01	7.640325e-01	7.652629e-01	7.667136e-01	7.686532e-01	7.709408e-01	7.731745e-01	7.751145e-01	7.768458e-01	7.785162e-01	7.802335e-01	7.820734e-01	7.840947e-01	7.862835e-01	7.885695e-01	7.908559e-01	7.931046e-01	7.952943e-01	7.974154e-01	7.994293e-01	8.013626e-01	8.033878e-01	8.058182e-01	8.088810e-01	8.125591e-01	8.165343e-01	8.203824e-01	8.238149e-01	8.268333e-01	8.297618e-01	8.330442e-01	8.370659e-01	8.418481e-01	8.471978e-01	8.529121e-01	8.589456e-01	8.652475e-01	8.717153e-01	8.783032e-01	8.851000e-01	8.922714e-01	8.998328e-01	9.077164e-01	9.158380e-01	9.241553e-01	9.326565e-01	9.413082e-01	9.500958e-01	9.589695e-01	9.679124e-01	9.768504e-01	9.857860e-01	9.946362e-01	1.003320e+00	1.011776e+00	1.019918e+00	1.027700e+00	1.035101e+00	1.042168e+00	1.049079e+00	1.056096e+00	1.063608e+00	1.071913e+00	1.081110e+00	1.090815e+00	1.100164e+00	1.107904e+00	1.112696e+00	1.113447e+00	1.109791e+00	1.102492e+00	1.093721e+00	1.086568e+00	1.084014e+00	1.087909e+00	1.098140e+00	1.112745e+00	1.129943e+00	1.148434e+00	1.168613e+00	1.192707e+00	1.181126e+00	
SCALARS Conservative_2 float 1
LOOKUP_TABLE default
7.195505e-01	7.459095e-01	7.639788e-01	7.747631e-01	7.806279e-01	7.853760e-01	7.911617e-01	8.008152e-01	8.158254e-01	8.362470e-01	8.603632e-01	8.848429e-01	9.060351e-01	9.215530e-01	9.308048e-01	9.347853e-01	9.355512e-01	9.351991e-01	9.351899e-01	9.361360e-01	9.380907e-01	9.407527e-01	9.437459e-01	9.467799e-01	9.496683e-01	9.523455e-01	9.548070e-01	9.570951e-01	9.592204e-01	9.612154e-01	9.631150e-01	9.649115e-01	9.666194e-01	9.682360e-01	9.697488e-01	9.711457e-01	9.724412e-01	9.736164e-01	9.746813e-01	9.756515e-01	9.765078e-01	9.772853e-01	9.779575e-01	9.785617e-01	9.790653e-01	9.795093e-01	9.798712e-01	9.802031e-01	9.804732e-01	9.807206e-01	9.808864e-01	9.809978e-01	9.810392e-01	9.810670e-01	9.811003e-01	9.811731e-01	9.812149e-01	9.811448e-01	9.808268e-01	9.803291e-01	9.798166e-01	9.793932e-01	9.791351e-01	9.789777e-01	9.789217e-01	9.788757e-01	9.788623e-01	9.788096e-01	9.787311e-01	9.785595e-01	9.783087e-01	9.779255e-01	9.774123e-01	9.766893e-01	9.757437e-01	9.744349e-01	9.727828e-01	9.706929e-01	9.679334e-01	9.643498e-01	9.598512e-01	9.541444e-01	9.469651e-01	9.378940e-01	9.264133e-01	9.117916e-01	8.930926e-01	8.692364e-01	8.386451e-01	7.991633e-01	7.483015e-01	6.830161e-01	5.996592e-01	4.960653e-01	3.723143e-01	2.362280e-01	1.073055e-01	1.091337e-02	-2.142537e-02	5.238207e-03	7.266230e-02	2.094056e-01	4.118169e-01	5.886113e-01	7.140227e-01	7.960077e-01	8.479078e-01	8.810174e-01	9.024001e-01	9.167874e-01	9.268474e-01	9.340138e-01	9.394726e-01	9.437338e-01	9.471472e-01	9.500729e-01	9.525750e-01	9.547398e-01	9.566647e-01	9.583250e-01	9.598048e-01	9.612207e-01	9.625917e-01	9.638300e-01	9.649376e-01	9.659093e-01	9.668010e-01	9.676192e-01	9.684079e-01	9.691645e-01	9.699216e-01	9.706590e-01	9.713800e-01	9.720539e-01	9.726942e-01	9.732860e-01	9.738420e-01	9.743542e-01	9.748435e-01	9.753332e-01	9.758820e-01	9.764580e-01	9.770339e-01	9.775459e-01	9.779574e-01	9.782855e-01	9.785580e-01	9.788355e-01	9.790715e-01	9.792989e-01	9.794532e-01	9.795133e-01	9.794377e-01	9.792275e-01	9.788488e-01	9.782880e-01	9.775727e-01	9.766339e-01	9.754685e-01	9.740203e-01	9.722913e-01	9.702577e-01	9.679226e-01	9.652700e-01	9.622948e-01	9.589919e-01	9.553595e-01	9.514379e-01	9.471608e-01	9.426396e-01	9.378811e-01	9.329037e-01	9.278235e-01	9.226957e-01	9.175754e-01	9.124888e-01	9.073802e-01	9.021267e-01	8.964348e-01	8.900073e-01	8.825071e-01	8.739267e-01	8.646922e-01	8.558893e-01	8.490621e-01	8.457814e-01	8.470601e-01	8.528036e-01	8.615491e-01	8.706233e-01	8.767085e-01	8.771524e-01	8.706441e-01	8.579204e-01	8.397198e-01	8.175974e-01	7.912711e-01	7.597080e-01	7.213628e-01	6.623610e-01	
SCALARS Conservative_3 float 1
LOOKUP_TABLE default
1.010189e-01	1.066640e-01	1.128612e-01	1.197649e-01	1.301944e-01	1.448365e-01	1.633442e-01	1.838013e-01	2.030555e-01	2.171787e-01	2.229819e-01	2.188837e-01	2.058473e-01	1.876697e-01	1.690835e-01	1.537631e-01	1.433503e-01	1.376050e-01	1.351744e-01	1.344244e-01	1.340583e-01	1.333120e-01	1.319006e-01	1.298524e-01	1.273364e-01	1.245527e-01	1.216348e-01	1.186721e-01	1.156899e-01	1.126757e-01	1.096179e-01	1.064958e-01	1.032979e-01	1.000167e-01	9.663792e-02	9.317667e-02	8.962938e-02	8.601466e-02	8.233896e-02	7.861438e-02	7.485422e-02	7.106554e-02	6.726692e-02	6.346002e-02	5.965243e-02	5.583567e-02	5.201363e-02	4.819856e-02	4.441398e-02	4.066444e-02	3.691386e-02	3.310560e-02	2.921704e-02	2.523420e-02	2.118752e-02	1.712036e-02	1.307943e-02	9.055985e-03	4.945297e-03	6.054153e-04	-4.004221e-03	-8.862189e-03	-1.395599e-02	-1.927327e-02	-2.485215e-02	-3.072091e-02	-3.693633e-02	-4.351542e-02	-5.049194e-02	-5.788618e-02	-6.574590e-02	-7.413614e-02	-8.312756e-02	-9.275280e-02	-1.030546e-01	-1.140857e-01	-1.259581e-01	-1.387395e-01	-1.525062e-01	-1.673834e-01	-1.834905e-01	-2.009408e-01	-2.198908e-01	-2.404761e-01	-2.628180e-01	-2.870344e-01	-3.131953e-01	-3.412434e-01	-3.707871e-01	-4.010855e-01	-4.306485e-01	-4.563474e-01	-4.730816e-01	-4.724171e-01	-4.414467e-01	-3.648251e-01	-2.309779e-01	-3.862831e-02	1.847772e-01	3.504247e-01	4.946689e-01	6.595253e-01	7.230798e-01	6.890068e-01	6.124897e-01	5.289943e-01	4.544121e-01	3.924340e-01	3.420078e-01	3.007738e-01	2.670078e-01	2.389242e-01	2.153453e-01	1.953144e-01	1.780911e-01	1.631576e-01	1.501262e-01	1.386430e-01	1.284521e-01	1.192805e-01	1.109257e-01	1.033168e-01	9.640497e-02	9.009905e-02	8.426930e-02	7.876650e-02	7.356238e-02	6.863211e-02	6.396710e-02	5.951778e-02	5.525186e-02	5.113754e-02	4.714242e-02	4.322878e-02	3.937198e-02	3.555302e-02	3.175727e-02	2.796170e-02	2.413385e-02	2.025178e-02	1.632580e-02	1.237376e-02	8.397762e-03	4.365253e-03	2.269679e-04	-4.062918e-03	-8.520337e-03	-1.312008e-02	-1.783681e-02	-2.263692e-02	-2.750833e-02	-3.249471e-02	-3.759761e-02	-4.282753e-02	-4.813372e-02	-5.351043e-02	-5.894787e-02	-6.441898e-02	-6.987465e-02	-7.528032e-02	-8.059831e-02	-8.581331e-02	-9.086475e-02	-9.572351e-02	-1.003205e-01	-1.046320e-01	-1.085873e-01	-1.121514e-01	-1.152689e-01	-1.178958e-01	-1.199913e-01	-1.215212e-01	-1.224865e-01	-1.229127e-01	-1.228724e-01	-1.225117e-01	-1.220058e-01	-1.215333e-01	-1.211664e-01	-1.207412e-01	-1.197247e-01	-1.172189e-01	-1.121036e-01	-1.034919e-01	-9.119321e-02	-7.613116e-02	-6.047386e-02	-4.731607e-02	-3.991260e-02	-4.047531e-02	-4.910126e-02	-6.354894e-02	-7.999777e-02	-9.470530e-02	-1.049412e-01	-1.097835e-01	-1.102830e-01	-1.062032e-01	-1.003443e-01	2.578691e-03	
SCALARS Conservative_4 float 1
LOOKUP_TABLE default
3.446413e+00	3.400832e+00	3.375580e+00	3.360103e+00	3.348997e+00	3.338162e+00	3.321091e+00	3.293911e+00	3.253525e+00	3.200156e+00	3.136824e+00	3.069916e+00	3.010458e+00	2.968698e+00	2.947554e+00	2.942318e+00	2.945034e+00	2.948568e+00	2.948517e+00	2.943356e+00	2.933651e+00	2.920804e+00	2.906288e+00	2.891300e+00	2.876540e+00	2.862293e+00	2.848536e+00	2.835156e+00	2.821981e+00	2.808933e+00	2.795980e+00	2.783001e+00	2.769907e+00	2.756744e+00	2.743643e+00	2.730732e+00	2.718064e+00	2.705645e+00	2.693508e+00	2.681703e+00	2.670222e+00	2.659105e+00	2.648296e+00	2.637851e+00	2.627800e+00	2.618289e+00	2.609281e+00	2.600622e+00	2.591913e+00	2.583141e+00	2.574820e+00	2.567893e+00	2.562667e+00	2.558409e+00	2.553368e+00	2.545565e+00	2.533607e+00	2.517778e+00	2.500292e+00	2.484509e+00	2.472897e+00	2.466053e+00	2.463302e+00	2.463476e+00	2.465746e+00	2.469548e+00	2.474757e+00	2.481130e+00	2.488447e+00	2.496398e+00	2.505052e+00	2.514837e+00	2.526417e+00	2.539947e+00	2.555225e+00	2.571834e+00	2.589974e+00	2.610112e+00	2.632351e+00	2.656780e+00	2.683709e+00	2.713252e+00	2.745796e+00	2.781610e+00	2.821147e+00	2.865069e+00	2.913893e+00	2.968502e+00	3.030049e+00	3.099183e+00	3.177162e+00	3.265018e+00	3.362082e+00	3.467137e+00	3.575841e+00	3.681312e+00	3.762448e+00	3.809679e+00	3.781477e+00	3.703620e+00	3.650871e+00	3.502072e+00	3.194565e+00	2.947279e+00	2.751942e+00	2.607224e+00	2.507884e+00	2.442153e+00	2.397556e+00	2.367109e+00	2.346496e+00	2.332628e+00	2.324136e+00	2.319066e+00	2.316419e+00	2.316220e+00	2.318094e+00	2.321410e+00	2.325334e+00	2.328962e+00	2.332322e+00	2.336286e+00	2.341550e+00	2.347709e+00	2.353714e+00	2.358931e+00	2.363599e+00	2.368100e+00	2.372729e+00	2.377679e+00	2.383114e+00	2.388988e+00	2.395119e+00	2.401244e+00	2.407268e+00	2.413128e+00	2.418805e+00	2.424193e+00	2.429370e+00	2.434793e+00	2.441301e+00	2.449477e+00	2.459270e+00	2.469829e+00	2.480034e+00	2.489134e+00	2.497142e+00	2.504927e+00	2.513637e+00	2.524298e+00	2.536946e+00	2.551074e+00	2.566138e+00	2.582024e+00	2.598589e+00	2.615561e+00	2.632831e+00	2.650613e+00	2.669347e+00	2.689060e+00	2.709577e+00	2.730670e+00	2.752232e+00	2.774227e+00	2.796567e+00	2.819213e+00	2.842032e+00	2.864991e+00	2.887873e+00	2.910715e+00	2.933295e+00	2.955400e+00	2.976889e+00	2.997549e+00	3.017265e+00	3.035987e+00	3.053830e+00	3.071253e+00	3.088894e+00	3.107740e+00	3.128518e+00	3.151484e+00	3.175681e+00	3.198992e+00	3.218336e+00	3.230407e+00	3.232465e+00	3.223533e+00	3.205431e+00	3.183529e+00	3.165509e+00	3.158865e+00	3.168299e+00	3.193690e+00	3.229899e+00	3.272494e+00	3.317998e+00	3.367440e+00	3.426984e+00	3.383859e+00	
SCALARS Pressure float 1
LOOKUP_TABLE default
1.290560e+00	1.264235e+00	1.248389e+00	1.238511e+00	1.231632e+00	1.224899e+00	1.214830e+00	1.198919e+00	1.175399e+00	1.144394e+00	1.107779e+00	1.069478e+00	1.035717e+00	1.012037e+00	1.000003e+00	9.970391e-01	9.986559e-01	1.000781e+00	1.000899e+00	9.981632e-01	9.928803e-01	9.858522e-01	9.779208e-01	9.697550e-01	9.617497e-01	9.540569e-01	9.466632e-01	9.394956e-01	9.324689e-01	9.255350e-01	9.186644e-01	9.118040e-01	9.049064e-01	8.979939e-01	8.911373e-01	8.844029e-01	8.778117e-01	8.713756e-01	8.651073e-01	8.590243e-01	8.531333e-01	8.474381e-01	8.419250e-01	8.366052e-01	8.315096e-01	8.266936e-01	8.221509e-01	8.177809e-01	8.134006e-01	8.089846e-01	8.048196e-01	8.013669e-01	7.987900e-01	7.966966e-01	7.941988e-01	7.902827e-01	7.842749e-01	7.763448e-01	7.676673e-01	7.599112e-01	7.542567e-01	7.509675e-01	7.496661e-01	7.497896e-01	7.509125e-01	7.527904e-01	7.553426e-01	7.584759e-01	7.620658e-01	7.659822e-01	7.702452e-01	7.750881e-01	7.808310e-01	7.875763e-01	7.952093e-01	8.035676e-01	8.127147e-01	8.228981e-01	8.342413e-01	8.468105e-01	8.607399e-01	8.761484e-01	8.932508e-01	9.122481e-01	9.334408e-01	9.572680e-01	9.841179e-01	1.014530e+00	1.049270e+00	1.088934e+00	1.134351e+00	1.186313e+00	1.244841e+00	1.309280e+00	1.377171e+00	1.443419e+00	1.495238e+00	1.523633e+00	1.507425e+00	1.462676e+00	1.421434e+00	1.322462e+00	1.152038e+00	1.015275e+00	9.099525e-01	8.332452e-01	7.809701e-01	7.465186e-01	7.234043e-01	7.077805e-01	6.972514e-01	6.902668e-01	6.859656e-01	6.833680e-01	6.819740e-01	6.817392e-01	6.825276e-01	6.840331e-01	6.858148e-01	6.874551e-01	6.889525e-01	6.907156e-01	6.931093e-01	6.959817e-01	6.987962e-01	7.012379e-01	7.034054e-01	7.054987e-01	7.076496e-01	7.099633e-01	7.125091e-01	7.152763e-01	7.181699e-01	7.210718e-01	7.239263e-01	7.267108e-01	7.294085e-01	7.319708e-01	7.344268e-01	7.369993e-01	7.400868e-01	7.440026e-01	7.487306e-01	7.538657e-01	7.588538e-01	7.633054e-01	7.672142e-01	7.709909e-01	7.752393e-01	7.804566e-01	7.866885e-01	7.936815e-01	8.011773e-01	8.091119e-01	8.174269e-01	8.259896e-01	8.347287e-01	8.437808e-01	8.533598e-01	8.634994e-01	8.741073e-01	8.850779e-01	8.963534e-01	9.079210e-01	9.197384e-01	9.317862e-01	9.440009e-01	9.563485e-01	9.687540e-01	9.811897e-01	9.935501e-01	1.005730e+00	1.017623e+00	1.029109e+00	1.040118e+00	1.050615e+00	1.060670e+00	1.070533e+00	1.080595e+00	1.091406e+00	1.103419e+00	1.116762e+00	1.130880e+00	1.144480e+00	1.155694e+00	1.162542e+00	1.163448e+00	1.157945e+00	1.147231e+00	1.134505e+00	1.124283e+00	1.120848e+00	1.126789e+00	1.141793e+00	1.163243e+00	1.188546e+00	1.216044e+00	1.246269e+00	1.281847e+00	1.279254e+00	
SCALARS Temperature float 1
LOOKUP_TABLE default
1.075615e+00	1.069915e+00	1.065895e+00	1.063292e+00	1.061538e+00	1.059799e+00	1.057376e+00	1.053536e+00	1.047771e+00	1.039944e+00	1.030376e+00	1.020034e+00	1.010592e+00	1.003720e+00	1.000121e+00	9.992320e-01	9.997527e-01	1.000444e+00	1.000546e+00	9.998099e-01	9.983144e-01	9.962909e-01	9.939868e-01	9.915979e-01	9.892450e-01	9.869736e-01	9.847826e-01	9.826467e-01	9.805452e-01	9.784612e-01	9.763806e-01	9.742929e-01	9.721827e-01	9.700558e-01	9.679344e-01	9.658400e-01	9.637763e-01	9.617529e-01	9.597727e-01	9.578389e-01	9.559604e-01	9.541317e-01	9.523575e-01	9.506337e-01	9.489807e-01	9.474081e-01	9.459228e-01	9.444811e-01	9.430331e-01	9.415598e-01	9.401729e-01	9.390234e-01	9.381767e-01	9.374894e-01	9.366547e-01	9.353104e-01	9.332261e-01	9.304528e-01	9.274189e-01	9.247093e-01	9.227394e-01	9.216093e-01	9.211724e-01	9.212390e-01	9.216455e-01	9.223218e-01	9.232249e-01	9.243345e-01	9.255932e-01	9.269657e-01	9.284485e-01	9.301320e-01	9.321158e-01	9.344393e-01	9.370437e-01	9.398890e-01	9.429647e-01	9.463471e-01	9.500980e-01	9.542284e-01	9.587442e-01	9.636855e-01	9.690926e-01	9.750173e-01	9.815311e-01	9.887445e-01	9.967438e-01	1.005612e+00	1.015498e+00	1.026508e+00	1.038717e+00	1.052178e+00	1.066799e+00	1.082206e+00	1.097736e+00	1.111990e+00	1.122781e+00	1.127880e+00	1.125252e+00	1.117759e+00	1.106372e+00	1.082200e+00	1.046396e+00	1.011552e+00	9.810530e-01	9.561691e-01	9.374956e-01	9.242945e-01	9.151080e-01	9.087586e-01	9.043994e-01	9.015163e-01	8.997061e-01	8.985882e-01	8.979637e-01	8.977844e-01	8.980251e-01	8.985621e-01	8.991956e-01	8.997721e-01	9.002822e-01	9.008783e-01	9.017191e-01	9.027693e-01	9.038013e-01	9.046894e-01	9.054634e-01	9.062095e-01	9.069716e-01	9.077963e-01	9.087029e-01	9.096926e-01	9.107250e-01	9.117612e-01	9.127753e-01	9.137633e-01	9.147158e-01	9.156167e-01	9.164724e-01	9.173643e-01	9.184290e-01	9.197923e-01	9.214475e-01	9.232504e-01	9.250001e-01	9.265497e-01	9.278947e-01	9.291713e-01	9.306100e-01	9.323718e-01	9.344780e-01	9.368313e-01	9.393433e-01	9.419827e-01	9.447319e-01	9.475451e-01	9.503880e-01	9.533169e-01	9.563904e-01	9.596221e-01	9.629741e-01	9.664131e-01	9.699164e-01	9.734785e-01	9.770854e-01	9.807287e-01	9.843909e-01	9.880527e-01	9.917117e-01	9.953374e-01	9.989080e-01	1.002402e+00	1.005779e+00	1.009012e+00	1.012083e+00	1.014988e+00	1.017754e+00	1.020451e+00	1.023198e+00	1.026136e+00	1.029392e+00	1.032977e+00	1.036729e+00	1.040281e+00	1.043136e+00	1.044797e+00	1.044907e+00	1.043390e+00	1.040580e+00	1.037290e+00	1.034711e+00	1.033979e+00	1.035739e+00	1.039751e+00	1.045382e+00	1.051863e+00	1.058872e+00	1.066452e+00	1.074738e+00	1.083079e+00	
SCALARS Pressure_Coefficient float 1
LOOKUP_TABLE default
6.485716e-01	5.898092e-01	5.544391e-01	5.323913e-01	5.170367e-01	5.020073e-01	4.795313e-01	4.440165e-01	3.915150e-01	3.223072e-01	2.405791e-01	1.550840e-01	7.972500e-02	2.686787e-02	6.924349e-06	-6.609171e-03	-3.000129e-03	1.742812e-03	2.007461e-03	-4.099897e-03	-1.589222e-02	-3.157984e-02	-4.928384e-02	-6.751116e-02	-8.538007e-02	-1.025516e-01	-1.190554e-01	-1.350545e-01	-1.507391e-01	-1.662164e-01	-1.815527e-01	-1.968661e-01	-2.122624e-01	-2.276921e-01	-2.429972e-01	-2.580292e-01	-2.727418e-01	-2.871080e-01	-3.010998e-01	-3.146778e-01	-3.278275e-01	-3.405400e-01	-3.528460e-01	-3.647205e-01	-3.760947e-01	-3.868447e-01	-3.969847e-01	-4.067391e-01	-4.165166e-01	-4.263736e-01	-4.356705e-01	-4.433776e-01	-4.491294e-01	-4.538023e-01	-4.593778e-01	-4.681190e-01	-4.815293e-01	-4.992304e-01	-5.185997e-01	-5.359125e-01	-5.485341e-01	-5.558761e-01	-5.587811e-01	-5.585053e-01	-5.559990e-01	-5.518071e-01	-5.461104e-01	-5.391164e-01	-5.311032e-01	-5.223612e-01	-5.128456e-01	-5.020354e-01	-4.892164e-01	-4.741602e-01	-4.571221e-01	-4.384651e-01	-4.180475e-01	-3.953168e-01	-3.699971e-01	-3.419409e-01	-3.108485e-01	-2.764546e-01	-2.382796e-01	-1.958749e-01	-1.485697e-01	-9.538399e-02	-3.545109e-02	3.243284e-02	1.099784e-01	1.985138e-01	2.998906e-01	4.158782e-01	5.465211e-01	6.903573e-01	8.419002e-01	9.897752e-01	1.105441e+00	1.168824e+00	1.132645e+00	1.032758e+00	9.407017e-01	7.197818e-01	3.393698e-01	3.409637e-02	-2.009988e-01	-3.722206e-01	-4.889061e-01	-5.658066e-01	-6.174012e-01	-6.522757e-01	-6.757781e-01	-6.913686e-01	-7.009696e-01	-7.067679e-01	-7.098794e-01	-7.104036e-01	-7.086438e-01	-7.052832e-01	-7.013062e-01	-6.976449e-01	-6.943024e-01	-6.903669e-01	-6.850238e-01	-6.786122e-01	-6.723300e-01	-6.668797e-01	-6.620414e-01	-6.573689e-01	-6.525678e-01	-6.474033e-01	-6.417208e-01	-6.355439e-01	-6.290849e-01	-6.226077e-01	-6.162360e-01	-6.100206e-01	-6.039989e-01	-5.982794e-01	-5.927974e-01	-5.870551e-01	-5.801634e-01	-5.714228e-01	-5.608691e-01	-5.494070e-01	-5.382728e-01	-5.283361e-01	-5.196111e-01	-5.111810e-01	-5.016980e-01	-4.900521e-01	-4.761418e-01	-4.605325e-01	-4.438008e-01	-4.260895e-01	-4.075292e-01	-3.884161e-01	-3.689091e-01	-3.487035e-01	-3.273219e-01	-3.046887e-01	-2.810104e-01	-2.565226e-01	-2.313541e-01	-2.055334e-01	-1.791553e-01	-1.522629e-01	-1.249981e-01	-9.743629e-02	-6.974557e-02	-4.198736e-02	-1.439716e-02	1.279117e-02	3.933617e-02	6.497536e-02	8.954847e-02	1.129797e-01	1.354246e-01	1.574408e-01	1.798992e-01	2.040320e-01	2.308463e-01	2.606295e-01	2.921418e-01	3.224989e-01	3.475320e-01	3.628174e-01	3.648395e-01	3.525556e-01	3.286400e-01	3.002349e-01	2.774183e-01	2.697491e-01	2.830122e-01	3.165013e-01	3.643821e-01	4.208609e-01	4.822414e-01	5.497087e-01	6.291237e-01	6.233342e-01	
SCALARS Mach float 1
LOOKUP_TABLE default
4.934984e-01	5.210324e-01	5.397748e-01	5.516442e-01	5.595313e-01	5.672667e-01	5.779161e-01	5.944987e-01	6.187755e-01	6.506889e-01	6.883023e-01	7.275027e-01	7.621789e-01	7.868464e-01	7.995934e-01	8.027238e-01	8.008906e-01	7.984518e-01	7.980937e-01	8.006892e-01	8.059489e-01	8.130365e-01	8.210668e-01	8.293494e-01	8.374659e-01	8.452630e-01	8.527506e-01	8.600190e-01	8.671411e-01	8.741765e-01	8.811741e-01	8.881696e-01	8.952154e-01	9.022917e-01	9.093255e-01	9.162471e-01	9.230452e-01	9.296906e-01	9.361749e-01	9.424900e-01	9.486085e-01	9.545501e-01	9.603012e-01	9.658763e-01	9.712112e-01	9.762769e-01	9.810526e-01	9.856804e-01	9.903206e-01	9.950342e-01	9.994645e-01	1.003132e+00	1.005830e+00	1.008018e+00	1.010674e+00	1.014947e+00	1.021560e+00	1.030339e+00	1.039917e+00	1.048450e+00	1.054641e+00	1.058189e+00	1.059559e+00	1.059350e+00	1.058075e+00	1.055953e+00	1.053116e+00	1.049629e+00	1.045669e+00	1.041346e+00	1.036670e+00	1.031353e+00	1.025077e+00	1.017712e+00	1.009437e+00	1.000371e+00	9.905397e-01	9.796892e-01	9.676065e-01	9.542362e-01	9.395357e-01	9.233438e-01	9.054885e-01	8.857452e-01	8.638033e-01	8.391872e-01	8.114528e-01	7.800984e-01	7.442808e-01	7.031262e-01	6.555951e-01	6.002843e-01	5.356060e-01	4.600071e-01	3.713133e-01	2.683559e-01	1.525385e-01	2.364658e-02	1.106302e-01	2.140944e-01	3.126870e-01	4.600388e-01	6.244645e-01	7.586982e-01	8.654226e-01	9.479296e-01	1.007999e+00	1.049755e+00	1.078536e+00	1.098318e+00	1.111853e+00	1.120786e+00	1.126387e+00	1.129844e+00	1.131774e+00	1.132328e+00	1.131584e+00	1.129925e+00	1.127966e+00	1.126183e+00	1.124605e+00	1.122761e+00	1.120158e+00	1.116905e+00	1.113707e+00	1.110954e+00	1.108553e+00	1.106237e+00	1.103871e+00	1.101309e+00	1.098491e+00	1.095413e+00	1.092201e+00	1.088974e+00	1.085814e+00	1.082733e+00	1.079761e+00	1.076948e+00	1.074274e+00	1.071486e+00	1.068155e+00	1.063885e+00	1.058696e+00	1.053036e+00	1.047535e+00	1.042657e+00	1.038417e+00	1.034388e+00	1.029842e+00	1.024267e+00	1.017590e+00	1.010112e+00	1.002112e+00	9.936820e-01	9.848757e-01	9.758359e-01	9.666701e-01	9.571929e-01	9.472094e-01	9.366673e-01	9.256823e-01	9.143553e-01	9.027547e-01	8.908918e-01	8.788066e-01	8.665203e-01	8.540859e-01	8.415632e-01	8.289559e-01	8.163648e-01	8.038635e-01	7.915272e-01	7.795028e-01	7.678930e-01	7.567677e-01	7.461562e-01	7.359650e-01	7.259471e-01	7.156538e-01	7.045401e-01	6.920927e-01	6.782153e-01	6.634883e-01	6.493409e-01	6.378131e-01	6.310354e-01	6.305883e-01	6.367778e-01	6.481395e-01	6.612696e-01	6.714366e-01	6.743060e-01	6.673975e-01	6.514642e-01	6.286406e-01	6.016163e-01	5.713619e-01	5.372099e-01	4.978132e-01	4.554152e-01	