TITLE = "SU2 Simulation"
VARIABLES = "Iteration","CLift","CDrag","CSideForce","CMx","CMy","CMz","CFx","CFy","CFz","CL/CD","Res_Flow[0]","Res_Flow[1]","Res_Flow[2]","Res_Flow[3]","Res_Flow[4]","Linear_Solver_Iterations","CFL_Number","Time(min)"
ZONE T= "Convergence history"
        5849, 6.68794180e-02, 4.50056390e-04, 0.00000000e+00, 0.00000000e+00, 0.00000000e+00, -3.67191377e-02, -1.00901753e-03, 6.68733204e-02, 0.00000000e+00, 1.48602307e+02, -8.46477445e+00, -8.45110365e+00, -8.98378436e+00, -7.86839491e+00, 0.00000000e+00, 2.0000000000, 10.0000000000, 0.0002861698
        5850, 6.68799324e-02, 4.50616527e-04, 0.00000000e+00, 0.00000000e+00, 0.00000000e+00, -3.67186855e-02, -1.00846874e-03, 6.68738470e-02, 0.00000000e+00, 1.48418730e+02, -8.52253350e+00, -8.43258708e+00, -8.60806807e+00, -7.91925343e+00, 0.00000000e+00, 2.0000000000, 10.0000000000, 0.0005852183
        5851, 6.68802924e-02, 4.50824295e-04, 0.00000000e+00, 0.00000000e+00, 0.00000000e+00, -3.67183660e-02, -1.00826888e-03, 6.68742113e-02, 0.00000000e+00, 1.48351127e+02, -8.52527093e+00, -8.46461991e+00, -8.56812840e+00, -7.92532945e+00, 0.00000000e+00, 2.0000000000, 10.0000000000, 0.0008901517
        5852, 6.68807209e-02, 4.51004146e-04, 0.00000000e+00, 0.00000000e+00, 0.00000000e+00, -3.67180519e-02, -1.00809842e-03, 6.68746437e-02, 0.00000000e+00, 1.48292918e+02, -8.49333958e+00, -8.44461653e+00, -8.51913894e+00, -7.88976211e+00, 0.00000000e+00, 2.0000000000, 10.0000000000, 0.0013769190
        5853, 6.68812091e-02, 4.51143184e-04, 0.00000000e+00, 0.00000000e+00, 0.00000000e+00, -3.67177449e-02, -1.00797006e-03, 6.68751348e-02, 0.00000000e+00, 1.48248298e+02, -8.45092557e+00, -8.40962318e+00, -8.47321790e+00, -7.84551112e+00, 0.00000000e+00, 2.0000000000, 10.0000000000, 0.0016841173
        5854, 6.68817591e-02, 4.51239139e-04, 0.00000000e+00, 0.00000000e+00, 0.00000000e+00, -3.67174730e-02, -1.00788613e-03, 6.68756867e-02, 0.00000000e+00, 1.48217992e+02, -8.41755702e+00, -8.38893709e+00, -8.45378266e+00, -7.81415020e+00, 0.00000000e+00, 2.0000000000, 10.0000000000, 0.0019730012
        5855, 6.68823134e-02, 4.51319320e-04, 0.00000000e+00, 0.00000000e+00, 0.00000000e+00, -3.67172332e-02, -1.00781806e-03, 6.68762427e-02, 0.00000000e+00, 1.48192888e+02, -8.38861518e+00, -8.36656689e+00, -8.44216429e+00, -7.78635250e+00, 0.00000000e+00, 2.0000000000, 10.0000000000, 0.0024647514
        5856, 6.68828349e-02, 4.51386794e-04, 0.00000000e+00, 0.00000000e+00, 0.00000000e+00, -3.67170315e-02, -1.00776198e-03, 6.68767656e-02, 0.00000000e+00, 1.48171891e+02, -8.36169730e+00, -8.33418625e+00, -8.42773197e+00, -7.75858113e+00, 0.00000000e+00, 2.0000000000, 10.0000000000, 0.0030001998
        5857, 6.68833093e-02, 4.51440591e-04, 0.00000000e+00, 0.00000000e+00, 0.00000000e+00, -3.67168743e-02, -1.00771854e-03, 6.68772410e-02, 0.00000000e+00, 1.48155285e+02, -8.34369189e+00, -8.31047508e+00, -8.41919191e+00, -7.74001715e+00, 0.00000000e+00, 2.0000000000, 10.0000000000, 0.0034295360
        5858, 6.68837312e-02, 4.51484113e-04, 0.00000000e+00, 0.00000000e+00, 0.00000000e+00, -3.67167572e-02, -1.00768423e-03, 6.68776637e-02, 0.00000000e+00, 1.48141937e+02, -8.33309882e+00, -8.29521071e+00, -8.41517952e+00, -7.72915259e+00, 0.00000000e+00, 2.0000000000, 10.0000000000, 0.0037825028
        5859, 6.68841052e-02, 4.51519048e-04, 0.00000000e+00, 0.00000000e+00, 0.00000000e+00, -3.67166707e-02, -1.00765747e-03, 6.68780385e-02, 0.00000000e+00, 1.48131304e+02, -8.32876762e+00, -8.28902759e+00, -8.41408451e+00, -7.72469611e+00, 0.00000000e+00, 2.0000000000, 10.0000000000, 0.0041139841
        5860, 6.68844399e-02, 4.51545564e-04, 0.00000000e+00, 0.00000000e+00, 0.00000000e+00, -3.67166063e-02, -1.00763826e-03, 6.68783736e-02, 0.00000000e+00, 1.48123346e+02, -8.32923983e+00, -8.29137310e+00, -8.41547350e+00, -7.72509366e+00, 0.00000000e+00, 2.0000000000, 10.0000000000, 0.0044093688
        5861, 6.68847431e-02, 4.51564458e-04, 0.00000000e+00, 0.00000000e+00, 0.00000000e+00, -3.67165574e-02, -1.00762598e-03, 6.68786771e-02, 0.00000000e+00, 1.48117820e+02, -8.33280184e+00, -8.30001002e+00, -8.41887803e+00, -7.72861281e+00, 0.00000000e+00, 2.0000000000, 10.0000000000, 0.0047051867
        5862, 6.68850199e-02, 4.51577687e-04, 0.00000000e+00, 0.00000000e+00, 0.00000000e+00, -3.67165202e-02, -1.00761880e-03, 6.68789542e-02, 0.00000000e+00, 1.48114094e+02, -8.33806944e+00, -8.31184729e+00, -8.42363570e+00, -7.73391273e+00, 0.00000000e+00, 2.0000000000, 10.0000000000, 0.0049985846
        5863, 6.68852725e-02, 4.51587153e-04, 0.00000000e+00, 0.00000000e+00, 0.00000000e+00, -3.67164924e-02, -1.00761484e-03, 6.68792069e-02, 0.00000000e+00, 1.48111549e+02, -8.34423488e+00, -8.32362353e+00, -8.42906460e+00, -7.74019607e+00, 0.00000000e+00, 2.0000000000, 10.0000000000, 0.0052870671
        5864, 6.68855021e-02, 4.51594062e-04, 0.00000000e+00, 0.00000000e+00, 0.00000000e+00, -3.67164721e-02, -1.00761295e-03, 6.68794367e-02, 0.00000000e+00, 1.48109791e+02, -8.35079503e+00, -8.33218627e+00, -8.43472489e+00, -7.74686537e+00, 0.00000000e+00, 2.0000000000, 10.0000000000, 0.0055649837
        5865, 6.68857105e-02, 4.51599127e-04, 0.00000000e+00, 0.00000000e+00, 0.00000000e+00, -3.67164574e-02, -1.00761243e-03, 6.68796451e-02, 0.00000000e+00, 1.48108591e+02, -8.35724124e+00, -8.33489333e+00, -8.44055037e+00, -7.75321660e+00, 0.00000000e+00, 2.0000000000, 10.0000000000, 0.0058425188
        5866, 6.68858998e-02, 4.51602823e-04, 0.00000000e+00, 0.00000000e+00, 0.00000000e+00, -3.67164467e-02, -1.00761286e-03, 6.68798344e-02, 0.00000000e+00, 1.48107798e+02, -8.36303266e+00, -8.33038874e+00, -8.44672098e+00, -7.75848334e+00, 0.00000000e+00, 2.0000000000, 10.0000000000, 0.0061216513
        5867, 6.68860723e-02, 4.51605504e-04, 0.00000000e+00, 0.00000000e+00, 0.00000000e+00, -3.67164386e-02, -1.00761394e-03, 6.68800070e-02, 0.00000000e+00, 1.48107301e+02, -8.36778671e+00, -8.31920634e+00, -8.45346365e+00, -7.76213942e+00, 0.00000000e+00, 2.0000000000, 10.0000000000, 0.0063897689
        5868, 6.68862303e-02, 4.51607498e-04, 0.00000000e+00, 0.00000000e+00, 0.00000000e+00, -3.67164322e-02, -1.00761540e-03, 6.68801650e-02, 0.00000000e+00, 1.48106997e+02, -8.37147566e+00, -8.30349311e+00, -8.46094990e+00, -7.76417634e+00, 0.00000000e+00, 2.0000000000, 10.0000000000, 0.0066666365
        5869, 6.68863754e-02, 4.51609122e-04, 0.00000000e+00, 0.00000000e+00, 0.00000000e+00, -3.67164268e-02, -1.00761694e-03, 6.68803100e-02, 0.00000000e+00, 1.48106786e+02, -8.37448001e+00, -8.28601181e+00, -8.46930826e+00, -7.76513620e+00, 0.00000000e+00, 2.0000000000, 10.0000000000, 0.0069394509
        5870, 6.68865085e-02, 4.51610706e-04, 0.00000000e+00, 0.00000000e+00, 0.00000000e+00, -3.67164221e-02, -1.00761826e-03, 6.68804432e-02, 0.00000000e+00, 1.48106561e+02, -8.37743591e+00, -8.26922977e+00, -8.47858974e+00, -7.76587275e+00, 0.00000000e+00, 2.0000000000, 10.0000000000, 0.0072201173
        5871, 6.68866305e-02, 4.51612623e-04, 0.00000000e+00, 0.00000000e+00, 0.00000000e+00, -3.67164179e-02, -1.00761900e-03, 6.68805652e-02, 0.00000000e+00, 1.48106202e+02, -8.38110431e+00, -8.25503277e+00, -8.48880743e+00, -7.76734553e+00, 0.00000000e+00, 2.0000000000, 10.0000000000, 0.0075576862
        5872, 6.68867421e-02, 4.51615293e-04, 0.00000000e+00, 0.00000000e+00, 0.00000000e+00, -3.67164142e-02, -1.00761877e-03, 6.68806768e-02, 0.00000000e+00, 1.48105574e+02, -8.38635177e+00, -8.24489705e+00, -8.50006500e+00, -7.77057328e+00, 0.00000000e+00, 2.0000000000, 10.0000000000, 0.0078920523
        5873, 6.68868441e-02, 4.51619175e-04, 0.00000000e+00, 0.00000000e+00, 0.00000000e+00, -3.67164106e-02, -1.00761711e-03, 6.68807789e-02, 0.00000000e+00, 1.48104527e+02, -8.39422873e+00, -8.24020932e+00, -8.51273372e+00, -7.77672602e+00, 0.00000000e+00, 2.0000000000, 10.0000000000, 0.0081782699
        5874, 6.68869381e-02, 4.51624743e-04, 0.00000000e+00, 0.00000000e+00, 0.00000000e+00, -3.67164068e-02, -1.00761360e-03, 6.68808729e-02, 0.00000000e+00, 1.48102909e+02, -8.40610188e+00, -8.24255012e+00, -8.52765925e+00, -7.78728683e+00, 0.00000000e+00, 2.0000000000, 10.0000000000, 0.0084618529
        5875, 6.68870258e-02, 4.51632434e-04, 0.00000000e+00, 0.00000000e+00, 0.00000000e+00, -3.67164019e-02, -1.00760782e-03, 6.68809608e-02, 0.00000000e+00, 1.48100581e+02, -8.42378950e+00, -8.25387715e+00, -8.54639278e+00, -7.80421436e+00, 0.00000000e+00, 2.0000000000, 10.0000000000, 0.0087278008
        5876, 6.68871097e-02, 4.51642582e-04, 0.00000000e+00, 0.00000000e+00, 0.00000000e+00, -3.67163951e-02, -1.00759950e-03, 6.68810449e-02, 0.00000000e+00, 1.48097439e+02, -8.44976170e+00, -8.27670429e+00, -8.57156004e+00, -7.83017125e+00, 0.00000000e+00, 2.0000000000, 10.0000000000, 0.0090049863
        5877, 6.68871923e-02, 4.51655352e-04, 0.00000000e+00, 0.00000000e+00, 0.00000000e+00, -3.67163853e-02, -1.00758854e-03, 6.68811278e-02, 0.00000000e+00, 1.48093434e+02, -8.48759308e+00, -8.31448427e+00, -8.60762863e+00, -7.86903025e+00, 0.00000000e+00, 2.0000000000, 10.0000000000, 0.0092985352
        5878, 6.68872752e-02, 4.51670524e-04, 0.00000000e+00, 0.00000000e+00, 0.00000000e+00, -3.67163726e-02, -1.00757518e-03, 6.68812110e-02, 0.00000000e+00, 1.48088643e+02, -8.54235909e+00, -8.37178925e+00, -8.66197230e+00, -7.92636032e+00, 0.00000000e+00, 2.0000000000, 10.0000000000, 0.0095876694
        5879, 6.68873615e-02, 4.51686018e-04, 0.00000000e+00, 0.00000000e+00, 0.00000000e+00, -3.67163567e-02, -1.00756157e-03, 6.68812976e-02, 0.00000000e+00, 1.48083755e+02, -8.61546158e+00, -8.44821118e+00, -8.74068594e+00, -8.00399144e+00, 0.00000000e+00, 2.0000000000, 10.0000000000, 0.0098860184
        5880, 6.68874667e-02, 4.51699425e-04, 0.00000000e+00, 0.00000000e+00, 0.00000000e+00, -3.67163302e-02, -1.00755046e-03, 6.68814030e-02, 0.00000000e+00, 1.48079592e+02, -8.67984777e+00, -8.51311854e+00, -8.81861964e+00, -8.07283850e+00, 0.00000000e+00, 2.0000000000, 10.0000000000, 0.0102253675
        5881, 6.68875953e-02, 4.51710586e-04, 0.00000000e+00, 0.00000000e+00, 0.00000000e+00, -3.67162911e-02, -1.00754211e-03, 6.68815318e-02, 0.00000000e+00, 1.48076218e+02, -8.71340932e+00, -8.54703670e+00, -8.86660431e+00, -8.10880367e+00, 0.00000000e+00, 2.0000000000, 10.0000000000, 0.0105496168
        5882, 6.68877335e-02, 4.51721074e-04, 0.00000000e+00, 0.00000000e+00, 0.00000000e+00, -3.67162473e-02, -1.00753464e-03, 6.68816703e-02, 0.00000000e+00, 1.48073086e+02, -8.73462681e+00, -8.57209874e+00, -8.90199556e+00, -8.13237545e+00, 0.00000000e+00, 2.0000000000, 10.0000000000, 0.0108648499
        5883, 6.68878758e-02, 4.51729844e-04, 0.00000000e+00, 0.00000000e+00, 0.00000000e+00, -3.67162023e-02, -1.00752898e-03, 6.68818128e-02, 0.00000000e+00, 1.48070527e+02, -8.75365531e+00, -8.59941013e+00, -8.93434586e+00, -8.15458686e+00, 0.00000000e+00, 2.0000000000, 10.0000000000, 0.0111775517
        5884, 6.68880180e-02, 4.51736324e-04, 0.00000000e+00, 0.00000000e+00, 0.00000000e+00, -3.67161594e-02, -1.00752560e-03, 6.68819550e-02, 0.00000000e+00, 1.48068717e+02, -8.76903855e+00, -8.62625687e+00, -8.96144557e+00, -8.17308536e+00, 0.00000000e+00, 2.0000000000, 10.0000000000, 0.0114663839
        5885, 6.68881574e-02, 4.51741862e-04, 0.00000000e+00, 0.00000000e+00, 0.00000000e+00, -3.67161210e-02, -1.00752310e-03, 6.68820945e-02, 0.00000000e+00, 1.48067211e+02, -8.77663934e+00, -8.64609206e+00, -8.97768445e+00, -8.18270095e+00, 0.00000000e+00, 2.0000000000, 10.0000000000, 0.0117782513
        5886, 6.68882920e-02, 4.51747543e-04, 0.00000000e+00, 0.00000000e+00, 0.00000000e+00, -3.67160880e-02, -1.00752036e-03, 6.68822292e-02, 0.00000000e+00, 1.48065647e+02, -8.77932908e+00, -8.66098852e+00, -8.98627686e+00, -8.18674758e+00, 0.00000000e+00, 2.0000000000, 10.0000000000, 0.0120667497
        5887, 6.68884207e-02, 4.51752758e-04, 0.00000000e+00, 0.00000000e+00, 0.00000000e+00, -3.67160605e-02, -1.00751795e-03, 6.68823580e-02, 0.00000000e+00, 1.48064222e+02, -8.78131920e+00, -8.67519991e+00, -8.99265865e+00, -8.19012763e+00, 0.00000000e+00, 2.0000000000, 10.0000000000, 0.0124484181
        5888, 6.68885427e-02, 4.51756695e-04, 0.00000000e+00, 0.00000000e+00, 0.00000000e+00, -3.67160385e-02, -1.00751668e-03, 6.68824801e-02, 0.00000000e+00, 1.48063202e+02, -8.78326070e+00, -8.68904194e+00, -8.99791630e+00, -8.19355492e+00, 0.00000000e+00, 2.0000000000, 10.0000000000, 0.0127652168
        5889, 6.68886575e-02, 4.51759364e-04, 0.00000000e+00, 0.00000000e+00, 0.00000000e+00, -3.67160216e-02, -1.00751652e-03, 6.68825949e-02, 0.00000000e+00, 1.48062581e+02, -8.78403494e+00, -8.70091630e+00, -9.00117787e+00, -8.19568881e+00, 0.00000000e+00, 2.0000000000, 10.0000000000, 0.0130639195
        5890, 6.68887648e-02, 4.51761028e-04, 0.00000000e+00, 0.00000000e+00, 0.00000000e+00, -3.67160094e-02, -1.00751719e-03, 6.68827022e-02, 0.00000000e+00, 1.48062273e+02, -8.78356492e+00, -8.71043964e+00, -9.00267429e+00, -8.19637161e+00, 0.00000000e+00, 2.0000000000, 10.0000000000, 0.0133401513
        5891, 6.68888640e-02, 4.51761723e-04, 0.00000000e+00, 0.00000000e+00, 0.00000000e+00, -3.67160011e-02, -1.00751866e-03, 6.68828014e-02, 0.00000000e+00, 1.48062265e+02, -8.78247001e+00, -8.71796407e+00, -9.00308893e+00, -8.19621819e+00, 0.00000000e+00, 2.0000000000, 10.0000000000, 0.0136175513
        5892, 6.68889549e-02, 4.51761495e-04, 0.00000000e+00, 0.00000000e+00, 0.00000000e+00, -3.67159962e-02, -1.00752087e-03, 6.68828923e-02, 0.00000000e+00, 1.48062541e+02, -8.78104747e+00, -8.72357239e+00, -9.00260340e+00, -8.19548964e+00, 0.00000000e+00, 2.0000000000, 10.0000000000, 0.0139039675
        5893, 6.68890379e-02, 4.51760568e-04, 0.00000000e+00, 0.00000000e+00, 0.00000000e+00, -3.67159940e-02, -1.00752361e-03, 6.68829752e-02, 0.00000000e+00, 1.48063028e+02, -8.77948918e+00, -8.72742404e+00, -9.00143454e+00, -8.19436622e+00, 0.00000000e+00, 2.0000000000, 10.0000000000, 0.0141776522
        5894, 6.68891135e-02, 4.51759180e-04, 0.00000000e+00, 0.00000000e+00, 0.00000000e+00, -3.67159938e-02, -1.00752665e-03, 6.68830508e-02, 0.00000000e+00, 1.48063651e+02, -8.77819447e+00, -8.73001930e+00, -9.00014645e+00, -8.19329188e+00, 0.00000000e+00, 2.0000000000, 10.0000000000, 0.0144714514
        5895, 6.68891827e-02, 4.51757507e-04, 0.00000000e+00, 0.00000000e+00, 0.00000000e+00, -3.67159950e-02, -1.00752983e-03, 6.68831199e-02, 0.00000000e+00, 1.48064352e+02, -8.77754781e+00, -8.73187523e+00, -8.99924945e+00, -8.19270617e+00, 0.00000000e+00, 2.0000000000, 10.0000000000, 0.0147596677
        5896, 6.68892461e-02, 4.51755713e-04, 0.00000000e+00, 0.00000000e+00, 0.00000000e+00, -3.67159970e-02, -1.00753301e-03, 6.68831832e-02, 0.00000000e+00, 1.48065081e+02, -8.77779843e+00, -8.73338941e+00, -8.99908809e+00, -8.19290324e+00, 0.00000000e+00, 2.0000000000, 10.0000000000, 0.0150403698
        5897, 6.68893045e-02, 4.51753942e-04, 0.00000000e+00, 0.00000000e+00, 0.00000000e+00, -3.67159996e-02, -1.00753605e-03, 6.68832416e-02, 0.00000000e+00, 1.48065790e+02, -8.77917618e+00, -8.73495537e+00, -9.00001955e+00, -8.19416134e+00, 0.00000000e+00, 2.0000000000, 10.0000000000, 0.0153306524
        5898, 6.68893586e-02, 4.51752290e-04, 0.00000000e+00, 0.00000000e+00, 0.00000000e+00, -3.67160024e-02, -1.00753888e-03, 6.68832957e-02, 0.00000000e+00, 1.48066452e+02, -8.78191041e+00, -8.73697350e+00, -9.00239465e+00, -8.19676330e+00, 0.00000000e+00, 2.0000000000, 10.0000000000, 0.0156633854
        5899, 6.68894091e-02, 4.51750809e-04, 0.00000000e+00, 0.00000000e+00, 0.00000000e+00, -3.67160053e-02, -1.00754147e-03, 6.68833462e-02, 0.00000000e+00, 1.48067049e+02, -8.78617201e+00, -8.73980291e+00, -9.00646791e+00, -8.20093177e+00, 0.00000000e+00, 2.0000000000, 10.0000000000, 0.0159256697
        5900, 6.68894565e-02, 4.51749524e-04, 0.00000000e+00, 0.00000000e+00, 0.00000000e+00, -3.67160081e-02, -1.00754378e-03, 6.68833935e-02, 0.00000000e+00, 1.48067575e+02, -8.79209230e+00, -8.74379217e+00, -9.01244410e+00, -8.20685075e+00, 0.00000000e+00, 2.0000000000, 10.0000000000, 0.0162063003
        5901, 6.68895012e-02, 4.51748432e-04, 0.00000000e+00, 0.00000000e+00, 0.00000000e+00, -3.67160109e-02, -1.00754585e-03, 6.68834381e-02, 0.00000000e+00, 1.48068032e+02, -8.79980318e+00, -8.74931939e+00, -9.02053591e+00, -8.21471059e+00, 0.00000000e+00, 2.0000000000, 10.0000000000, 0.0164842685
        5902, 6.68895436e-02, 4.51747509e-04, 0.00000000e+00, 0.00000000e+00, 0.00000000e+00, -3.67160137e-02, -1.00754770e-03, 6.68834805e-02, 0.00000000e+00, 1.48068428e+02, -8.80942441e+00, -8.75677422e+00, -9.03094074e+00, -8.22469334e+00, 0.00000000e+00, 2.0000000000, 10.0000000000, 0.0167644501
        5903, 6.68895839e-02, 4.51746716e-04, 0.00000000e+00, 0.00000000e+00, 0.00000000e+00, -3.67160163e-02, -1.00754937e-03, 6.68835208e-02, 0.00000000e+00, 1.48068777e+02, -8.82104446e+00, -8.76653192e+00, -9.04382193e+00, -8.23695069e+00, 0.00000000e+00, 2.0000000000, 10.0000000000, 0.0170362512
        5904, 6.68896225e-02, 4.51746010e-04, 0.00000000e+00, 0.00000000e+00, 0.00000000e+00, -3.67160190e-02, -1.00755092e-03, 6.68835593e-02, 0.00000000e+00, 1.48069094e+02, -8.83472235e+00, -8.77894752e+00, -9.05932248e+00, -8.25160514e+00, 0.00000000e+00, 2.0000000000, 10.0000000000, 0.0173092008
        5905, 6.68896594e-02, 4.51745348e-04, 0.00000000e+00, 0.00000000e+00, 0.00000000e+00, -3.67160217e-02, -1.00755238e-03, 6.68835962e-02, 0.00000000e+00, 1.48069393e+02, -8.85050581e+00, -8.79436980e+00, -9.07759683e+00, -8.26876969e+00, 0.00000000e+00, 2.0000000000, 10.0000000000, 0.0175878167
        5906, 6.68896948e-02, 4.51744687e-04, 0.00000000e+00, 0.00000000e+00, 0.00000000e+00, -3.67160245e-02, -1.00755382e-03, 6.68836317e-02, 0.00000000e+00, 1.48069688e+02, -8.86844242e+00, -8.81315458e+00, -9.09883220e+00, -8.28855954e+00, 0.00000000e+00, 2.0000000000, 10.0000000000, 0.0178779682
        5907, 6.68897288e-02, 4.51743985e-04, 0.00000000e+00, 0.00000000e+00, 0.00000000e+00, -3.67160275e-02, -1.00755526e-03, 6.68836656e-02, 0.00000000e+00, 1.48069993e+02, -8.88859720e+00, -8.83569338e+00, -9.12328262e+00, -8.31111178e+00, 0.00000000e+00, 2.0000000000, 10.0000000000, 0.0181555867
        5908, 6.68897615e-02, 4.51743208e-04, 0.00000000e+00, 0.00000000e+00, 0.00000000e+00, -3.67160306e-02, -1.00755675e-03, 6.68836983e-02, 0.00000000e+00, 1.48070320e+02, -8.91107901e+00, -8.86246163e+00, -9.15131562e+00, -8.33661602e+00, 0.00000000e+00, 2.0000000000, 10.0000000000, 0.0184248686
        5909, 6.68897929e-02, 4.51742321e-04, 0.00000000e+00, 0.00000000e+00, 0.00000000e+00, -3.67160340e-02, -1.00755832e-03, 6.68837296e-02, 0.00000000e+00, 1.48070681e+02, -8.93605423e+00, -8.89406586e+00, -9.18344203e+00, -8.36533134e+00, 0.00000000e+00, 2.0000000000, 10.0000000000, 0.0187430183
        5910, 6.68898230e-02, 4.51741295e-04, 0.00000000e+00, 0.00000000e+00, 0.00000000e+00, -3.67160377e-02, -1.00756000e-03, 6.68837597e-02, 0.00000000e+00, 1.48071083e+02, -8.96373965e+00, -8.93128063e+00, -9.22032208e+00, -8.39757802e+00, 0.00000000e+00, 2.0000000000, 10.0000000000, 0.0191592852
        5911, 6.68898518e-02, 4.51740108e-04, 0.00000000e+00, 0.00000000e+00, 0.00000000e+00, -3.67160417e-02, -1.00756182e-03, 6.68837885e-02, 0.00000000e+00, 1.48071536e+02, -8.99437310e+00, -8.97507103e+00, -9.26274086e+00, -8.43369874e+00, 0.00000000e+00, 2.0000000000, 10.0000000000, 0.0195921699
        5912, 6.68898793e-02, 4.51738740e-04, 0.00000000e+00, 0.00000000e+00, 0.00000000e+00, -3.67160460e-02, -1.00756379e-03, 6.68838160e-02, 0.00000000e+00, 1.48072046e+02, -9.02812967e+00, -9.02654617e+00, -9.31148559e+00, -8.47394248e+00, 0.00000000e+00, 2.0000000000, 10.0000000000, 0.0199780862
        5913, 6.68899056e-02, 4.51737192e-04, 0.00000000e+00, 0.00000000e+00, 0.00000000e+00, -3.67160506e-02, -1.00756591e-03, 6.68838422e-02, 0.00000000e+00, 1.48072611e+02, -9.06493691e+00, -9.08671662e+00, -9.36698493e+00, -8.51819751e+00, 0.00000000e+00, 2.0000000000, 10.0000000000, 0.0202843189
        5914, 6.68899304e-02, 4.51735496e-04, 0.00000000e+00, 0.00000000e+00, 0.00000000e+00, -3.67160556e-02, -1.00756815e-03, 6.68838670e-02, 0.00000000e+00, 1.48073222e+02, -9.10379112e+00, -9.15519651e+00, -9.42791724e+00, -8.56503422e+00, 0.00000000e+00, 2.0000000000, 10.0000000000, 0.0205761870
        5915, 6.68899534e-02, 4.51733722e-04, 0.00000000e+00, 0.00000000e+00, 0.00000000e+00, -3.67160607e-02, -1.00757042e-03, 6.68838899e-02, 0.00000000e+00, 1.48073854e+02, -9.14102188e+00, -9.22585842e+00, -9.48734988e+00, -8.60928748e+00, 0.00000000e+00, 2.0000000000, 10.0000000000, 0.0208739519
        5916, 6.68899734e-02, 4.51731873e-04, 0.00000000e+00, 0.00000000e+00, 0.00000000e+00, -3.67160661e-02, -1.00757271e-03, 6.68839098e-02, 0.00000000e+00, 1.48074505e+02, -9.16715646e+00, -9.27758180e+00, -9.52604675e+00, -8.63801050e+00, 0.00000000e+00, 2.0000000000, 10.0000000000, 0.0211592356
        5917, 6.68899893e-02, 4.51729788e-04, 0.00000000e+00, 0.00000000e+00, 0.00000000e+00, -3.67160719e-02, -1.00757514e-03, 6.68839257e-02, 0.00000000e+00, 1.48075223e+02, -9.17038898e+00, -9.28388242e+00, -9.52202076e+00, -8.63666500e+00, 0.00000000e+00, 2.0000000000, 10.0000000000, 0.0214713534
        5918, 6.68900013e-02, 4.51727557e-04, 0.00000000e+00, 0.00000000e+00, 0.00000000e+00, -3.67160782e-02, -1.00757763e-03, 6.68839377e-02, 0.00000000e+00, 1.48075981e+02, -9.15558304e+00, -9.26008519e+00, -9.48861850e+00, -8.61438662e+00, 0.00000000e+00, 2.0000000000, 10.0000000000, 0.0217518687
        5919, 6.68900100e-02, 4.51725407e-04, 0.00000000e+00, 0.00000000e+00, 0.00000000e+00, -3.67160850e-02, -1.00757997e-03, 6.68839463e-02, 0.00000000e+00, 1.48076705e+02, -9.13833888e+00, -9.23669658e+00, -9.45576949e+00, -8.59168057e+00, 0.00000000e+00, 2.0000000000, 10.0000000000, 0.0220149358
        5920, 6.68900162e-02, 4.51723388e-04, 0.00000000e+00, 0.00000000e+00, 0.00000000e+00, -3.67160919e-02, -1.00758212e-03, 6.68839525e-02, 0.00000000e+00, 1.48077381e+02, -9.12692674e+00, -9.22271216e+00, -9.43525111e+00, -8.57741395e+00, 0.00000000e+00, 2.0000000000, 10.0000000000, 0.0223008513
        5921, 6.68900206e-02, 4.51721509e-04, 0.00000000e+00, 0.00000000e+00, 0.00000000e+00, -3.67160985e-02, -1.00758410e-03, 6.68839568e-02, 0.00000000e+00, 1.48078006e+02, -9.12240570e+00, -9.21518017e+00, -9.42513419e+00, -8.57146848e+00, 0.00000000e+00, 2.0000000000, 10.0000000000, 0.0225663185
        5922, 6.68900240e-02, 4.51719737e-04, 0.00000000e+00, 0.00000000e+00, 0.00000000e+00, -3.67161045e-02, -1.00758594e-03, 6.68839602e-02, 0.00000000e+00, 1.48078595e+02, -9.12184676e+00, -9.21060597e+00, -9.41976413e+00, -8.56994389e+00, 0.00000000e+00, 2.0000000000, 10.0000000000, 0.0228539348
        5923, 6.68900270e-02, 4.51718068e-04, 0.00000000e+00, 0.00000000e+00, 0.00000000e+00, -3.67161099e-02, -1.00758768e-03, 6.68839632e-02, 0.00000000e+00, 1.48079149e+02, -9.12577877e+00, -9.21252080e+00, -9.42083456e+00, -8.57390144e+00, 0.00000000e+00, 2.0000000000, 10.0000000000, 0.0231296857
        5924, 6.68900299e-02, 4.51716563e-04, 0.00000000e+00, 0.00000000e+00, 0.00000000e+00, -3.67161146e-02, -1.00758925e-03, 6.68839660e-02, 0.00000000e+00, 1.48079649e+02, -9.13495777e+00, -9.22365130e+00, -9.42981577e+00, -8.58446313e+00, 0.00000000e+00, 2.0000000000, 10.0000000000, 0.0234057665
        5925, 6.68900328e-02, 4.51715237e-04, 0.00000000e+00, 0.00000000e+00, 0.00000000e+00, -3.67161186e-02, -1.00759064e-03, 6.68839689e-02, 0.00000000e+00, 1.48080090e+02, -9.14622594e+00, -9.23947896e+00, -9.44241156e+00, -8.59754538e+00, 0.00000000e+00, 2.0000000000, 10.0000000000, 0.0236774524
        5926, 6.68900357e-02, 4.51714072e-04, 0.00000000e+00, 0.00000000e+00, 0.00000000e+00, -3.67161220e-02, -1.00759186e-03, 6.68839718e-02, 0.00000000e+00, 1.48080478e+02, -9.15797387e+00, -9.25722161e+00, -9.45655760e+00, -8.61109121e+00, 0.00000000e+00, 2.0000000000, 10.0000000000, 0.0239881198
        5927, 6.68900384e-02, 4.51713065e-04, 0.00000000e+00, 0.00000000e+00, 0.00000000e+00, -3.67161251e-02, -1.00759293e-03, 6.68839744e-02, 0.00000000e+00, 1.48080814e+02, -9.16895144e+00, -9.27440494e+00, -9.47000980e+00, -8.62354346e+00, 0.00000000e+00, 2.0000000000, 10.0000000000, 0.0242941856
        5928, 6.68900407e-02, 4.51712220e-04, 0.00000000e+00, 0.00000000e+00, 0.00000000e+00, -3.67161278e-02, -1.00759382e-03, 6.68839767e-02, 0.00000000e+00, 1.48081096e+02, -9.17764911e+00, -9.28773044e+00, -9.48000895e+00, -8.63295319e+00, 0.00000000e+00, 2.0000000000, 10.0000000000, 0.0246187011
        5929, 6.68900427e-02, 4.51711538e-04, 0.00000000e+00, 0.00000000e+00, 0.00000000e+00, -3.67161303e-02, -1.00759455e-03, 6.68839787e-02, 0.00000000e+00, 1.48081324e+02, -9.18477119e+00, -9.29816584e+00, -9.48768807e+00, -8.64033725e+00, 0.00000000e+00, 2.0000000000, 10.0000000000, 0.0248959859
        5930, 6.68900443e-02, 4.51711035e-04, 0.00000000e+00, 0.00000000e+00, 0.00000000e+00, -3.67161325e-02, -1.00759509e-03, 6.68839803e-02, 0.00000000e+00, 1.48081493e+02, -9.19136507e+00, -9.30762717e+00, -9.49486009e+00, -8.64711249e+00, 0.00000000e+00, 2.0000000000, 10.0000000000, 0.0251861850
        5931, 6.68900456e-02, 4.51710729e-04, 0.00000000e+00, 0.00000000e+00, 0.00000000e+00, -3.67161345e-02, -1.00759542e-03, 6.68839816e-02, 0.00000000e+00, 1.48081596e+02, -9.19809100e+00, -9.31712890e+00, -9.50252275e+00, -8.65406726e+00, 0.00000000e+00, 2.0000000000, 10.0000000000, 0.0254592180
        5932, 6.68900468e-02, 4.51710622e-04, 0.00000000e+00, 0.00000000e+00, 0.00000000e+00, -3.67161361e-02, -1.00759555e-03, 6.68839828e-02, 0.00000000e+00, 1.48081633e+02, -9.20515312e+00, -9.32677595e+00, -9.51081602e+00, -8.66137264e+00, 0.00000000e+00, 2.0000000000, 10.0000000000, 0.0257108172
        5933, 6.68900479e-02, 4.51710697e-04, 0.00000000e+00, 0.00000000e+00, 0.00000000e+00, -3.67161375e-02, -1.00759550e-03, 6.68839839e-02, 0.00000000e+00, 1.48081611e+02, -9.21262374e+00, -9.33666288e+00, -9.51969407e+00, -8.66908826e+00, 0.00000000e+00, 2.0000000000, 10.0000000000, 0.0259884199
        5934, 6.68900490e-02, 4.51710917e-04, 0.00000000e+00, 0.00000000e+00, 0.00000000e+00, -3.67161386e-02, -1.00759531e-03, 6.68839850e-02, 0.00000000e+00, 1.48081542e+02, -9.22059173e+00, -9.34719081e+00, -9.52921061e+00, -8.67734939e+00, 0.00000000e+00, 2.0000000000, 10.0000000000, 0.0262539347
        5935, 6.68900501e-02, 4.51711234e-04, 0.00000000e+00, 0.00000000e+00, 0.00000000e+00, -3.67161395e-02, -1.00759501e-03, 6.68839861e-02, 0.00000000e+00, 1.48081440e+02, -9.22919825e+00, -9.35895129e+00, -9.53954765e+00, -8.68637167e+00, 0.00000000e+00, 2.0000000000, 10.0000000000, 0.0265156349
        5936, 6.68900512e-02, 4.51711597e-04, 0.00000000e+00, 0.00000000e+00, 0.00000000e+00, -3.67161402e-02, -1.00759467e-03, 6.68839872e-02, 0.00000000e+00, 1.48081323e+02, -9.23859931e+00, -9.37248408e+00, -9.55093171e+00, -8.69637225e+00, 0.00000000e+00, 2.0000000000, 10.0000000000, 0.0267955860
        5937, 6.68900522e-02, 4.51711958e-04, 0.00000000e+00, 0.00000000e+00, 0.00000000e+00, -3.67161409e-02, -1.00759433e-03, 6.68839882e-02, 0.00000000e+00, 1.48081207e+02, -9.24901104e+00, -9.38833668e+00, -9.56369149e+00, -8.70762602e+00, 0.00000000e+00, 2.0000000000, 10.0000000000, 0.0270750999
        5938, 6.68900530e-02, 4.51712276e-04, 0.00000000e+00, 0.00000000e+00, 0.00000000e+00, -3.67161416e-02, -1.00759404e-03, 6.68839890e-02, 0.00000000e+00, 1.48081105e+02, -9.26063932e+00, -9.40698469e+00, -9.57816049e+00, -8.72037656e+00, 0.00000000e+00, 2.0000000000, 10.0000000000, 0.0273432533
        5939, 6.68900536e-02, 4.51712524e-04, 0.00000000e+00, 0.00000000e+00, 0.00000000e+00, -3.67161422e-02, -1.00759380e-03, 6.68839897e-02, 0.00000000e+00, 1.48081025e+02, -9.27370303e+00, -9.42894088e+00, -9.59469770e+00, -8.73487504e+00, 0.00000000e+00, 2.0000000000, 10.0000000000, 0.0276270866
        5940, 6.68900541e-02, 4.51712686e-04, 0.00000000e+00, 0.00000000e+00, 0.00000000e+00, -3.67161429e-02, -1.00759365e-03, 6.68839901e-02, 0.00000000e+00, 1.48080973e+02, -9.28834391e+00, -9.45461500e+00, -9.61353291e+00, -8.75126507e+00, 0.00000000e+00, 2.0000000000, 10.0000000000, 0.0278900703
        5941, 6.68900543e-02, 4.51712758e-04, 0.00000000e+00, 0.00000000e+00, 0.00000000e+00, -3.67161436e-02, -1.00759358e-03, 6.68839903e-02, 0.00000000e+00, 1.48080950e+02, -9.30461191e+00, -9.48429283e+00, -9.63471480e+00, -8.76956815e+00, 0.00000000e+00, 2.0000000000, 10.0000000000, 0.0281704863
        5942, 6.68900542e-02, 4.51712748e-04, 0.00000000e+00, 0.00000000e+00, 0.00000000e+00, -3.67161444e-02, -1.00759359e-03, 6.68839902e-02, 0.00000000e+00, 1.48080953e+02, -9.32252413e+00, -9.51829209e+00, -9.65817830e+00, -8.78977223e+00, 0.00000000e+00, 2.0000000000, 10.0000000000, 0.0284408530
        5943, 6.68900538e-02, 4.51712669e-04, 0.00000000e+00, 0.00000000e+00, 0.00000000e+00, -3.67161452e-02, -1.00759366e-03, 6.68839899e-02, 0.00000000e+00, 1.48080978e+02, -9.34198448e+00, -9.55681160e+00, -9.68362656e+00, -8.81172435e+00, 0.00000000e+00, 2.0000000000, 10.0000000000, 0.0287199497
        5944, 6.68900532e-02, 4.51712537e-04, 0.00000000e+00, 0.00000000e+00, 0.00000000e+00, -3.67161461e-02, -1.00759378e-03, 6.68839892e-02, 0.00000000e+00, 1.48081020e+02, -9.36283408e+00, -9.60004405e+00, -9.71059084e+00, -8.83520559e+00, 0.00000000e+00, 2.0000000000, 10.0000000000, 0.0289857864
        5945, 6.68900521e-02, 4.51712369e-04, 0.00000000e+00, 0.00000000e+00, 0.00000000e+00, -3.67161471e-02, -1.00759392e-03, 6.68839882e-02, 0.00000000e+00, 1.48081073e+02, -9.38480292e+00, -9.64807894e+00, -9.73837933e+00, -8.85987515e+00, 0.00000000e+00, 2.0000000000, 10.0000000000, 0.0292482177
        5946, 6.68900507e-02, 4.51712179e-04, 0.00000000e+00, 0.00000000e+00, 0.00000000e+00, -3.67161482e-02, -1.00759408e-03, 6.68839867e-02, 0.00000000e+00, 1.48081132e+02, -9.40734315e+00, -9.70019413e+00, -9.76578468e+00, -8.88504383e+00, 0.00000000e+00, 2.0000000000, 10.0000000000, 0.0295220176