# vtk DataFile Version 3.0
vtk output
ASCII
DATASET UNSTRUCTURED_GRID
POINTS 5233 float
9.997500e-01	-3.633245e-05	0.0	9.990000e-01	-1.454735e-04	0.0	9.977600e-01	-3.275200e-04	0.0	9.960200e-01	-5.899953e-04	0.0	9.937800e-01	-9.473418e-04	0.0	9.910500e-01	-1.422782e-03	0.0	9.878400e-01	-2.047088e-03	0.0	9.841300e-01	-2.856786e-03	0.0	9.799500e-01	-3.864335e-03	0.0	9.752800e-01	-5.066951e-03	0.0	9.701500e-01	-6.417697e-03	0.0	9.645400e-01	-7.857894e-03	0.0	9.584700e-01	-9.311914e-03	0.0	9.519400e-01	-1.072416e-02	0.0	9.449600e-01	-1.206654e-02	0.0	9.375400e-01	-1.334340e-02	0.0	9.296900e-01	-1.458210e-02	0.0	9.214000e-01	-1.582096e-02	0.0	9.127000e-01	-1.708727e-02	0.0	9.035800e-01	-1.840205e-02	0.0	8.940600e-01	-1.976889e-02	0.0	8.841500e-01	-2.118313e-02	0.0	8.738500e-01	-2.263651e-02	0.0	8.631800e-01	-2.411690e-02	0.0	8.521600e-01	-2.561361e-02	0.0	8.407700e-01	-2.712352e-02	0.0	8.290500e-01	-2.863739e-02	0.0	8.170100e-01	-3.015139e-02	0.0	8.046400e-01	-3.166473e-02	0.0	7.919700e-01	-3.317175e-02	0.0	7.790100e-01	-3.466921e-02	0.0	7.657800e-01	-3.615247e-02	0.0	7.522800e-01	-3.761899e-02	0.0	7.385200e-01	-3.906490e-02	0.0	7.245300e-01	-4.048431e-02	0.0	7.103200e-01	-4.187360e-02	0.0	6.958900e-01	-4.323020e-02	0.0	6.812700e-01	-4.454889e-02	0.0	6.664700e-01	-4.582669e-02	0.0	6.515000e-01	-4.706082e-02	0.0	6.363800e-01	-4.824799e-02	0.0	6.211300e-01	-4.938528e-02	0.0	6.057600e-01	-5.047088e-02	0.0	5.902800e-01	-5.150317e-02	0.0	5.747100e-01	-5.248012e-02	0.0	5.590600e-01	-5.340062e-02	0.0	5.433600e-01	-5.426262e-02	0.0	5.276100e-01	-5.506597e-02	0.0	5.118400e-01	-5.580907e-02	0.0	4.960500e-01	-5.649191e-02	0.0	4.802700e-01	-5.711322e-02	0.0	4.645100e-01	-5.767264e-02	0.0	4.487800e-01	-5.816976e-02	0.0	4.331100e-01	-5.860356e-02	0.0	4.175000e-01	-5.897384e-02	0.0	4.019700e-01	-5.927976e-02	0.0	3.865400e-01	-5.952048e-02	0.0	3.712300e-01	-5.969513e-02	0.0	3.560400e-01	-5.980294e-02	0.0	3.409900e-01	-5.984279e-02	0.0	3.261100e-01	-5.981359e-02	0.0	3.114000e-01	-5.971417e-02	0.0	2.968700e-01	-5.954319e-02	0.0	2.825500e-01	-5.929953e-02	0.0	2.684500e-01	-5.898187e-02	0.0	2.545700e-01	-5.858852e-02	0.0	2.409400e-01	-5.811857e-02	0.0	2.275700e-01	-5.757069e-02	0.0	2.144700e-01	-5.694353e-02	0.0	2.016600e-01	-5.623635e-02	0.0	1.891400e-01	-5.544740e-02	0.0	1.769300e-01	-5.457618e-02	0.0	1.650400e-01	-5.362177e-02	0.0	1.534900e-01	-5.258431e-02	0.0	1.422900e-01	-5.146341e-02	0.0	1.314400e-01	-5.025772e-02	0.0	1.209500e-01	-4.896691e-02	0.0	1.108500e-01	-4.759363e-02	0.0	1.011300e-01	-4.613562e-02	0.0	9.181000e-02	-4.459489e-02	0.0	8.290000e-02	-4.297244e-02	0.0	7.440000e-02	-4.126753e-02	0.0	6.633000e-02	-3.948361e-02	0.0	5.869000e-02	-3.762027e-02	0.0	5.149000e-02	-3.567944e-02	0.0	4.474000e-02	-3.366356e-02	0.0	3.844000e-02	-3.157224e-02	0.0	3.260000e-02	-2.940827e-02	0.0	2.723000e-02	-2.717530e-02	0.0	2.232000e-02	-2.486823e-02	0.0	1.790000e-02	-2.250111e-02	0.0	1.395000e-02	-2.006308e-02	0.0	1.049000e-02	-1.756553e-02	0.0	7.520000e-03	-1.500948e-02	0.0	5.040000e-03	-1.239531e-02	0.0	3.050000e-03	-9.721769e-03	0.0	1.560000e-03	-7.004695e-03	0.0	5.600000e-04	-4.223667e-03	0.0	6.000000e-05	-1.387912e-03	0.0	0.000000e+00	0.000000e+00	0.0	6.000000e-05	1.268287e-03	0.0	5.600000e-04	3.644959e-03	0.0	1.560000e-03	5.826373e-03	0.0	3.050000e-03	7.862146e-03	0.0	5.040000e-03	9.796499e-03	0.0	7.520000e-03	1.163657e-02	0.0	1.049000e-02	1.339708e-02	0.0	1.395000e-02	1.508836e-02	0.0	1.790000e-02	1.671828e-02	0.0	2.232000e-02	1.828639e-02	0.0	2.723000e-02	1.980591e-02	0.0	3.260000e-02	2.127275e-02	0.0	3.844000e-02	2.269469e-02	0.0	4.474000e-02	2.407320e-02	0.0	5.149000e-02	2.540976e-02	0.0	5.869000e-02	2.670751e-02	0.0	6.633000e-02	2.796730e-02	0.0	7.440000e-02	2.918991e-02	0.0	8.290000e-02	3.037737e-02	0.0	9.181000e-02	3.152871e-02	0.0	1.011300e-01	3.264554e-02	0.0	1.108500e-01	3.372794e-02	0.0	1.209500e-01	3.477490e-02	0.0	1.314400e-01	3.578836e-02	0.0	1.422900e-01	3.676612e-02	0.0	1.534900e-01	3.770802e-02	0.0	1.650400e-01	3.861449e-02	0.0	1.769300e-01	3.948490e-02	0.0	1.891400e-01	4.031787e-02	0.0	2.016600e-01	4.111265e-02	0.0	2.144700e-01	4.186780e-02	0.0	2.275700e-01	4.258294e-02	0.0	2.409400e-01	4.325641e-02	0.0	2.545700e-01	4.388699e-02	0.0	2.684500e-01	4.447328e-02	0.0	2.825500e-01	4.501302e-02	0.0	2.968700e-01	4.550503e-02	0.0	3.114000e-01	4.594755e-02	0.0	3.261100e-01	4.633812e-02	0.0	3.409900e-01	4.667487e-02	0.0	3.560400e-01	4.695592e-02	0.0	3.712300e-01	4.717872e-02	0.0	3.865400e-01	4.734096e-02	0.0	4.019700e-01	4.744048e-02	0.0	4.175000e-01	4.747483e-02	0.0	4.331100e-01	4.744165e-02	0.0	4.487800e-01	4.733872e-02	0.0	4.645100e-01	4.716369e-02	0.0	4.802700e-01	4.691456e-02	0.0	4.960500e-01	4.658934e-02	0.0	5.118400e-01	4.618609e-02	0.0	5.276100e-01	4.570369e-02	0.0	5.433600e-01	4.514043e-02	0.0	5.590600e-01	4.449598e-02	0.0	5.747100e-01	4.376921e-02	0.0	5.902800e-01	4.296077e-02	0.0	6.057600e-01	4.207095e-02	0.0	6.211300e-01	4.110112e-02	0.0	6.363800e-01	4.005269e-02	0.0	6.515000e-01	3.892761e-02	0.0	6.664700e-01	3.772924e-02	0.0	6.812700e-01	3.646180e-02	0.0	6.958900e-01	3.512943e-02	0.0	7.103200e-01	3.373695e-02	0.0	7.245300e-01	3.229190e-02	0.0	7.385200e-01	3.079963e-02	0.0	7.522800e-01	2.926708e-02	0.0	7.657800e-01	2.770414e-02	0.0	7.790100e-01	2.611916e-02	0.0	7.919700e-01	2.451981e-02	0.0	8.046400e-01	2.291659e-02	0.0	8.170100e-01	2.131915e-02	0.0	8.290500e-01	1.973984e-02	0.0	8.407700e-01	1.818547e-02	0.0	8.521600e-01	1.666450e-02	0.0	8.631800e-01	1.518775e-02	0.0	8.738500e-01	1.375570e-02	0.0	8.841500e-01	1.237155e-02	0.0	8.940600e-01	1.103642e-02	0.0	9.035800e-01	9.748585e-03	0.0	9.127000e-01	8.510672e-03	0.0	9.214000e-01	7.333608e-03	0.0	9.296900e-01	6.234008e-03	0.0	9.375400e-01	5.242939e-03	0.0	9.449600e-01	4.389704e-03	0.0	9.519400e-01	3.699332e-03	0.0	9.584700e-01	3.177926e-03	0.0	9.645400e-01	2.805122e-03	0.0	9.701500e-01	2.535717e-03	0.0	9.752800e-01	2.313479e-03	0.0	9.799500e-01	2.085841e-03	0.0	9.841300e-01	1.822875e-03	0.0	9.878400e-01	1.517794e-03	0.0	9.910500e-01	1.189278e-03	0.0	9.937800e-01	8.626882e-04	0.0	9.960200e-01	5.665341e-04	0.0	9.977600e-01	3.231712e-04	0.0	9.990000e-01	1.450768e-04	0.0	9.997500e-01	3.632616e-05	0.0	1.000000e+00	0.000000e+00	0.0	1.984229e+01	2.506660e+00	0.0	1.937166e+01	4.973800e+00	0.0	1.859553e+01	7.362490e+00	0.0	1.752613e+01	9.635070e+00	0.0	1.618034e+01	1.175571e+01	0.0	1.457937e+01	1.369094e+01	0.0	1.274848e+01	1.541027e+01	0.0	1.071654e+01	1.688656e+01	0.0	8.515590e+00	1.809654e+01	0.0	6.180340e+00	1.902113e+01	0.0	3.747630e+00	1.964575e+01	0.0	1.255810e+00	1.996053e+01	0.0	-1.255810e+00	1.996053e+01	0.0	-3.747630e+00	1.964574e+01	0.0	-6.180340e+00	1.902113e+01	0.0	-8.515590e+00	1.809654e+01	0.0	-1.071654e+01	1.688656e+01	0.0	-1.274848e+01	1.541026e+01	0.0	-1.457937e+01	1.369094e+01	0.0	-1.618034e+01	1.175570e+01	0.0	-1.752613e+01	9.635070e+00	0.0	-1.859553e+01	7.362490e+00	0.0	-1.937166e+01	4.973800e+00	0.0	-1.984229e+01	2.506660e+00	0.0	-2.000000e+01	0.000000e+00	0.0	-1.984229e+01	-2.506670e+00	0.0	-1.937166e+01	-4.973800e+00	0.0	-1.859553e+01	-7.362490e+00	0.0	-1.752613e+01	-9.635080e+00	0.0	-1.618034e+01	-1.175571e+01	0.0	-1.457937e+01	-1.369094e+01	0.0	-1.274848e+01	-1.541027e+01	0.0	-1.071653e+01	-1.688656e+01	0.0	-8.515580e+00	-1.809654e+01	0.0	-6.180340e+00	-1.902113e+01	0.0	-3.747620e+00	-1.964575e+01	0.0	-1.255810e+00	-1.996053e+01	0.0	1.255810e+00	-1.996053e+01	0.0	3.747630e+00	-1.964574e+01	0.0	6.180340e+00	-1.902113e+01	0.0	8.515590e+00	-1.809654e+01	0.0	1.071654e+01	-1.688656e+01	0.0	1.274848e+01	-1.541026e+01	0.0	1.457937e+01	-1.369094e+01	0.0	1.618034e+01	-1.175570e+01	0.0	1.752614e+01	-9.635070e+00	0.0	1.859553e+01	-7.362490e+00	0.0	1.937166e+01	-4.973790e+00	0.0	1.984229e+01	-2.506660e+00	0.0	2.000000e+01	0.000000e+00	0.0	6.073799e-02	-4.548289e-02	0.0	6.601889e-01	-6.010469e-02	0.0	4.255577e-01	6.168386e-02	0.0	6.897644e-01	4.901813e-02	0.0	3.791247e-01	-7.366917e-02	0.0	9.994676e-01	-7.276143e-04	0.0	9.985546e-01	-1.331528e-03	0.0	7.738151e-01	-4.748028e-02	0.0	6.898609e-01	-5.723173e-02	0.0	-1.138669e-03	5.545482e-03	0.0	7.467816e-01	-5.088976e-02	0.0	5.833332e-01	5.745709e-02	0.0	9.928164e-01	-3.737206e-03	0.0	9.899365e-01	-4.745959e-03	0.0	5.989090e-01	5.651981e-02	0.0	7.187659e-01	-5.414703e-02	0.0	-1.475380e-03	6.029068e-04	0.0	9.865733e-01	-5.909549e-03	0.0	9.827339e-01	-7.231347e-03	0.0	-1.312755e-03	-6.499715e-03	0.0	6.451055e-01	-6.145451e-02	0.0	8.244845e-01	-4.037124e-02	0.0	7.997444e-01	-4.397143e-02	0.0	3.484862e-01	6.059733e-02	0.0	8.479049e-01	-3.673603e-02	0.0	2.473714e-01	5.613647e-02	0.0	8.699451e-01	-3.308993e-02	0.0	1.045298e-02	1.744862e-02	0.0	8.904990e-01	-2.948908e-02	0.0	7.701873e-02	-4.986052e-02	0.0	9.094942e-01	-2.598850e-02	0.0	-1.775815e-03	-3.219165e-03	0.0	9.424856e-01	-1.920009e-02	0.0	9.268507e-01	-2.259039e-02	0.0	1.793818e-02	-2.762059e-02	0.0	4.257426e-01	-7.309957e-02	0.0	8.591066e-01	-3.490890e-02	0.0	9.563381e-01	-1.569004e-02	0.0	9.784102e-01	-8.732894e-03	0.0	9.683321e-01	-1.209524e-02	0.0	1.582655e-01	-6.370295e-02	0.0	9.001983e-01	-2.772427e-02	0.0	7.604312e-01	-4.920094e-02	0.0	9.971361e-01	-2.087533e-03	0.0	5.990502e-01	-6.512357e-02	0.0	4.414449e-01	-7.275032e-02	0.0	5.363198e-01	-6.905199e-02	0.0	4.730162e-01	-7.181989e-02	0.0	5.046769e-01	-7.058532e-02	0.0	4.888346e-01	-7.123945e-02	0.0	1.249501e-01	-5.921058e-02	0.0	2.783577e-02	-3.311795e-02	0.0	3.945703e-01	-7.356065e-02	0.0	4.621296e-02	-4.078063e-02	0.0	4.101109e-01	-7.337112e-02	0.0	3.187171e-01	-7.328394e-02	0.0	3.486145e-01	-7.364631e-02	0.0	3.350008e-02	-3.573800e-02	0.0	2.895133e-01	-7.258484e-02	0.0	9.348881e-01	-2.090215e-02	0.0	1.468064e-01	-6.229649e-02	0.0	1.946465e-01	-6.734520e-02	0.0	8.579371e-02	-5.191654e-02	0.0	1.045864e-01	-5.575793e-02	0.0	5.678224e-01	-6.723567e-02	0.0	1.700684e-01	-6.501543e-02	0.0	6.145277e-01	-6.396325e-02	0.0	8.804164e-01	-3.128118e-02	0.0	2.265908e-02	-3.041049e-02	0.0	9.952221e-01	-2.870645e-03	0.0	6.725561e-03	-1.890879e-02	0.0	1.848241e-02	2.163858e-02	0.0	9.183809e-01	-2.428001e-02	0.0	9.49643
[...]
POINT_DATA 5233

SCALARS Conservative_1 float 1
LOOKUP_TABLE default
1.199840e+00	1.181640e+00	1.171249e+00	1.164849e+00	1.160315e+00	1.155885e+00	1.149024e+00	1.138113e+00	1.121919e+00	1.100528e+00	1.075179e+00	1.048484e+00	1.024817e+00	1.008190e+00	9.997496e-01	9.976495e-01	9.987326e-01	1.000154e+00	1.000159e+00	9.981439e-01	9.943318e-01	9.892820e-01	9.835824e-01	9.777060e-01	9.719310e-01	9.663671e-01	9.610044e-01	9.557949e-01	9.506730e-01	9.456068e-01	9.405801e-01	9.355488e-01	9.304785e-01	9.253863e-01	9.203243e-01	9.153418e-01	9.104579e-01	9.056777e-01	9.010128e-01	8.964806e-01	8.920810e-01	8.878254e-01	8.836966e-01	8.797121e-01	8.758875e-01	8.722739e-01	8.688590e-01	8.655775e-01	8.622810e-01	8.589609e-01	8.558206e-01	8.532188e-01	8.512806e-01	8.497293e-01	8.479023e-01	8.450327e-01	8.405671e-01	8.345786e-01	8.278985e-01	8.218225e-01	8.173222e-01	8.146484e-01	8.135421e-01	8.135566e-01	8.143641e-01	8.157530e-01	8.176673e-01	8.200193e-01	8.227215e-01	8.256635e-01	8.288726e-01	8.325221e-01	8.368634e-01	8.419583e-01	8.477224e-01	8.540074e-01	8.608836e-01	8.685350e-01	8.770191e-01	8.863757e-01	8.967172e-01	9.081038e-01	9.206893e-01	9.345931e-01	9.500082e-01	9.672156e-01	9.864458e-01	1.008060e+00	1.032547e+00	1.060221e+00	1.091608e+00	1.127163e+00	1.166708e+00	1.209751e+00	1.254555e+00	1.298060e+00	1.331704e+00	1.350860e+00	1.339756e+00	1.308960e+00	1.285407e+00	1.223149e+00	1.102820e+00	1.005798e+00	9.294506e-01	8.729006e-01	8.339762e-01	8.081390e-01	7.905917e-01	7.785871e-01	7.704190e-01	7.649040e-01	7.614719e-01	7.593707e-01	7.582154e-01	7.579990e-01	7.585912e-01	7.597536e-01	7.611607e-01	7.624691e-01	7.636732e-01	7.650974e-01	7.670223e-01	7.693184e-01	7.715810e-01	7.735556e-01	7.753186e-01	7.770181e-01	7.787679e-01	7.806499e-01	7.827274e-01	7.849892e-01	7.873672e-01	7.897705e-01	7.921669e-01	7.945371e-01	7.968704e-01	7.991380e-01	8.014289e-01	8.040552e-01	8.075068e-01	8.120287e-01	8.172638e-01	8.222329e-01	8.259614e-01	8.281312e-01	8.291808e-01	8.300830e-01	8.318621e-01	8.352681e-01	8.403309e-01	8.465014e-01	8.530502e-01	8.595676e-01	8.659651e-01	8.723256e-01	8.787895e-01	8.855230e-01	8.926758e-01	9.002268e-01	9.080937e-01	9.161978e-01	9.245018e-01	9.329935e-01	9.416355e-01	9.504125e-01	9.592750e-01	9.682073e-01	9.771352e-01	9.860612e-01	9.949024e-01	1.003578e+00	1.012025e+00	1.020159e+00	1.027933e+00	1.035325e+00	1.042380e+00	1.049280e+00	1.056284e+00	1.063785e+00	1.072081e+00	1.081270e+00	1.090970e+00	1.100315e+00	1.108047e+00	1.112823e+00	1.113545e+00	1.109844e+00	1.102485e+00	1.093646e+00	1.086428e+00	1.083831e+00	1.087714e+00	1.097964e+00	1.112606e+00	1.129844e+00	1.148369e+00	1.168574e+00	1.192683e+00	1.181117e+00	9.999768e-01	9.999708e-01	9.999549e-01	9.999319e-01	9.999087e-01	9.998816e-01	9.998432e-01	9.997894e-01	9.997282e-01	9.996771e-01	9.996433e-01	9.996545e-01	9.997079e-01	9.998164e-01	9.999096e-01	9.999847e-01	1.000026e+00	1.000051e+00	1.000065e+00	1.000071e+00	1.000073e+00	1.000074e+00	1.000074e+00	1.000076e+00	1.000077e+00	1.000080e+00	1.000085e+00	1.000091e+00	1.000100e+00	1.000114e+00	1.000128e+00	1.000149e+00	1.000167e+00	1.000192e+00	1.000209e+00	1.000218e+00	1.000217e+00	1.000203e+00	1.000192e+00	1.000179e+00	1.000174e+00	1.000160e+00	1.000144e+00	1.000124e+00	1.000101e+00	1.000075e+00	1.000058e+00	1.000044e+00	1.000012e+00	9.999794e-01	9.426041e-01	9.014419e-01	8.311879e-01	9.238835e-01	8.410437e-01	1.183083e+00	1.173618e+00	9.402590e-01	9.106587e-01	1.218532e+00	9.302620e-01	8.733453e-01	1.151857e+00	1.145148e+00	8.796829e-01	9.202961e-01	1.308272e+00	1.136188e+00	1.123818e+00	1.337689e+00	8.970236e-01	9.603984e-01	9.502182e-01	8.090740e-01	9.709920e-01	7.922883e-01	9.821322e-01	8.800015e-01	9.927911e-01	9.153314e-01	1.000274e+00	1.344762e+00	1.005854e+00	1.002705e+00	1.099629e+00	8.521793e-01	9.765168e-01	1.025249e+00	1.107546e+00	1.065642e+00	8.469266e-01	9.971270e-01	9.352808e-01	1.164224e+00	8.845291e-01	8.535998e-01	8.701282e-01	8.573226e-01	8.635272e-01	8.602329e-01	8.666258e-01	1.041849e+00	8.464209e-01	9.759826e-01	8.500379e-01	8.194435e-01	8.279670e-01	1.017402e+00	8.176499e-01	1.003342e+00	8.528875e-01	8.335575e-01	9.035855e-01	8.832142e-01	8.769322e-01	8.417289e-01	8.885714e-01	9.876613e-01	1.069167e+00	1.157759e+00	1.209038e+00	8.237466e-01	1.002036e+00	1.012587e+00	1.087746e+00	1.136117e+00	9.656264e-01	8.216606e-01	8.734490e-01	9.252440e-01	9.452218e-01	8.744807e-01	8.269640e-01	8.806410e-01	9.059952e-01	9.584342e-01	1.248690e+00	1.133304e+00	8.344736e-01	8.373457e-01	1.211161e+00	8.241103e-01	8.929129e-01	8.178729e-01	8.197236e-01	8.551369e-01	9.154275e-01	1.280707e+00	1.318473e+00	8.538174e-01	1.324976e+00	7.942613e-01	7.723577e-01	7.794742e-01	7.726845e-01	8.280922e-01	1.140095e+00	8.472587e-01	8.346504e-01	1.097170e+00	1.105985e+00	1.052628e+00	8.371533e-01	8.327473e-01	8.180538e-01	1.083921e+00	1.067352e+00	7.703704e-01	1.092322e+00	1.106791e+00	1.099307e+00	7.711745e-01	7.707594e-01	7.992692e-01	7.946175e-01	7.809237e-01	8.037866e-01	8.335281e-01	8.234497e-01	7.779318e-01	7.742695e-01	8.930483e-01	7.839511e-01	7.877684e-01	9.079557e-01	8.669769e-01	9.575313e-01	9.404741e-01	9.919811e-01	9.747928e-01	1.024347e+00	1.008678e+00	1.059769e+00	1.038819e+00	1.104448e+00	1.075473e+00	1.102381e+00	1.031725e+00	1.045727e+00	1.000421e+00	1.016661e+00	9.661576e-01	9.834293e-01	9.321024e-01	9.489565e-01	9.003257e-01	9.158227e-01	8.604752e-01	8.861802e-01	7.857441e-01	7.899836e-01	7.794934e-01	7.823754e-01	7.751912e-01	7.761591e-01	8.473913e-01	7.855892e-01	8.301361e-01	9.841058e-01	1.043697e+00	9.552697e-01	8.227644e-01	8.668639e-01	1.056092e+00	8.065618e-01	9.248340e-01	7.707800e-01	7.702136e-01	7.969467e-01	7.716919e-01	1.090071e+00	1.092107e+00	8.015500e-01	1.099109e+00	1.110196e+00	8.061486e-01	8.130269e-01	1.092151e+00	1.206450e+00	1.157875e+00	1.174412e+00	8.927295e-01	9.955487e-01	1.124243e+00	8.414559e-01	1.286673e+00	1.170073e+00	9.282853e-01	8.594763e-01	8.183426e-01	7.826270e-01	1.200974e+00	1.260520e+00	8.232279e-01	9.159212e-01	1.003007e+00	1.199462e+00	8.747250e-01	9.112651e-01	9.451599e-01	1.133487e+00	8.255976e-01	9.758437e-01	9.652951e-01	9.109431e-01	1.317307e+00	8.352884e-01	1.132340e+00	1.041567e+00	8.588639e-01	9.206605e-01	9.022834e-01	8.577431e-01	9.229060e-01	8.474326e-01	9.961867e-01	9.500632e-01	9.582563e-01	8.551129e-01	9.159607e-01	1.020947e+00	7.802069e-01	9.237688e-01	7.855709e-01	1.042213e+00	1.100403e+00	8.115349e-01	8.489862e-01	1.099813e+00	1.049008e+00	1.108162e+00	1.101048e+00	1.094443e+00	7.953505e-01	8.088798e-01	7.932490e-01	7.801408e-01	9.067275e-01	8.390297e-01	9.152804e-01	7.831740e-01	7.921556e-01	1.098088e+00	1.118867e+00	1.055864e+00	8.527741e-01	1.215350e+00	1.145731e+00	1.131488e+00	1.011075e+00	1.135303e+00	1.234029e+00	1.331244e+00	1.315507e+00	1.101595e+00	1.217654e+00	9.504021e-01	1.163103e+00	1.148681e+00	8.336680e-01	8.750177e-01	1.123167e+00	9.865387e-01	8.810540e-01	1.141785e+00	1.332486e+00	8.562989e-01	8.298289e-01	9.705165e-01	8.020590e-01	9.812195e-01	9.916110e-01	9.360105e-01	1.000021e+00	1.005338e+00	1.017254e+00	1.047624e+00	1.027340e+00	1.058823e+00	1.110143e+00	8.731486e-01	9.353711e-01	9.402842e-01	1.155468e+00	8.596075e-01	8.622023e-01	8.652879e-01	1.073494e+00	8.517955e-01	8.545942e-01	8.296482e-01	1.002964e+00	1.007642e+00	1.011104e+00	8.657004e-01	9.000352e-01	8.784035e-01	8.897323e-01	1.077097e+00	1.094613e+00	9.254743e-01	9.304179e-01	8.901890e-01	8.812605e-01	8.820078e-01	8.857820e-01	9.837802e-01	9.663113e-01	1.165028e+00	8.352822e-01	8.416220e-01	8.476007e-01	8.430873e-01	8.319184e-01	8.289408e-01	8.227301e-01	8.234024e-01	8.264668e-01	1.299006e+00	1.267569e+00	7.986391e-01	1.095710e+00	8.551242e-01	8.438810e-01	8.403536e-01	8.383621e-01	1.095664e+00	1.100263e+00	1.077576e+00	8.372834e-01	8.360202e-01	8.248481e-01	1.070184e+00	1.096451e+00	7.844802e-01	7.875227e-01	7.975414e-01	7.997774e-01	7.843624e-01	7.820489e-01	7.809493e-01	9.894230e-01	9.562531e-01	9.479836e-01	9.812079e-01	1.013401e+00	1.062890e+00	1.035317e+00	1.028239e+00	1.005647e+00	9.976277e-01	9.728832e-01	9.645567e-01	9.398025e-01	9.317146e-01	9.083515e-01	9.009888e-01	8.682315e-01	8.616540e-01	8.940017e-01	8.873814e-01	7.912922e-01	7.895752e-01	7.880918e-01	7.868041e-01	8.815935e-01	8.074672e-01	8.192673e-01	9.550543e-01	9.601427e-01	8.685328e-01	8.717433e-01	1.071713e+00	8.347696e-01	7.806588e-01	7.814714e-01	8.065908e-01	8.043384e-01	8.196220e-01	8.150359e-01	1.091266e+00	1.084773e+00	8.937865e-01	8.979832e-01	1.024129e+00	1.297477e+00	8.245158e-01	1.311774e+00	8.536612e-01	8.285795e-01	9.505696e-01	8.772121e-01	1.007165e+00	1.107171e+00	1.101106e+00	1.096687e+00	1.082783e+00	1.115839e+00	1.160502e+00	1.181428e+00	1.153203e+00	1.200918e+00	1.103316e+00	1.283850e+00	9.187147e-01	1.010599e+00	1.131660e+00	8.766993e-01	1.172950e+00	1.220808e+00	9.217030e-01	1.276046e+00	9.263811e-01	1.130919e+00	9.859641e-01	1.190551e+00	8.323700e-01	9.808169e-01	9.170885e-01	1.139544e+00	1.160453e+00	1.095907e+00	8.571675e-01	1.093416e+00	9.169231e-01	1.125857e+00	8.514757e-01	8.050385e-01	8.143314e-01	7.907529e-01	7.976478e-01	1.171535e+00	1.293420e+00	1.186087e+00	9.096304e-01	1.241636e+00	1.055093e+00	9.307813e-01	1.312539e+00	8.650848e-01	8.624195e-01	1.077280e+00	9.834046e-01	1.018137e+00	9.876371e-01	9.244613e-01	1.097396e+00	1.095771e+00	1.052050e+00	1.045442e+00	8.118706e-01	8.073103e-01	7.987314e-01	7.890653e-01	9.081249e-01	9.125563e-01	8.446641e-01	9.433319e-01	7.898670e-01	1.095935e+00	1.136154e+00	1.030570e+00	1.135686e+00	1.249601e+00	1.315256e+00	1.052791e+00	1.186197e+00	1.178466e+00	1.070344e+00	1.122829e+00	8.830898e-01	8.608633e-01	8.360571e-01	9.704272e-01	9.756119e-01	9.909726e-01	9.956840e-01	9.583603e-01	9.439907e-01	9.999556e-01	1.003760e+00	1.029496e+00	1.041087e+00	1.112311e+00	9.409217e-01	9.457585e-01	1.146047e+00	8.646413e-01	8.675737e-01	8.572582e-01	8.594081e-01	1.030576e+00	1.014815e+00	1.020823e+00	8.800234e-01	8.722034e-01	8.805239e-01	8.840174e-01	1.085571e+00	1.099709e+00	9.311705e-01	9.360940e-01	9.076803e-01	8.974686e-01	8.882989e-01	8.876858e-01	8.915358e-01	1.010375e+00	9.915342e-01	9.741366e-01	8.369013e-01	8.426861e-01	8.486228e-01	8.590988e-01	8.538283e-01	8.490609e-01	8.407278e-01	8.372013e-01	8.284125e-01	8.295241e-01	8.341838e-01	8.168211e-01	8.469651e-01	8.440119e-01	1.096503e+00	8.423938e-01	8.411146e-01	8.392077e-01	8.316435e-01	1.072019e+00	8.022718e-01	8.085450e-01	8.028213e-01	8.007252e-01	7.892844e-01	7.891175e-01	7.889786e-01	9.557999e-01	1.065383e+00	1.058655e+00	1.038795e+00	1.032099e+00	1.025287e+00	1.010751e+00	1.003244e+00	9.955068e-01	9.797747e-01	9.717994e-01	9.637987e-01	9.478599e-01	9.399538e-01	9.321636e-01	9.095604e-01	8.699919e-01	8.635278e-01	9.024976e-01	8.957652e-01	8.893417e-01	7.969050e-01	7.952557e-01	7.938819e-01	7.927072e-01	7.917127e-01	8.277992e-01	8.420282e-01	9.554301e-01	9.603970e-01	9.653605e-01	8.707487e-01	8.739545e-01	8.599665e-01	8.820706e-01	7.900397e-01	7.919641e-01	7.944127e-01	8.095975e-01	8.265665e-01	8.216484e-01	8.174660e-01	1.089580e+00	1.084493e+00	1.078524e+00	8.955021e-01	8.995967e-01	9.037987e-01	8.316562e-01	8.297696e-01	1.290140e+00	9.266535e-01	1.129276e+00	1.097598e+00	8.825936e-01	1.262526e+00	1.159498e+00	1.012940e+00	1.017894e+00	1.056626e+00	1.112587e+00	8.551637e-01	1.271409e+00	9.670285e-01	1.206300e+00	1.092498e+00	1.120534e+00	1.173081e+00	9.178788e-01	1.131813e+00	1.185393e+00	1.188063e+00	9.559226e-01	8.725659e-01	1.103589e+00	8.600826e-01	9.388379e-01	8.659843e-01	8.351879e-01	1.100932e+00	8.786871e-01	1.090453e+00	1.087450e+00	9.866068e-01	7.970988e-01	8.086364e-01	1.122198e+00	8.169495e-01	9.862092e-01	1.146627e+00	1.105889e+00	1.144112e+00	1.078656e+00	1.127996e+00	9.228495e-01	1.231606e+00	9.279723e-01	9.320728e-01	1.154136e+00	1.130025e+00	1.180539e+00	1.015531e+00	8.590370e-01	8.154065e-01	1.220266e+00	1.003576e+00	9.259271e-01	1.048713e+00	8.178338e-01	8.131203e-01	8.108160e-01	9.139110e-01	9.189206e-01	1.095657e+00	1.043818e+00	1.087857e+00	1.254812e+00	1.297045e+00	1.079398e+00	1.065692e+00	1.113170e+00	8.861427e-01	9.760712e-01	9.810732e-01	9.911023e-01	9.958579e-01	9.660956e-01	9.519196e-01	1.000301e+00	1.004588e+00	1.008741e+00	1.041419e+00	1.053040e+00	9.463116e-01	9.515520e-01	1.137305e+00	8.678474e-01	8.704965e-01	8.628215e-01	8.645469e-01	1.023851e+00	1.031546e+00	8.876744e-01	8.792136e-01	8.866665e-01	1.091150e+00	1.102812e+00	9.372073e-01	9.424943e-01	9.154415e-01	9.053024e-01	8.963392e-01	8.896245e-01	8.939995e-01	1.036445e+00	1.016903e+00	9.982754e-01	9.813422e-01	8.402676e-01	8.450130e-01	8.504681e-01	8.556848e-01	8.666135e-01	8.611105e-01	8.559497e-01	8.513262e-01	8.471862e-01	8.370088e-01	8.353464e-01	8.435906e-01	8.509133e-01	1.094596e+00	1.093734e+00	8.484485e-01	8.467556e-01	8.449384e-01	8.423006e-01	8.385278e-01	8.253707e-01	8.359783e-01	8.065509e-01	8.047143e-01	7.969005e-01	7.972386e-01	7.980468e-01	7.988599e-01	1.067271e+00	1.061175e+00	1.055017e+00	1.042371e+00	1.036054e+00	1.029715e+00	1.022261e+00	1.009301e+00	1.001255e+00	9.938348e-01	9.786533e-01	9.714123e-01	9.632628e-01	9.561041e-01	9.478654e-01	9.408734e-01	9.326757e-01	8.658693e-01	8.714943e-01	9.115056e-01	9.038709e-01	8.981197e-01	8.910889e-01	8.029706e-01	8.014838e-01	8.000556e-01	7.989516e-01	7.979838e-01	7.973458e-01	8.484554e-01	8.643288e-01	9.611441e-01	9.663216e-01	9.710896e-01	8.736468e-01	8.759603e-01	8.798575e-01	8.841599e-01	9.074926e-01	9.346667e-01	8.000641e-01	8.025036e-01	8.064870e-01	8.111322e-01	8.338803e-01	8.290320e-01	8.245232e-01	8.206285e-01	1.073150e+00	1.083419e+00	1.078670e+00	8.972439e-01	9.018603e-01	9.053527e-01	9.101808e-01	8.404700e-01	8.379625e-01	8.361178e-01	1.147829e+00	1.125268e+00	1.073703e+00	1.177440e+00	1.171137e+00	9.358721e-01	9.349701e-01	1.193459e+00	1.096472e+00	1.235473e+00	1.080496e+00	8.813871e-01	8.049743e-01	1.019669e+00	1.128178e+00	1.235635e+00	1.292774e+00	1.294789e+00	1.282010e+00	1.251009e+00	1.138776e+00	8.218461e-01	1.084591e+00	1.121590e+00	1.026378e+00	9.591250e-01	8.664284e-01	1.115848e+00	1.068838e+00	1.082141e+00	8.767553e-01	8.656718e-01	9.231993e-01	9.817488e-01	8.592106e-01	8.869987e-01	8.237005e-01	1.109593e+00	9.470981e-01	1.165159e+00	1.099735e+00	1.292960e+00	1.182397e+00	1.173250e+00	1.019518e+00	1.060545e+00	1.266992e+00	9.867107e-01	1.215193e+00	1.088112e+00	1.162945e+00	1.177057e+00	1.178074e+00	1.125140e+00	8.419508e-01	8.425327e-01	1.104043e+00	8.881981e-01	1.085501e+00	1.113536e+00	9.270243e-01	1.200975e+00	8.187117e-01	8.171110e-01	8.141825e-01	9.182258e-01	1.054322e+00	1.091052e+00	1.275596e+00	1.103250e+00	9.821831e-01	9.863141e-01	9.917159e-01	9.961607e-01	9.599632e-01	9.742926e-01	1.001313e+00	1.005324e+00	1.010294e+00	1.015391e+00	1.051977e+00	1.062677e+00	9.503259e-01	1.128629e+00	8.709523e-01	8.737710e-01	8.678411e-01	8.700406e-01	1.033845e+00	1.042090e+00	8.950988e-01	8.860213e-01	1.095072e+00	1.104782e+00	9.438700e-01	9.234167e-01	9.125276e-01	9.058475e-01	8.941683e-01	1.041530e+00	1.022828e+00	1.004923e+00	9.893412e-01	8.449468e-01	8.475078e-01	8.527994e-01	8.571927e-01	8.624046e-01	8.736511e-01	8.692753e-01	8.622794e-01	8.588241e-01	8.531889e-01	1.094043e+00	1.092127e+00	1.090267e+00	8.547897e-01	8.534501e-01	8.506187e-01	8.487333e-01	8.447335e-01	8.430436e-01	8.554979e-01	8.129285e-01	8.103676e-01	8.043938e-01	8.072691e-01	8.093352e-01	1.062960e+00	1.057548e+00	1.051488e+00	1.045673e+00	1.039472e+00	1.033546e+00	1.026722e+00	1.016852e+00	1.007467e+00	9.958026e-01	9.671056e-01	9.523510e-01	9.376703e-01	9.093987e-01	8.973717e-01	8.096126e-01	8.073868e-01	8.070671e-01	8.050490e-01	8.053495e-01	8.045646e-01	8.045335e-01	8.700734e-01	8.865511e-01	9.673184e-01	9.718081e-01	9.768721e-01	8.768364e-01	8.806560e-01	9.067874e-01	9.309500e-01	9.571554e-01	8.114265e-01	8.145753e-01	8.196676e-01	8.269385e-01	8.342978e-01	8.411197e-01	8.358966e-01	8.324111e-01	8.277194e-01	1.078368e+00	1.073131e+00	9.017647e-01	9.097860e-01	8.507083e-01	8.462890e-01	8.449741e-01	8.421213e-01	1.166113e+00	1.154316e+00	1.181112e+00	1.255525e+00	1.180680e+00	1.088628e+00	1.106498e+00	1.184141e+00	1.086463e+00	1.141088e+00	1.105980e+00	1.255635e+00	1.081327e+00	1.161423e+00	8.290805e-01	1.177712e+00	1.061831e+00	1.153152e+00	1.141225e+00	1.079423e+00	8.883334e-01	1.101666e+00	8.491968e-01	1.035036e+00	1.024621e+00	9.100758e-01	9.430051e-01	8.852764e-01	1.231394e+00	8.724866e-01	9.690654e-01	9.561602e-01	8.147359e-01	1.094229e+00	1.066219e+00	1.213548e+00	1.031822e+00	1.070038e+00	1.170701e+00	1.097546e+00	1.291781e+00	1.245230e+00	1.113786e+00	9.436664e-01	8.684077e-01	8.612115e-01	1.112071e+00	1.173860e+00	1.129458e+00	1.275620e+00	1.176743e+00	1.063671e+00	1.217081e+00	1.199845e+00	8.880384e-01	1.101160e+00	1.084031e+00	1.080448e+00	8.771280e-01	8.239512e-01	8.195610e-01	9.353689e-01	1.092724e+00	1.123633e+00	1.121896e+00	9.897881e-01	9.991922e-01	9.819764e-01	1.008806e+00	1.017300e+00	1.060575e+00	1.121039e+00	8.757296e-01	1.043265e+00	1.051429e+00	8.983830e-01	1.097487e+00	9.509013e-01	9.583106e-01	9.267836e-01	9.133395e-01	8.949382e-01	1.045970e+00	1.027309e+00	1.010440e+00	9.988302e-01	8.532867e-01	8.612915e-01	8.688291e-01	8.729240e-01	8.626727e-01	1.091463e+00	1.088995e+00	8.559237e-01	8.492858e-01	8.753094e-01	8.162008e-01	8.201802e-01	1.003564e+00	1.056294e+00	1.045101e+00	1.033594e+00	1.023033e+00	1.013663e+00	9.912475e-01	9.775978e-01	9.635438e-01	9.494257e-01	9.352580e-01	9.213977e-01	9.090331e-01	8.986125e-01	8.138283e-01	8.123221e-01	8.124374e-01	8.111432e-01	8.132698e-01	8.917989e-01	9.089145e-01	9.668322e-01	9.749371e-01	9.828977e-01	8.796472e-01	8.833417e-01	9.283009e-01	9.515970e-01	9.769079e-01	1.003146e+00	8.241388e-01	8.279044e-01	8.336869e-01	8.424505e-01	8.535968e-01	8.597947e-01	8.413236e-01	8.353489e-01	1.077932e+00	1.073446e+00	9.023223e-01	9.181961e-01	9.266951e-01	8.549237e-01	8.500974e-01	1.117332e+00	1.166042e+00	1.161210e+00	1.136193e+00	1.024746e+00	1.108326e+00	1.173786e+00	1.135662e+00	1.185657e+00	1.135032e+00	1.147643e+00	1.126816e+00	1.093241e+00	1.194227e+00	1.235926e+00	1.088386e+00	9.511446e-01	8.375874e-01	1.124984e+00	1.016923e+00	1.099129e+00	8.870095e-01	1.067377e+00	1.169556e+00	8.755958e-01	1.043474e+00	9.184859e-01	8.961677e-01	1.083534e+00	1.091464e+00	1.081775e+00	1.066527e+00	1.171365e+00	1.098708e+00	1.103036e+00	1.082892e+00	8.272714e-01	8.991180e-01	9.351037e-01	9.888405e-01	1.150463e+00	1.157213e+00	1.272442e+00	1.075352e+00	1.085492e+00	1.175638e+00	1.099219e+00	1.169706e+00	1.152188e+00	8.904119e-01	1.225143e+00	9.790288e-01	9.636649e-01	1.094833e+00	1.234147e+00	1.067183e+00	1.106592e+00	9.434396e-01	1.254676e+00	1.176122e+00	1.004434e+00	1.213274e+00	1.200270e+00	8.786533e-01	1.117364e+00	1.079434e+00	8.884228e-01	8.319522e-01	9.096135e-01	1.119060e+00	1.144139e+00	9.977411e-01	1.007331e+00	1.025229e+00	1.034174e+00	1.114303e+00	8.791245e-01	1.051175e+00	1.058953e+00	8.698548e-01	9.744934e-01	9.824524e-01	9.584129e-01	9.489695e-01	9.336545e-01	9.188256e-01	1.048475e+00	8.577421e-01	8.626998e-01	9.044123e-01	8.905263e-01	9.266687e-01	1.091451e+00	8.706713e-01	8.643550e-01	8.310363e-01	1.059671e+00	1.049763e+00	1.010141e+00	1.039132e+00	1.028857e+00	1.019456e+00	9.994770e-01	9.871649e-01	9.739881e-01	9.605471e-01	9.469424e-01	9.333193e-01	9.206369e-01	8.237326e-01	8.215051e-01	8.203764e-01	8.202912e-01	8.204814e-01	8.250147e-01	9.120563e-01	9.305110e-01	9.662074e-01	9.896995e-01	8.822422e-01	8.859141e-01	9.486591e-01	9.697335e-01	9.934094e-01	1.017020e+00	1.041667e+00	8.383255e-01	8.443234e-01	8.498779e-01	8.583476e-01	8.707402e-01	8.581239e-01	8.509241e-01	8.439163e-01	1.074676e+00	1.067968e+00	9.030912e-01	9.106310e-01	8.781152e-01	8.681094e-01	8.609442e-01	8.571844e-01	1.152283e+00	1.153020e+00	1.149728e+00	1.121064e+00	1.156674e+00	1.140319e+00	1.114219e+00	1.050410e+00	1.172799e+00	1.120720e+00	1.117960e+00	1.071706e+00	1.165975e+00	1.084814e+00	8.317191e-01	1.137641e+00	1.141631e+00	1.128171e+00	1.169423e+00	1.071546e+00	9.250145e-01	1.026408e+00	1.024780e+00	9.590694e-01	1.132849e+00	1.131945e+00	1.128134e+00	1.171850e+00	1.172259e+00	9.002198e-01	9.