# vtk DataFile Version 3.0
vtk output
ASCII
DATASET UNSTRUCTURED_GRID
POINTS 200 float
9.997500e-01	-3.633245e-05	0.0	9.990000e-01	-1.454735e-04	0.0	9.977600e-01	-3.275200e-04	0.0	9.960200e-01	-5.899953e-04	0.0	9.937800e-01	-9.473418e-04	0.0	9.910500e-01	-1.422782e-03	0.0	9.878400e-01	-2.047088e-03	0.0	9.841300e-01	-2.856786e-03	0.0	9.799500e-01	-3.864335e-03	0.0	9.752800e-01	-5.066951e-03	0.0	9.701500e-01	-6.417697e-03	0.0	9.645400e-01	-7.857894e-03	0.0	9.584700e-01	-9.311914e-03	0.0	9.519400e-01	-1.072416e-02	0.0	9.449600e-01	-1.206654e-02	0.0	9.375400e-01	-1.334340e-02	0.0	9.296900e-01	-1.458210e-02	0.0	9.214000e-01	-1.582096e-02	0.0	9.127000e-01	-1.708727e-02	0.0	9.035800e-01	-1.840205e-02	0.0	8.940600e-01	-1.976889e-02	0.0	8.841500e-01	-2.118313e-02	0.0	8.738500e-01	-2.263651e-02	0.0	8.631800e-01	-2.411690e-02	0.0	8.521600e-01	-2.561361e-02	0.0	8.407700e-01	-2.712352e-02	0.0	8.290500e-01	-2.863739e-02	0.0	8.170100e-01	-3.015139e-02	0.0	8.046400e-01	-3.166473e-02	0.0	7.919700e-01	-3.317175e-02	0.0	7.790100e-01	-3.466921e-02	0.0	7.657800e-01	-3.615247e-02	0.0	7.522800e-01	-3.761899e-02	0.0	7.385200e-01	-3.906490e-02	0.0	7.245300e-01	-4.048431e-02	0.0	7.103200e-01	-4.187360e-02	0.0	6.958900e-01	-4.323020e-02	0.0	6.812700e-01	-4.454889e-02	0.0	6.664700e-01	-4.582669e-02	0.0	6.515000e-01	-4.706082e-02	0.0	6.363800e-01	-4.824799e-02	0.0	6.211300e-01	-4.938528e-02	0.0	6.057600e-01	-5.047088e-02	0.0	5.902800e-01	-5.150317e-02	0.0	5.747100e-01	-5.248012e-02	0.0	5.590600e-01	-5.340062e-02	0.0	5.433600e-01	-5.426262e-02	0.0	5.276100e-01	-5.506597e-02	0.0	5.118400e-01	-5.580907e-02	0.0	4.960500e-01	-5.649191e-02	0.0	4.802700e-01	-5.711322e-02	0.0	4.645100e-01	-5.767264e-02	0.0	4.487800e-01	-5.816976e-02	0.0	4.331100e-01	-5.860356e-02	0.0	4.175000e-01	-5.897384e-02	0.0	4.019700e-01	-5.927976e-02	0.0	3.865400e-01	-5.952048e-02	0.0	3.712300e-01	-5.969513e-02	0.0	3.560400e-01	-5.980294e-02	0.0	3.409900e-01	-5.984279e-02	0.0	3.261100e-01	-5.981359e-02	0.0	3.114000e-01	-5.971417e-02	0.0	2.968700e-01	-5.954319e-02	0.0	2.825500e-01	-5.929953e-02	0.0	2.684500e-01	-5.898187e-02	0.0	2.545700e-01	-5.858852e-02	0.0	2.409400e-01	-5.811857e-02	0.0	2.275700e-01	-5.757069e-02	0.0	2.144700e-01	-5.694353e-02	0.0	2.016600e-01	-5.623635e-02	0.0	1.891400e-01	-5.544740e-02	0.0	1.769300e-01	-5.457618e-02	0.0	1.650400e-01	-5.362177e-02	0.0	1.534900e-01	-5.258431e-02	0.0	1.422900e-01	-5.146341e-02	0.0	1.314400e-01	-5.025772e-02	0.0	1.209500e-01	-4.896691e-02	0.0	1.108500e-01	-4.759363e-02	0.0	1.011300e-01	-4.613562e-02	0.0	9.181000e-02	-4.459489e-02	0.0	8.290000e-02	-4.297244e-02	0.0	7.440000e-02	-4.126753e-02	0.0	6.633000e-02	-3.948361e-02	0.0	5.869000e-02	-3.762027e-02	0.0	5.149000e-02	-3.567944e-02	0.0	4.474000e-02	-3.366356e-02	0.0	3.844000e-02	-3.157224e-02	0.0	3.260000e-02	-2.940827e-02	0.0	2.723000e-02	-2.717530e-02	0.0	2.232000e-02	-2.486823e-02	0.0	1.790000e-02	-2.250111e-02	0.0	1.395000e-02	-2.006308e-02	0.0	1.049000e-02	-1.756553e-02	0.0	7.520000e-03	-1.500948e-02	0.0	5.040000e-03	-1.239531e-02	0.0	3.050000e-03	-9.721769e-03	0.0	1.560000e-03	-7.004695e-03	0.0	5.600000e-04	-4.223667e-03	0.0	6.000000e-05	-1.387912e-03	0.0	0.000000e+00	0.000000e+00	0.0	6.000000e-05	1.268287e-03	0.0	5.600000e-04	3.644959e-03	0.0	1.560000e-03	5.826373e-03	0.0	3.050000e-03	7.862146e-03	0.0	5.040000e-03	9.796499e-03	0.0	7.520000e-03	1.163657e-02	0.0	1.049000e-02	1.339708e-02	0.0	1.395000e-02	1.508836e-02	0.0	1.790000e-02	1.671828e-02	0.0	2.232000e-02	1.828639e-02	0.0	2.723000e-02	1.980591e-02	0.0	3.260000e-02	2.127275e-02	0.0	3.844000e-02	2.269469e-02	0.0	4.474000e-02	2.407320e-02	0.0	5.149000e-02	2.540976e-02	0.0	5.869000e-02	2.670751e-02	0.0	6.633000e-02	2.796730e-02	0.0	7.440000e-02	2.918991e-02	0.0	8.290000e-02	3.037737e-02	0.0	9.181000e-02	3.152871e-02	0.0	1.011300e-01	3.264554e-02	0.0	1.108500e-01	3.372794e-02	0.0	1.209500e-01	3.477490e-02	0.0	1.314400e-01	3.578836e-02	0.0	1.422900e-01	3.676612e-02	0.0	1.534900e-01	3.770802e-02	0.0	1.650400e-01	3.861449e-02	0.0	1.769300e-01	3.948490e-02	0.0	1.891400e-01	4.031787e-02	0.0	2.016600e-01	4.111265e-02	0.0	2.144700e-01	4.186780e-02	0.0	2.275700e-01	4.258294e-02	0.0	2.409400e-01	4.325641e-02	0.0	2.545700e-01	4.388699e-02	0.0	2.684500e-01	4.447328e-02	0.0	2.825500e-01	4.501302e-02	0.0	2.968700e-01	4.550503e-02	0.0	3.114000e-01	4.594755e-02	0.0	3.261100e-01	4.633812e-02	0.0	3.409900e-01	4.667487e-02	0.0	3.560400e-01	4.695592e-02	0.0	3.712300e-01	4.717872e-02	0.0	3.865400e-01	4.734096e-02	0.0	4.019700e-01	4.744048e-02	0.0	4.175000e-01	4.747483e-02	0.0	4.331100e-01	4.744165e-02	0.0	4.487800e-01	4.733872e-02	0.0	4.645100e-01	4.716369e-02	0.0	4.802700e-01	4.691456e-02	0.0	4.960500e-01	4.658934e-02	0.0	5.118400e-01	4.618609e-02	0.0	5.276100e-01	4.570369e-02	0.0	5.433600e-01	4.514043e-02	0.0	5.590600e-01	4.449598e-02	0.0	5.747100e-01	4.376921e-02	0.0	5.902800e-01	4.296077e-02	0.0	6.057600e-01	4.207095e-02	0.0	6.211300e-01	4.110112e-02	0.0	6.363800e-01	4.005269e-02	0.0	6.515000e-01	3.892761e-02	0.0	6.664700e-01	3.772924e-02	0.0	6.812700e-01	3.646180e-02	0.0	6.958900e-01	3.512943e-02	0.0	7.103200e-01	3.373695e-02	0.0	7.245300e-01	3.229190e-02	0.0	7.385200e-01	3.079963e-02	0.0	7.522800e-01	2.926708e-02	0.0	7.657800e-01	2.770414e-02	0.0	7.790100e-01	2.611916e-02	0.0	7.919700e-01	2.451981e-02	0.0	8.046400e-01	2.291659e-02	0.0	8.170100e-01	2.131915e-02	0.0	8.290500e-01	1.973984e-02	0.0	8.407700e-01	1.818547e-02	0.0	8.521600e-01	1.666450e-02	0.0	8.631800e-01	1.518775e-02	0.0	8.738500e-01	1.375570e-02	0.0	8.841500e-01	1.237155e-02	0.0	8.940600e-01	1.103642e-02	0.0	9.035800e-01	9.748585e-03	0.0	9.127000e-01	8.510672e-03	0.0	9.214000e-01	7.333608e-03	0.0	9.296900e-01	6.234008e-03	0.0	9.375400e-01	5.242939e-03	0.0	9.449600e-01	4.389704e-03	0.0	9.519400e-01	3.699332e-03	0.0	9.584700e-01	3.177926e-03	0.0	9.645400e-01	2.805122e-03	0.0	9.701500e-01	2.535717e-03	0.0	9.752800e-01	2.313479e-03	0.0	9.799500e-01	2.085841e-03	0.0	9.841300e-01	1.822875e-03	0.0	9.878400e-01	1.517794e-03	0.0	9.910500e-01	1.189278e-03	0.0	9.937800e-01	8.626882e-04	0.0	9.960200e-01	5.665341e-04	0.0	9.977600e-01	3.231712e-04	0.0	9.990000e-01	1.450768e-04	0.0	9.997500e-01	3.632616e-05	0.0	1.000000e+00	0.000000e+00	0.0	
CELLS 200	600
2	149	150	2	150	151	2	151	152	2	152	153	2	153	154	2	154	155	2	155	156	2	156	157	2	157	158	2	158	159	2	159	160	2	160	161	2	161	162	2	162	163	2	163	164	2	164	165	2	165	166	2	166	167	2	167	168	2	168	169	2	169	170	2	170	171	2	171	172	2	172	173	2	173	174	2	174	175	2	175	176	2	176	177	2	177	178	2	178	179	2	179	180	2	180	181	2	181	182	2	31	32	2	32	33	2	33	34	2	34	35	2	35	36	2	36	37	2	37	38	2	38	39	2	39	40	2	40	41	2	41	42	2	42	43	2	43	44	2	44	45	2	45	46	2	46	47	2	47	48	2	48	49	2	49	50	2	50	51	2	51	52	2	52	53	2	53	54	2	54	55	2	55	56	2	56	57	2	57	58	2	58	59	2	59	60	2	60	61	2	61	62	2	62	63	2	63	64	2	64	65	2	65	66	2	66	67	2	67	68	2	68	69	2	69	70	2	70	71	2	71	72	2	72	73	2	73	74	2	74	75	2	75	76	2	76	77	2	77	78	2	78	79	2	79	80	2	80	81	2	81	82	2	82	83	2	83	84	2	113	114	2	114	115	2	115	116	2	116	117	2	117	118	2	118	119	2	119	120	2	120	121	2	121	122	2	122	123	2	123	124	2	124	125	2	125	126	2	126	127	2	127	128	2	128	129	2	129	130	2	130	131	2	131	132	2	132	133	2	133	134	2	134	135	2	135	136	2	136	137	2	137	138	2	138	139	2	139	140	2	140	141	2	141	142	2	142	143	2	143	144	2	144	145	2	145	146	2	146	147	2	147	148	2	148	149	2	84	85	2	85	86	2	86	87	2	87	88	2	88	89	2	89	90	2	90	91	2	91	92	2	92	93	2	93	94	2	94	95	2	95	96	2	96	97	2	97	98	2	98	99	2	99	100	2	100	101	2	101	102	2	102	103	2	103	104	2	104	105	2	105	106	2	106	107	2	107	108	2	108	109	2	109	110	2	110	111	2	111	112	2	112	113	2	199	0	2	0	1	2	1	2	2	2	3	2	3	4	2	4	5	2	5	6	2	6	7	2	182	183	2	183	184	2	184	185	2	185	186	2	186	187	2	187	188	2	188	189	2	189	190	2	190	191	2	191	192	2	192	193	2	193	194	2	194	195	2	195	196	2	196	197	2	197	198	2	198	199	2	7	8	2	8	9	2	9	10	2	10	11	2	11	12	2	12	13	2	13	14	2	14	15	2	15	16	2	16	17	2	17	18	2	18	19	2	19	20	2	20	21	2	21	22	2	22	23	2	23	24	2	24	25	2	25	26	2	26	27	2	27	28	2	28	29	2	29	30	2	30	31	
CELL_TYPES 200
3	3	3	3	3	3	3	3	3	3	3	3	3	3	3	3	3	3	3	3	3	3	3	3	3	3	3	3	3	3	3	3	3	3	3	3	3	3	3	3	3	3	3	3	3	3	3	3	3	3	3	3	3	3	3	3	3	3	3	3	3	3	3	3	3	3	3	3	3	3	3	3	3	3	3	3	3	3	3	3	3	3	3	3	3	3	3	3	3	3	3	3	3	3	3	3	3	3	3	3	3	3	3	3	3	3	3	3	3	3	3	3	3	3	3	3	3	3	3	3	3	3	3	3	3	3	3	3	3	3	3	3	3	3	3	3	3	3	3	3	3	3	3	3	3	3	3	3	3	3	3	3	3	3	3	3	3	3	3	3	3	3	3	3	3	3	3	3	3	3	3	3	3	3	3	3	3	3	3	3	3	3	3	3	3	3	3	3	3	3	3	3	3	3	3	3	3	3	3	3	
POINT_DATA 200

SCALARS Conservative_1 float 1
LOOKUP_TABLE default
1.199840e+00	1.181640e+00	1.171249e+00	1.164849e+00	1.160315e+00	1.155885e+00	1.149024e+00	1.138113e+00	1.121919e+00	1.100528e+00	1.075179e+00	1.048484e+00	1.024817e+00	1.008190e+00	9.997496e-01	9.976495e-01	9.987326e-01	1.000154e+00	1.000159e+00	9.981439e-01	9.943318e-01	9.892820e-01	9.835824e-01	9.777060e-01	9.719310e-01	9.663671e-01	9.610044e-01	9.557949e-01	9.506730e-01	9.456068e-01	9.405801e-01	9.355488e-01	9.304785e-01	9.253863e-01	9.203243e-01	9.153418e-01	9.104579e-01	9.056777e-01	9.010128e-01	8.964806e-01	8.920810e-01	8.878254e-01	8.836966e-01	8.797121e-01	8.758875e-01	8.722739e-01	8.688590e-01	8.655775e-01	8.622810e-01	8.589609e-01	8.558206e-01	8.532188e-01	8.512806e-01	8.497293e-01	8.479023e-01	8.450327e-01	8.405671e-01	8.345786e-01	8.278985e-01	8.218225e-01	8.173222e-01	8.146484e-01	8.135421e-01	8.135566e-01	8.143641e-01	8.157530e-01	8.176673e-01	8.200193e-01	8.227215e-01	8.256635e-01	8.288726e-01	8.325221e-01	8.368634e-01	8.419583e-01	8.477224e-01	8.540074e-01	8.608836e-01	8.685350e-01	8.770191e-01	8.863757e-01	8.967172e-01	9.081038e-01	9.206893e-01	9.345931e-01	9.500082e-01	9.672156e-01	9.864458e-01	1.008060e+00	1.032547e+00	1.060221e+00	1.091608e+00	1.127163e+00	1.166708e+00	1.209751e+00	1.254555e+00	1.298060e+00	1.331704e+00	1.350860e+00	1.339756e+00	1.308960e+00	1.285407e+00	1.223149e+00	1.102820e+00	1.005798e+00	9.294506e-01	8.729006e-01	8.339762e-01	8.081390e-01	7.905917e-01	7.785871e-01	7.704190e-01	7.649040e-01	7.614719e-01	7.593707e-01	7.582154e-01	7.579990e-01	7.585912e-01	7.597536e-01	7.611607e-01	7.624691e-01	7.636732e-01	7.650974e-01	7.670223e-01	7.693184e-01	7.715810e-01	7.735556e-01	7.753186e-01	7.770181e-01	7.787679e-01	7.806499e-01	7.827274e-01	7.849892e-01	7.873672e-01	7.897705e-01	7.921669e-01	7.945371e-01	7.968704e-01	7.991380e-01	8.014289e-01	8.040552e-01	8.075068e-01	8.120287e-01	8.172638e-01	8.222329e-01	8.259614e-01	8.281312e-01	8.291808e-01	8.300830e-01	8.318621e-01	8.352681e-01	8.403309e-01	8.465014e-01	8.530502e-01	8.595676e-01	8.659651e-01	8.723256e-01	8.787895e-01	8.855230e-01	8.926758e-01	9.002268e-01	9.080937e-01	9.161978e-01	9.245018e-01	9.329935e-01	9.416355e-01	9.504125e-01	9.592750e-01	9.682073e-01	9.771352e-01	9.860612e-01	9.949024e-01	1.003578e+00	1.012025e+00	1.020159e+00	1.027933e+00	1.035325e+00	1.042380e+00	1.049280e+00	1.056284e+00	1.063785e+00	1.072081e+00	1.081270e+00	1.090970e+00	1.100315e+00	1.108047e+00	1.112823e+00	1.113545e+00	1.109844e+00	1.102485e+00	1.093646e+00	1.086428e+00	1.083831e+00	1.087714e+00	1.097964e+00	1.112606e+00	1.129844e+00	1.148369e+00	1.168574e+00	1.192683e+00	1.181117e+00	
SCALARS Conservative_2 float 1
LOOKUP_TABLE default
7.195296e-01	7.458641e-01	7.639055e-01	7.746581e-01	7.804887e-01	7.852050e-01	7.909653e-01	8.006041e-01	8.156151e-01	8.360545e-01	8.602048e-01	8.847298e-01	9.059688e-01	9.215274e-01	9.308107e-01	9.348129e-01	9.355934e-01	9.352519e-01	9.352517e-01	9.362060e-01	9.381681e-01	9.408360e-01	9.438332e-01	9.468691e-01	9.497577e-01	9.524339e-01	9.548935e-01	9.571792e-01	9.593019e-01	9.612941e-01	9.631909e-01	9.649845e-01	9.666894e-01	9.683030e-01	9.698124e-01	9.712057e-01	9.724971e-01	9.736681e-01	9.747285e-01	9.756939e-01	9.765452e-01	9.773175e-01	9.779844e-01	9.785832e-01	9.790814e-01	9.795204e-01	9.798775e-01	9.802053e-01	9.804717e-01	9.807158e-01	9.808789e-01	9.809882e-01	9.810279e-01	9.810536e-01	9.810843e-01	9.811558e-01	9.812013e-01	9.811397e-01	9.808295e-01	9.803289e-01	9.798055e-01	9.793690e-01	9.791001e-01	9.789350e-01	9.788743e-01	9.788256e-01	9.788113e-01	9.787591e-01	9.786828e-01	9.785147e-01	9.782693e-01	9.778940e-01	9.773923e-01	9.766842e-01	9.757570e-01	9.744696e-01	9.728417e-01	9.707793e-01	9.680489e-01	9.644966e-01	9.600305e-01	9.543556e-01	9.472066e-01	9.381613e-01	9.266985e-01	9.120832e-01	8.933734e-01	8.694830e-01	8.388274e-01	7.992434e-01	7.482380e-01	6.827721e-01	5.992178e-01	4.954581e-01	3.716619e-01	2.357263e-01	1.071269e-01	1.104704e-02	-2.123483e-02	5.239043e-03	7.215982e-02	2.080215e-01	4.096602e-01	5.864859e-01	7.124015e-01	7.949080e-01	8.472129e-01	8.805795e-01	9.021094e-01	9.165713e-01	9.266601e-01	9.338273e-01	9.392735e-01	9.435154e-01	9.469062e-01	9.498116e-01	9.522978e-01	9.544515e-01	9.563695e-01	9.580235e-01	9.594956e-01	9.609065e-01	9.622790e-01	9.635258e-01	9.646450e-01	9.656268e-01	9.665268e-01	9.673534e-01	9.681527e-01	9.689233e-01	9.696979e-01	9.704568e-01	9.712024e-01	9.719057e-01	9.725792e-01	9.732083e-01	9.738064e-01	9.743713e-01	9.749385e-01	9.755429e-01	9.762479e-01	9.769777e-01	9.776182e-01	9.780562e-01	9.782970e-01	9.784400e-01	9.785693e-01	9.787683e-01	9.789868e-01	9.792534e-01	9.794659e-01	9.795522e-01	9.794466e-01	9.791835e-01	9.787719e-01	9.782061e-01	9.774990e-01	9.765658e-01	9.753980e-01	9.739430e-01	9.722067e-01	9.701671e-01	9.678252e-01	9.651661e-01	9.621840e-01	9.588752e-01	9.552373e-01	9.513107e-01	9.470289e-01	9.425032e-01	9.377407e-01	9.327595e-01	9.276761e-01	9.225460e-01	9.174245e-01	9.123384e-01	9.072321e-01	9.019822e-01	8.962944e-01	8.898701e-01	8.823708e-01	8.737879e-01	8.645488e-01	8.557425e-01	8.489188e-01	8.456544e-01	8.469669e-01	8.527622e-01	8.615733e-01	8.707171e-01	8.768610e-01	8.773402e-01	8.708386e-01	8.580975e-01	8.398638e-01	8.177019e-01	7.913383e-01	7.597432e-01	7.213716e-01	6.623548e-01	
SCALARS Conservative_3 float 1
LOOKUP_TABLE default
1.010186e-01	1.066616e-01	1.128609e-01	1.197743e-01	1.302246e-01	1.449012e-01	1.634562e-01	1.839698e-01	2.032843e-01	2.174636e-01	2.233109e-01	2.192385e-01	2.062058e-01	1.880134e-01	1.694031e-01	1.540576e-01	1.436232e-01	1.378605e-01	1.354150e-01	1.346505e-01	1.342686e-01	1.335049e-01	1.320752e-01	1.300085e-01	1.274749e-01	1.246751e-01	1.217428e-01	1.187671e-01	1.157733e-01	1.127483e-01	1.096802e-01	1.065481e-01	1.033403e-01	1.000491e-01	9.666030e-02	9.318901e-02	8.963170e-02	8.600714e-02	8.232185e-02	7.858812e-02	7.481938e-02	7.102295e-02	6.721749e-02	6.340486e-02	5.959258e-02	5.577253e-02	5.194867e-02	4.813352e-02	4.435070e-02	4.060478e-02	3.686000e-02	3.305999e-02	2.918189e-02	2.521060e-02	2.117417e-02	1.711524e-02	1.308262e-02	9.073087e-03	4.985751e-03	6.717428e-04	-3.914586e-03	-8.751997e-03	-1.382650e-02	-1.912446e-02	-2.468384e-02	-3.053324e-02	-3.672999e-02	-4.329136e-02	-5.025126e-02	-5.763050e-02	-6.547789e-02	-7.385963e-02	-8.284680e-02	-9.247209e-02	-1.027783e-01	-1.138195e-01	-1.257088e-01	-1.385149e-01	-1.523148e-01	-1.672351e-01	-1.833962e-01	-2.009125e-01	-2.199420e-01	-2.406209e-01	-2.630714e-01	-2.874113e-01	-3.137092e-01	-3.419044e-01	-3.715984e-01	-4.020381e-01	-4.317143e-01	-4.574693e-01	-4.741694e-01	-4.733571e-01	-4.421393e-01	-3.652779e-01	-2.313808e-01	-3.932704e-02	1.834972e-01	3.485895e-01	4.925064e-01	6.575135e-01	7.223425e-01	6.897321e-01	6.140792e-01	5.308202e-01	4.560974e-01	3.938390e-01	3.431031e-01	3.015810e-01	2.675674e-01	2.392776e-01	2.155302e-01	1.953625e-01	1.780286e-01	1.630060e-01	1.499039e-01	1.383657e-01	1.281333e-01	1.189321e-01	1.105549e-01	1.029283e-01	9.600432e-02	8.969344e-02	8.386664e-02	7.837071e-02	7.317397e-02	6.825112e-02	6.359472e-02	5.915611e-02	5.490254e-02	5.080196e-02	4.682047e-02	4.292053e-02	3.907739e-02	3.527285e-02	3.148982e-02	2.770084e-02	2.386936e-02	1.997590e-02	1.605166e-02	1.214777e-02	8.274492e-03	4.351110e-03	2.458080e-04	-4.094430e-03	-8.646856e-03	-1.333539e-02	-1.810270e-02	-2.290779e-02	-2.772973e-02	-3.263256e-02	-3.766058e-02	-4.286226e-02	-4.818375e-02	-5.358403e-02	-5.902924e-02	-6.449023e-02	-6.992897e-02	-7.531981e-02	-8.062674e-02	-8.583153e-02	-9.087170e-02	-9.571834e-02	-1.003032e-01	-1.046029e-01	-1.085464e-01	-1.120987e-01	-1.152042e-01	-1.178191e-01	-1.199021e-01	-1.214189e-01	-1.223704e-01	-1.227817e-01	-1.227257e-01	-1.223488e-01	-1.218270e-01	-1.213396e-01	-1.209599e-01	-1.205241e-01	-1.194980e-01	-1.169808e-01	-1.118483e-01	-1.032100e-01	-9.087374e-02	-7.576562e-02	-6.006079e-02	-4.686535e-02	-3.944782e-02	-4.003128e-02	-4.871504e-02	-6.324822e-02	-7.979168e-02	-9.458387e-02	-1.048817e-01	-1.097608e-01	-1.102776e-01	-1.062027e-01	-1.003426e-01	2.587153e-03	
SCALARS Conservative_4 float 1
LOOKUP_TABLE default
3.446423e+00	3.400875e+00	3.375670e+00	3.360247e+00	3.349195e+00	3.338408e+00	3.321370e+00	3.294200e+00	3.253796e+00	3.200378e+00	3.136962e+00	3.069939e+00	3.010341e+00	2.968452e+00	2.947214e+00	2.941919e+00	2.944598e+00	2.948102e+00	2.948019e+00	2.942821e+00	2.933075e+00	2.920188e+00	2.905635e+00	2.890616e+00	2.875833e+00	2.861568e+00	2.847796e+00	2.834403e+00	2.821214e+00	2.808152e+00	2.795184e+00	2.782188e+00	2.769076e+00	2.755893e+00	2.742774e+00	2.729845e+00	2.717161e+00	2.704729e+00	2.692584e+00	2.680774e+00	2.669294e+00	2.658183e+00	2.647387e+00	2.636964e+00	2.626943e+00	2.617471e+00	2.608508e+00	2.599898e+00	2.591238e+00	2.582518e+00	2.574256e+00	2.567401e+00	2.562275e+00	2.558167e+00	2.553343e+00	2.545798e+00	2.534065e+00	2.518315e+00	2.500692e+00	2.484610e+00	2.472663e+00	2.465534e+00	2.462571e+00	2.462582e+00	2.464715e+00	2.468385e+00	2.473458e+00	2.479683e+00	2.486841e+00	2.494624e+00	2.503115e+00	2.512754e+00	2.524214e+00	2.537639e+00	2.552817e+00	2.569327e+00	2.587379e+00	2.607446e+00	2.629633e+00	2.654030e+00	2.680945e+00	2.710497e+00	2.743076e+00	2.778952e+00	2.818582e+00	2.862634e+00	2.911628e+00	2.966449e+00	3.028255e+00	3.097692e+00	3.176011e+00	3.264225e+00	3.361630e+00	3.466963e+00	3.575854e+00	3.681350e+00	3.762401e+00	3.809623e+00	3.781772e+00	3.704553e+00	3.652405e+00	3.504845e+00	3.199298e+00	2.952791e+00	2.757030e+00	2.611119e+00	2.510411e+00	2.443457e+00	2.397803e+00	2.366460e+00	2.345095e+00	2.330599e+00	2.321591e+00	2.316091e+00	2.313087e+00	2.312600e+00	2.314252e+00	2.317409e+00	2.321229e+00	2.324787e+00	2.328075e+00	2.331969e+00	2.337195e+00	2.343378e+00	2.349461e+00	2.354771e+00	2.359524e+00	2.364104e+00	2.368821e+00	2.373886e+00	2.379472e+00	2.385543e+00	2.391923e+00	2.398362e+00	2.404781e+00	2.411125e+00	2.417369e+00	2.423437e+00	2.429574e+00	2.436605e+00	2.445834e+00	2.457879e+00	2.471771e+00	2.484914e+00	2.494756e+00	2.500493e+00	2.503297e+00	2.505747e+00	2.510511e+00	2.519567e+00	2.532968e+00	2.549258e+00	2.566505e+00	2.583649e+00	2.600457e+00	2.617147e+00	2.634094e+00	2.651712e+00	2.670397e+00	2.690082e+00	2.710553e+00	2.731600e+00	2.753125e+00	2.775094e+00	2.797407e+00	2.820024e+00	2.842813e+00	2.865744e+00	2.888598e+00	2.911415e+00	2.933971e+00	2.956052e+00	2.977520e+00	2.998158e+00	3.017851e+00	3.036549e+00	3.054363e+00	3.071756e+00	3.089365e+00	3.108181e+00	3.128934e+00	3.151881e+00	3.176066e+00	3.199365e+00	3.218688e+00	3.230719e+00	3.232707e+00	3.223665e+00	3.205413e+00	3.183340e+00	3.165159e+00	3.158404e+00	3.167807e+00	3.193245e+00	3.229547e+00	3.272243e+00	3.317834e+00	3.367339e+00	3.426920e+00	3.383833e+00	
SCALARS Pressure float 1
LOOKUP_TABLE default
1.290570e+00	1.264265e+00	1.248447e+00	1.238602e+00	1.231755e+00	1.225050e+00	1.215000e+00	1.199096e+00	1.175564e+00	1.144529e+00	1.107866e+00	1.069497e+00	1.035657e+00	1.011906e+00	9.998194e-01	9.968228e-01	9.984194e-01	1.000528e+00	1.000629e+00	9.978731e-01	9.925684e-01	9.855192e-01	9.775691e-01	9.693881e-01	9.613714e-01	9.536701e-01	9.462698e-01	9.390963e-01	9.320638e-01	9.251239e-01	9.182467e-01	9.113789e-01	9.044732e-01	8.975519e-01	8.906867e-01	8.839446e-01	8.773468e-01	8.709057e-01	8.646342e-01	8.585505e-01	8.526613e-01	8.469708e-01	8.414658e-01	8.361584e-01	8.310797e-01	8.262848e-01	8.217659e-01	8.174210e-01	8.130664e-01	8.086776e-01	8.045425e-01	8.011258e-01	7.985996e-01	7.965825e-01	7.941942e-01	7.904087e-01	7.845123e-01	7.766187e-01	7.678689e-01	7.599627e-01	7.541432e-01	7.507156e-01	7.493113e-01	7.493567e-01	7.504127e-01	7.522259e-01	7.547105e-01	7.577706e-01	7.612808e-01	7.651128e-01	7.692926e-01	7.740611e-01	7.797412e-01	7.864307e-01	7.940089e-01	8.023123e-01	8.114082e-01	8.215485e-01	8.328573e-01	8.454008e-01	8.593137e-01	8.747162e-01	8.918247e-01	9.108420e-01	9.320710e-01	9.559540e-01	9.828815e-01	1.013396e+00	1.048265e+00	1.088085e+00	1.133682e+00	1.185840e+00	1.244559e+00	1.309158e+00	1.377156e+00	1.443420e+00	1.495196e+00	1.523602e+00	1.507615e+00	1.463250e+00	1.422411e+00	1.324172e+00	1.154658e+00	1.018122e+00	9.124610e-01	8.351113e-01	7.821451e-01	7.470933e-01	7.234697e-01	7.074189e-01	6.965355e-01	6.892584e-01	6.847171e-01	6.819213e-01	6.803637e-01	6.799966e-01	6.806828e-01	6.821149e-01	6.838494e-01	6.854579e-01	6.869230e-01	6.886524e-01	6.910263e-01	6.939079e-01	6.967577e-01	6.992429e-01	7.014504e-01	7.035802e-01	7.057713e-01	7.081370e-01	7.107526e-01	7.136109e-01	7.166203e-01	7.196693e-01	7.227109e-01	7.257251e-01	7.286928e-01	7.315769e-01	7.344847e-01	7.378219e-01	7.422199e-01	7.480285e-01	7.548044e-01	7.612790e-01	7.661569e-01	7.689870e-01	7.703264e-01	7.714387e-01	7.736990e-01	7.780894e-01	7.846766e-01	7.927483e-01	8.013553e-01	8.099430e-01	8.183919e-01	8.268130e-01	8.353856e-01	8.443517e-01	8.539062e-01	8.640332e-01	8.746204e-01	8.855687e-01	8.968279e-01	9.083841e-01	9.201899e-01	9.322246e-01	9.444255e-01	9.567599e-01	9.691527e-01	9.815765e-01	9.939256e-01	1.006095e+00	1.017977e+00	1.029453e+00	1.040451e+00	1.050935e+00	1.060976e+00	1.070824e+00	1.080868e+00	1.091664e+00	1.103663e+00	1.116997e+00	1.131109e+00	1.144703e+00	1.155907e+00	1.162730e+00	1.163593e+00	1.158024e+00	1.147222e+00	1.134397e+00	1.124083e+00	1.120586e+00	1.126511e+00	1.141542e+00	1.163045e+00	1.188406e+00	1.215954e+00	1.246216e+00	1.281818e+00	1.279244e+00	
SCALARS Temperature float 1
LOOKUP_TABLE default
1.075618e+00	1.069924e+00	1.065911e+00	1.063315e+00	1.061569e+00	1.059838e+00	1.057420e+00	1.053582e+00	1.047816e+00	1.039982e+00	1.030402e+00	1.020042e+00	1.010578e+00	1.003685e+00	1.000070e+00	9.991714e-01	9.996865e-01	1.000374e+00	1.000471e+00	9.997287e-01	9.982266e-01	9.961964e-01	9.938863e-01	9.914924e-01	9.891354e-01	9.868610e-01	9.846675e-01	9.825291e-01	9.804253e-01	9.783389e-01	9.762556e-01	9.741651e-01	9.720516e-01	9.699213e-01	9.677965e-01	9.656989e-01	9.636324e-01	9.616067e-01	9.596248e-01	9.576900e-01	9.558114e-01	9.539836e-01	9.522113e-01	9.504909e-01	9.488430e-01	9.472768e-01	9.457989e-01	9.443650e-01	9.429251e-01	9.414604e-01	9.400831e-01	9.389453e-01	9.381156e-01	9.374544e-01	9.366576e-01	9.353588e-01	9.333131e-01	9.305520e-01	9.274916e-01	9.247285e-01	9.227000e-01	9.215210e-01	9.210480e-01	9.210874e-01	9.214707e-01	9.221246e-01	9.230044e-01	9.240888e-01	9.253202e-01	9.266642e-01	9.281192e-01	9.297784e-01	9.317426e-01	9.340494e-01	9.366379e-01	9.394676e-01	9.425296e-01	9.459014e-01	9.496455e-01	9.537725e-01	9.582884e-01	9.632337e-01	9.686490e-01	9.745867e-01	9.811189e-01	9.883566e-01	9.963867e-01	1.005292e+00	1.015222e+00	1.026281e+00	1.038543e+00	1.052057e+00	1.066727e+00	1.082172e+00	1.097725e+00	1.111983e+00	1.122769e+00	1.127876e+00	1.125290e+00	1.117872e+00	1.106584e+00	1.082593e+00	1.047005e+00	1.012253e+00	9.817209e-01	9.567084e-01	9.378505e-01	9.244614e-01	9.150990e-01	9.085932e-01	9.040995e-01	9.011044e-01	8.992020e-01	8.980084e-01	8.973224e-01	8.970944e-01	8.972985e-01	8.978108e-01	8.984298e-01	8.989976e-01	8.994986e-01	9.000846e-01	9.009207e-01	9.019775e-01	9.030260e-01	9.039335e-01	9.047253e-01	9.054875e-01	9.062665e-01	9.071121e-01	9.080462e-01	9.090710e-01	9.101475e-01	9.112385e-01	9.123216e-01	9.133935e-01	9.144433e-01	9.154576e-01	9.164690e-01	9.176259e-01	9.191501e-01	9.211847e-01	9.235750e-01	9.258679e-01	9.275941e-01	9.285811e-01	9.290210e-01	9.293512e-01	9.300808e-01	9.315445e-01	9.337710e-01	9.364997e-01	9.394000e-01	9.422679e-01	9.450634e-01	9.478261e-01	9.506094e-01	9.535063e-01	9.565691e-01	9.597950e-01	9.631389e-01	9.665694e-01	9.700662e-01	9.736232e-01	9.772252e-01	9.808632e-01	9.845200e-01	9.881767e-01	9.918307e-01	9.954518e-01	9.990182e-01	1.002508e+00	1.005881e+00	1.009110e+00	1.012178e+00	1.015078e+00	1.017840e+00	1.020532e+00	1.023274e+00	1.026207e+00	1.029459e+00	1.033042e+00	1.036792e+00	1.040341e+00	1.043192e+00	1.044847e+00	1.044945e+00	1.043411e+00	1.040578e+00	1.037262e+00	1.034659e+00	1.033911e+00	1.035669e+00	1.039689e+00	1.045334e+00	1.051832e+00	1.058852e+00	1.066442e+00	1.074735e+00	1.083080e+00	
SCALARS Pressure_Coefficient float 1
LOOKUP_TABLE default
6.485931e-01	5.898766e-01	5.545693e-01	5.325930e-01	5.173111e-01	5.023447e-01	4.799115e-01	4.444101e-01	3.918846e-01	3.226103e-01	2.407724e-01	1.551266e-01	7.959198e-02	2.657482e-02	-4.030686e-04	-7.091949e-03	-3.528091e-03	1.178735e-03	1.404607e-03	-4.747642e-03	-1.658834e-02	-3.232315e-02	-5.006900e-02	-6.833021e-02	-8.622459e-02	-1.034150e-01	-1.199335e-01	-1.359457e-01	-1.516432e-01	-1.671342e-01	-1.824851e-01	-1.978149e-01	-2.132296e-01	-2.286788e-01	-2.440030e-01	-2.590522e-01	-2.737795e-01	-2.881570e-01	-3.021558e-01	-3.157355e-01	-3.288811e-01	-3.415829e-01	-3.538709e-01	-3.657179e-01	-3.770543e-01	-3.877572e-01	-3.978440e-01	-4.075423e-01	-4.172624e-01	-4.270588e-01	-4.362890e-01	-4.439156e-01	-4.495545e-01	-4.540569e-01	-4.593880e-01	-4.678376e-01	-4.809994e-01	-4.986189e-01	-5.181498e-01	-5.357976e-01	-5.487875e-01	-5.564384e-01	-5.595730e-01	-5.594716e-01	-5.571145e-01	-5.530671e-01	-5.475212e-01	-5.406905e-01	-5.328553e-01	-5.243019e-01	-5.149718e-01	-5.043278e-01	-4.916490e-01	-4.767172e-01	-4.598015e-01	-4.412673e-01	-4.209637e-01	-3.983292e-01	-3.730864e-01	-3.450875e-01	-3.140319e-01	-2.796514e-01	-2.414627e-01	-1.990135e-01	-1.516272e-01	-9.831702e-02	-3.821088e-02	2.990073e-02	1.077343e-01	1.966178e-01	2.983966e-01	4.148203e-01	5.458897e-01	6.900859e-01	8.418671e-01	9.897775e-01	1.105349e+00	1.168755e+00	1.133069e+00	1.034041e+00	9.428817e-01	7.235984e-01	3.452183e-01	4.045143e-02	-1.953996e-01	-3.680551e-01	-4.862833e-01	-5.645239e-01	-6.172552e-01	-6.530828e-01	-6.773762e-01	-6.936197e-01	-7.037565e-01	-7.099971e-01	-7.134739e-01	-7.142932e-01	-7.127617e-01	-7.095649e-01	-7.056933e-01	-7.021030e-01	-6.988326e-01	-6.949722e-01	-6.896734e-01	-6.832413e-01	-6.768801e-01	-6.713329e-01	-6.664054e-01	-6.616514e-01	-6.567606e-01	-6.514799e-01	-6.456415e-01	-6.392614e-01	-6.325441e-01	-6.257382e-01	-6.189488e-01	-6.122208e-01	-6.055964e-01	-5.991587e-01	-5.926680e-01	-5.852191e-01	-5.754020e-01	-5.624365e-01	-5.473117e-01	-5.328593e-01	-5.219713e-01	-5.156541e-01	-5.126643e-01	-5.101815e-01	-5.051362e-01	-4.953362e-01	-4.806325e-01	-4.626154e-01	-4.434032e-01	-4.242343e-01	-4.053752e-01	-3.865781e-01	-3.674430e-01	-3.474292e-01	-3.261023e-01	-3.034974e-01	-2.798652e-01	-2.554271e-01	-2.302948e-01	-2.044997e-01	-1.781475e-01	-1.512844e-01	-1.240503e-01	-9.651805e-02	-6.885552e-02	-4.112395e-02	-1.355898e-02	1.360549e-02	4.012762e-02	6.574361e-02	9.029184e-02	1.136951e-01	1.361079e-01	1.580883e-01	1.805091e-01	2.046063e-01	2.313914e-01	2.611545e-01	2.926542e-01	3.229984e-01	3.480058e-01	3.632377e-01	3.651639e-01	3.527327e-01	3.286205e-01	2.999926e-01	2.769714e-01	2.691642e-01	2.823911e-01	3.159412e-01	3.639406e-01	4.205480e-01	4.820393e-01	5.495902e-01	6.290578e-01	6.233127e-01	
SCALARS Mach float 1
LOOKUP_TABLE default
4.934814e-01	5.209908e-01	5.397029e-01	5.515381e-01	5.593902e-01	5.670960e-01	5.777257e-01	5.943027e-01	6.185919e-01	6.505373e-01	6.882023e-01	7.274730e-01	7.622297e-01	7.869712e-01	7.997731e-01	8.029373e-01	8.011241e-01	7.987008e-01	7.983598e-01	8.009755e-01	8.062572e-01	8.133665e-01	8.214160e-01	8.297143e-01	8.378427e-01	8.456487e-01	8.531433e-01	8.604181e-01	8.675466e-01	8.745886e-01	8.815935e-01	8.885971e-01	8.956522e-01	9.027384e-01	9.097819e-01	9.167124e-01	9.235183e-01	9.301700e-01	9.366586e-01	9.429756e-01	9.490932e-01	9.550309e-01	9.607745e-01	9.663376e-01	9.716554e-01	9.766996e-01	9.814508e-01	9.860528e-01	9.906664e-01	9.953520e-01	9.997512e-01	1.003381e+00	1.006024e+00	1.008130e+00	1.010665e+00	1.014793e+00	1.021284e+00	1.030025e+00	1.039688e+00	1.048390e+00	1.054765e+00	1.058466e+00	1.059950e+00	1.059826e+00	1.058624e+00	1.056572e+00	1.053809e+00	1.050401e+00	1.046528e+00	1.042296e+00	1.037709e+00	1.032470e+00	1.026259e+00	1.018949e+00	1.010728e+00	1.001715e+00	9.919324e-01	9.811213e-01	9.690670e-01	9.557155e-01	9.410237e-01	9.248293e-01	9.069590e-01	8.871867e-01	8.651996e-01	8.405198e-01	8.127015e-01	7.812415e-01	7.452954e-01	7.039902e-01	6.562896e-01	6.007975e-01	5.359397e-01	4.601833e-01	3.713858e-01	2.684214e-01	1.527158e-01	2.406457e-02	1.098490e-01	2.129006e-01	3.111194e-01	4.579770e-01	6.219504e-01	7.561484e-01	8.631601e-01	9.461742e-01	1.006869e+00	1.049230e+00	1.078564e+00	1.098832e+00	1.112783e+00	1.122061e+00	1.127946e+00	1.131636e+00	1.133755e+00	1.134460e+00	1.133829e+00	1.132246e+00	1.130333e+00	1.128578e+00	1.127029e+00	1.125216e+00	1.122629e+00	1.119358e+00	1.116110e+00	1.113297e+00	1.110842e+00	1.108478e+00	1.106060e+00	1.103434e+00	1.100533e+00	1.097347e+00	1.093998e+00	1.090602e+00	1.087228e+00	1.083886e+00	1.080611e+00	1.077445e+00	1.074285e+00	1.070668e+00	1.065897e+00	1.059521e+00	1.052016e+00	1.044804e+00	1.039365e+00	1.036251e+00	1.034862e+00	1.033819e+00	1.031515e+00	1.026886e+00	1.019832e+00	1.011167e+00	1.001931e+00	9.927696e-01	9.838122e-01	9.749312e-01	9.659549e-01	9.565789e-01	9.466276e-01	9.361020e-01	9.251407e-01	9.138392e-01	9.022573e-01	8.904083e-01	8.783366e-01	8.660653e-01	8.536459e-01	8.411377e-01	8.285441e-01	8.159656e-01	8.034761e-01	7.911507e-01	7.791367e-01	7.675371e-01	7.564228e-01	7.458237e-01	7.356466e-01	7.256445e-01	7.153676e-01	7.042691e-01	6.918336e-01	6.779636e-01	6.632406e-01	6.490977e-01	6.375816e-01	6.308301e-01	6.304303e-01	6.366913e-01	6.481461e-01	6.613796e-01	6.716394e-01	6.745688e-01	6.676732e-01	6.517109e-01	6.288341e-01	6.017514e-01	5.714463e-01	5.372547e-01	4.978297e-01	4.554144e-01	