# vtk DataFile Version 3.0
vtk output
ASCII
DATASET UNSTRUCTURED_GRID
POINTS 5233 float
9.997500e-01	-3.633245e-05	0.0	9.990000e-01	-1.454738e-04	0.0	9.977600e-01	-3.275233e-04	0.0	9.960200e-01	-5.900134e-04	0.0	9.937800e-01	-9.474073e-04	0.0	9.910500e-01	-1.422963e-03	0.0	9.878400e-01	-2.047497e-03	0.0	9.841300e-01	-2.857583e-03	0.0	9.799500e-01	-3.865702e-03	0.0	9.752800e-01	-5.069059e-03	0.0	9.701500e-01	-6.420655e-03	0.0	9.645400e-01	-7.861718e-03	0.0	9.584700e-01	-9.316518e-03	0.0	9.519400e-01	-1.072938e-02	0.0	9.449600e-01	-1.207217e-02	0.0	9.375400e-01	-1.334926e-02	0.0	9.296900e-01	-1.458804e-02	0.0	9.214000e-01	-1.582691e-02	0.0	9.127000e-01	-1.709319e-02	0.0	9.035800e-01	-1.840796e-02	0.0	8.940600e-01	-1.977482e-02	0.0	8.841500e-01	-2.118910e-02	0.0	8.738500e-01	-2.264254e-02	0.0	8.631800e-01	-2.412299e-02	0.0	8.521600e-01	-2.561976e-02	0.0	8.407700e-01	-2.712972e-02	0.0	8.290500e-01	-2.864362e-02	0.0	8.170100e-01	-3.015764e-02	0.0	8.046400e-01	-3.167097e-02	0.0	7.919700e-01	-3.317797e-02	0.0	7.790100e-01	-3.467539e-02	0.0	7.657800e-01	-3.615860e-02	0.0	7.522800e-01	-3.762503e-02	0.0	7.385200e-01	-3.907084e-02	0.0	7.245300e-01	-4.049013e-02	0.0	7.103200e-01	-4.187928e-02	0.0	6.958900e-01	-4.323571e-02	0.0	6.812700e-01	-4.455422e-02	0.0	6.664700e-01	-4.583182e-02	0.0	6.515000e-01	-4.706573e-02	0.0	6.363800e-01	-4.825265e-02	0.0	6.211300e-01	-4.938969e-02	0.0	6.057600e-01	-5.047501e-02	0.0	5.902800e-01	-5.150701e-02	0.0	5.747100e-01	-5.248366e-02	0.0	5.590600e-01	-5.340385e-02	0.0	5.433600e-01	-5.426552e-02	0.0	5.276100e-01	-5.506853e-02	0.0	5.118400e-01	-5.581129e-02	0.0	4.960500e-01	-5.649379e-02	0.0	4.802700e-01	-5.711474e-02	0.0	4.645100e-01	-5.767380e-02	0.0	4.487800e-01	-5.817056e-02	0.0	4.331100e-01	-5.860398e-02	0.0	4.175000e-01	-5.897390e-02	0.0	4.019700e-01	-5.927945e-02	0.0	3.865400e-01	-5.951979e-02	0.0	3.712300e-01	-5.969406e-02	0.0	3.560400e-01	-5.980150e-02	0.0	3.409900e-01	-5.984098e-02	0.0	3.261100e-01	-5.981140e-02	0.0	3.114000e-01	-5.971161e-02	0.0	2.968700e-01	-5.954026e-02	0.0	2.825500e-01	-5.929623e-02	0.0	2.684500e-01	-5.897821e-02	0.0	2.545700e-01	-5.858450e-02	0.0	2.409400e-01	-5.811419e-02	0.0	2.275700e-01	-5.756596e-02	0.0	2.144700e-01	-5.693847e-02	0.0	2.016600e-01	-5.623096e-02	0.0	1.891400e-01	-5.544169e-02	0.0	1.769300e-01	-5.457017e-02	0.0	1.650400e-01	-5.361548e-02	0.0	1.534900e-01	-5.257775e-02	0.0	1.422900e-01	-5.145661e-02	0.0	1.314400e-01	-5.025071e-02	0.0	1.209500e-01	-4.895970e-02	0.0	1.108500e-01	-4.758627e-02	0.0	1.011300e-01	-4.612814e-02	0.0	9.181000e-02	-4.458732e-02	0.0	8.290000e-02	-4.296482e-02	0.0	7.440000e-02	-4.125992e-02	0.0	6.633000e-02	-3.947604e-02	0.0	5.869000e-02	-3.761279e-02	0.0	5.149000e-02	-3.567210e-02	0.0	4.474000e-02	-3.365642e-02	0.0	3.844000e-02	-3.156536e-02	0.0	3.260000e-02	-2.940171e-02	0.0	2.723000e-02	-2.716911e-02	0.0	2.232000e-02	-2.486247e-02	0.0	1.790000e-02	-2.249584e-02	0.0	1.395000e-02	-2.005836e-02	0.0	1.049000e-02	-1.756141e-02	0.0	7.520000e-03	-1.500600e-02	0.0	5.040000e-03	-1.239251e-02	0.0	3.050000e-03	-9.719673e-03	0.0	1.560000e-03	-7.003302e-03	0.0	5.600000e-04	-4.222946e-03	0.0	6.000000e-05	-1.387752e-03	0.0	0.000000e+00	0.000000e+00	0.0	6.000000e-05	1.267549e-03	0.0	5.600000e-04	3.641642e-03	0.0	1.560000e-03	5.820031e-03	0.0	3.050000e-03	7.852730e-03	0.0	5.040000e-03	9.784133e-03	0.0	7.520000e-03	1.162153e-02	0.0	1.049000e-02	1.337970e-02	0.0	1.395000e-02	1.506908e-02	0.0	1.790000e-02	1.669755e-02	0.0	2.232000e-02	1.826470e-02	0.0	2.723000e-02	1.978377e-02	0.0	3.260000e-02	2.125067e-02	0.0	3.844000e-02	2.267318e-02	0.0	4.474000e-02	2.405276e-02	0.0	5.149000e-02	2.539088e-02	0.0	5.869000e-02	2.669063e-02	0.0	6.633000e-02	2.795285e-02	0.0	7.440000e-02	2.917828e-02	0.0	8.290000e-02	3.036891e-02	0.0	9.181000e-02	3.152371e-02	0.0	1.011300e-01	3.264426e-02	0.0	1.108500e-01	3.373058e-02	0.0	1.209500e-01	3.478160e-02	0.0	1.314400e-01	3.579920e-02	0.0	1.422900e-01	3.678115e-02	0.0	1.534900e-01	3.772720e-02	0.0	1.650400e-01	3.863773e-02	0.0	1.769300e-01	3.951207e-02	0.0	1.891400e-01	4.034877e-02	0.0	2.016600e-01	4.114704e-02	0.0	2.144700e-01	4.190539e-02	0.0	2.275700e-01	4.262339e-02	0.0	2.409400e-01	4.329935e-02	0.0	2.545700e-01	4.393200e-02	0.0	2.684500e-01	4.451994e-02	0.0	2.825500e-01	4.506087e-02	0.0	2.968700e-01	4.555361e-02	0.0	3.114000e-01	4.599637e-02	0.0	3.261100e-01	4.638673e-02	0.0	3.409900e-01	4.672280e-02	0.0	3.560400e-01	4.700273e-02	0.0	3.712300e-01	4.722398e-02	0.0	3.865400e-01	4.738429e-02	0.0	4.019700e-01	4.748151e-02	0.0	4.175000e-01	4.751325e-02	0.0	4.331100e-01	4.747721e-02	0.0	4.487800e-01	4.737118e-02	0.0	4.645100e-01	4.719289e-02	0.0	4.802700e-01	4.694040e-02	0.0	4.960500e-01	4.661176e-02	0.0	5.118400e-01	4.620509e-02	0.0	5.276100e-01	4.571931e-02	0.0	5.433600e-01	4.515279e-02	0.0	5.590600e-01	4.450521e-02	0.0	5.747100e-01	4.377550e-02	0.0	5.902800e-01	4.296434e-02	0.0	6.057600e-01	4.207203e-02	0.0	6.211300e-01	4.109999e-02	0.0	6.363800e-01	4.004962e-02	0.0	6.515000e-01	3.892289e-02	0.0	6.664700e-01	3.772315e-02	0.0	6.812700e-01	3.645460e-02	0.0	6.958900e-01	3.512139e-02	0.0	7.103200e-01	3.372830e-02	0.0	7.245300e-01	3.228287e-02	0.0	7.385200e-01	3.079041e-02	0.0	7.522800e-01	2.925782e-02	0.0	7.657800e-01	2.769498e-02	0.0	7.790100e-01	2.611022e-02	0.0	7.919700e-01	2.451115e-02	0.0	8.046400e-01	2.290828e-02	0.0	8.170100e-01	2.131123e-02	0.0	8.290500e-01	1.973232e-02	0.0	8.407700e-01	1.817836e-02	0.0	8.521600e-01	1.665778e-02	0.0	8.631800e-01	1.518141e-02	0.0	8.738500e-01	1.374972e-02	0.0	8.841500e-01	1.236588e-02	0.0	8.940600e-01	1.103103e-02	0.0	9.035800e-01	9.743409e-03	0.0	9.127000e-01	8.505666e-03	0.0	9.214000e-01	7.328737e-03	0.0	9.296900e-01	6.229264e-03	0.0	9.375400e-01	5.238358e-03	0.0	9.449600e-01	4.385368e-03	0.0	9.519400e-01	3.695360e-03	0.0	9.584700e-01	3.174452e-03	0.0	9.645400e-01	2.802254e-03	0.0	9.701500e-01	2.533508e-03	0.0	9.752800e-01	2.311910e-03	0.0	9.799500e-01	2.084826e-03	0.0	9.841300e-01	1.822284e-03	0.0	9.878400e-01	1.517491e-03	0.0	9.910500e-01	1.189144e-03	0.0	9.937800e-01	8.626397e-04	0.0	9.960200e-01	5.665207e-04	0.0	9.977600e-01	3.231687e-04	0.0	9.990000e-01	1.450765e-04	0.0	9.997500e-01	3.632616e-05	0.0	1.000000e+00	0.000000e+00	0.0	1.984229e+01	2.506660e+00	0.0	1.937166e+01	4.973800e+00	0.0	1.859553e+01	7.362490e+00	0.0	1.752613e+01	9.635070e+00	0.0	1.618034e+01	1.175571e+01	0.0	1.457937e+01	1.369094e+01	0.0	1.274848e+01	1.541027e+01	0.0	1.071654e+01	1.688656e+01	0.0	8.515590e+00	1.809654e+01	0.0	6.180340e+00	1.902113e+01	0.0	3.747630e+00	1.964575e+01	0.0	1.255810e+00	1.996053e+01	0.0	-1.255810e+00	1.996053e+01	0.0	-3.747630e+00	1.964574e+01	0.0	-6.180340e+00	1.902113e+01	0.0	-8.515590e+00	1.809654e+01	0.0	-1.071654e+01	1.688656e+01	0.0	-1.274848e+01	1.541026e+01	0.0	-1.457937e+01	1.369094e+01	0.0	-1.618034e+01	1.175570e+01	0.0	-1.752613e+01	9.635070e+00	0.0	-1.859553e+01	7.362490e+00	0.0	-1.937166e+01	4.973800e+00	0.0	-1.984229e+01	2.506660e+00	0.0	-2.000000e+01	0.000000e+00	0.0	-1.984229e+01	-2.506670e+00	0.0	-1.937166e+01	-4.973800e+00	0.0	-1.859553e+01	-7.362490e+00	0.0	-1.752613e+01	-9.635080e+00	0.0	-1.618034e+01	-1.175571e+01	0.0	-1.457937e+01	-1.369094e+01	0.0	-1.274848e+01	-1.541027e+01	0.0	-1.071653e+01	-1.688656e+01	0.0	-8.515580e+00	-1.809654e+01	0.0	-6.180340e+00	-1.902113e+01	0.0	-3.747620e+00	-1.964575e+01	0.0	-1.255810e+00	-1.996053e+01	0.0	1.255810e+00	-1.996053e+01	0.0	3.747630e+00	-1.964574e+01	0.0	6.180340e+00	-1.902113e+01	0.0	8.515590e+00	-1.809654e+01	0.0	1.071654e+01	-1.688656e+01	0.0	1.274848e+01	-1.541026e+01	0.0	1.457937e+01	-1.369094e+01	0.0	1.618034e+01	-1.175570e+01	0.0	1.752614e+01	-9.635070e+00	0.0	1.859553e+01	-7.362490e+00	0.0	1.937166e+01	-4.973790e+00	0.0	1.984229e+01	-2.506660e+00	0.0	2.000000e+01	0.000000e+00	0.0	6.073811e-02	-4.547520e-02	0.0	6.601888e-01	-6.010964e-02	0.0	4.255588e-01	6.172002e-02	0.0	6.897650e-01	4.901121e-02	0.0	3.791244e-01	-7.366820e-02	0.0	9.994676e-01	-7.276179e-04	0.0	9.985546e-01	-1.331542e-03	0.0	7.738152e-01	-4.748635e-02	0.0	6.898609e-01	-5.723709e-02	0.0	-1.137010e-03	5.541311e-03	0.0	7.467816e-01	-5.089567e-02	0.0	5.833346e-01	5.746263e-02	0.0	9.928165e-01	-3.737390e-03	0.0	9.899366e-01	-4.746320e-03	0.0	5.989103e-01	5.652282e-02	0.0	7.187658e-01	-5.415270e-02	0.0	-1.474672e-03	6.023312e-04	0.0	9.865735e-01	-5.910195e-03	0.0	9.827341e-01	-7.232411e-03	0.0	-1.312166e-03	-6.498383e-03	0.0	6.451054e-01	-6.145923e-02	0.0	8.244847e-01	-4.037739e-02	0.0	7.997445e-01	-4.397758e-02	0.0	3.484863e-01	6.064315e-02	0.0	8.479051e-01	-3.674211e-02	0.0	2.473699e-01	5.617859e-02	0.0	8.699453e-01	-3.309589e-02	0.0	1.045483e-02	1.743183e-02	0.0	8.904992e-01	-2.949492e-02	0.0	7.701878e-02	-4.985274e-02	0.0	9.094945e-01	-2.599423e-02	0.0	-1.775146e-03	-3.218564e-03	0.0	9.424859e-01	-1.920529e-02	0.0	9.268510e-01	-2.259597e-02	0.0	1.793852e-02	-2.761486e-02	0.0	4.257423e-01	-7.309974e-02	0.0	8.591068e-01	-3.491492e-02	0.0	9.563385e-01	-1.569437e-02	0.0	9.784105e-01	-8.734513e-03	0.0	9.683325e-01	-1.209824e-02	0.0	1.582653e-01	-6.369638e-02	0.0	9.001986e-01	-2.773005e-02	0.0	7.604313e-01	-4.920695e-02	0.0	9.971362e-01	-2.087572e-03	0.0	5.990500e-01	-6.512750e-02	0.0	4.414446e-01	-7.275085e-02	0.0	5.363195e-01	-6.905466e-02	0.0	4.730160e-01	-7.182115e-02	0.0	5.046766e-01	-7.058730e-02	0.0	4.888343e-01	-7.124108e-02	0.0	1.249500e-01	-5.920332e-02	0.0	2.783606e-02	-3.311138e-02	0.0	3.945700e-01	-7.356006e-02	0.0	4.621315e-02	-4.077322e-02	0.0	4.101106e-01	-7.337091e-02	0.0	3.187168e-01	-7.328146e-02	0.0	3.486142e-01	-7.364459e-02	0.0	3.350034e-02	-3.573109e-02	0.0	2.895130e-01	-7.258161e-02	0.0	9.348884e-01	-2.090759e-02	0.0	1.468062e-01	-6.228966e-02	0.0	1.946463e-01	-6.733951e-02	0.0	8.579373e-02	-5.190879e-02	0.0	1.045864e-01	-5.575035e-02	0.0	5.678222e-01	-6.723899e-02	0.0	1.700682e-01	-6.500914e-02	0.0	6.145276e-01	-6.396746e-02	0.0	8.804166e-01	-3.128708e-02	0.0	2.265940e-02	-3.040431e-02	0.0	9.952221e-01	-2.870732e-03	0.0	6.725970e-03	-1.890471e-02	0.0	1.848399e-02	2.161888e-02	0.0	9.183812e-01	-2.428568e-02	0.0	9.49643
[...]
POINT_DATA 5233

SCALARS Conservative_1 float 1
LOOKUP_TABLE default
1.199854e+00	1.181660e+00	1.171276e+00	1.164884e+00	1.160357e+00	1.155932e+00	1.149072e+00	1.138157e+00	1.121952e+00	1.100542e+00	1.075167e+00	1.048441e+00	1.024743e+00	1.008098e+00	9.996537e-01	9.975616e-01	9.986584e-01	1.000094e+00	1.000109e+00	9.981015e-01	9.942927e-01	9.892438e-01	9.835435e-01	9.776658e-01	9.718893e-01	9.663241e-01	9.609603e-01	9.557500e-01	9.506273e-01	9.455605e-01	9.405333e-01	9.355013e-01	9.304305e-01	9.253377e-01	9.202752e-01	9.152924e-01	9.104082e-01	9.056277e-01	9.009627e-01	8.964306e-01	8.920314e-01	8.877762e-01	8.836479e-01	8.796640e-01	8.758401e-01	8.722274e-01	8.688136e-01	8.655330e-01	8.622377e-01	8.589196e-01	8.557827e-01	8.531854e-01	8.512507e-01	8.496996e-01	8.478677e-01	8.449893e-01	8.405166e-01	8.345297e-01	8.278633e-01	8.218086e-01	8.173290e-01	8.146703e-01	8.135729e-01	8.135923e-01	8.144028e-01	8.157941e-01	8.177107e-01	8.200653e-01	8.227704e-01	8.257155e-01	8.289276e-01	8.325796e-01	8.369227e-01	8.420191e-01	8.477846e-01	8.540710e-01	8.609485e-01	8.686008e-01	8.770854e-01	8.864421e-01	8.967833e-01	9.081691e-01	9.207534e-01	9.346554e-01	9.500681e-01	9.672724e-01	9.864987e-01	1.008109e+00	1.032590e+00	1.060258e+00	1.091638e+00	1.127187e+00	1.166727e+00	1.209767e+00	1.254572e+00	1.298080e+00	1.331725e+00	1.350866e+00	1.339716e+00	1.308842e+00	1.285213e+00	1.222818e+00	1.102291e+00	1.005225e+00	9.289803e-01	8.726277e-01	8.339250e-01	8.082925e-01	7.909286e-01	7.790859e-01	7.710596e-01	7.656688e-01	7.623441e-01	7.603365e-01	7.592638e-01	7.591184e-01	7.597679e-01	7.609717e-01	7.624043e-01	7.637285e-01	7.649486e-01	7.663879e-01	7.683153e-01	7.705905e-01	7.728101e-01	7.747322e-01	7.764403e-01	7.780808e-01	7.797610e-01	7.815553e-01	7.835225e-01	7.856482e-01	7.878609e-01	7.900628e-01	7.922162e-01	7.943028e-01	7.963149e-01	7.982056e-01	7.999832e-01	8.018044e-01	8.040158e-01	8.069718e-01	8.108673e-01	8.155617e-01	8.205999e-01	8.253668e-01	8.294103e-01	8.327502e-01	8.357918e-01	8.391116e-01	8.430865e-01	8.478593e-01	8.533608e-01	8.594564e-01	8.659072e-01	8.724791e-01	8.790911e-01	8.858675e-01	8.930082e-01	9.005416e-01	9.083953e-01	9.164832e-01	9.247645e-01	9.332307e-01	9.418490e-01	9.506048e-01	9.594477e-01	9.683615e-01	9.772722e-01	9.861827e-01	9.950099e-01	1.003673e+00	1.012110e+00	1.020235e+00	1.028001e+00	1.035386e+00	1.042436e+00	1.049332e+00	1.056334e+00	1.063833e+00	1.072131e+00	1.081323e+00	1.091028e+00	1.100377e+00	1.108113e+00	1.112888e+00	1.113606e+00	1.109896e+00	1.102522e+00	1.093664e+00	1.086428e+00	1.083817e+00	1.087693e+00	1.097944e+00	1.112593e+00	1.129839e+00	1.148372e+00	1.168582e+00	1.192695e+00	1.181130e+00	9.999768e-01	9.999708e-01	9.999550e-01	9.999319e-01	9.999087e-01	9.998817e-01	9.998433e-01	9.997894e-01	9.997282e-01	9.996772e-01	9.996433e-01	9.996545e-01	9.997080e-01	9.998165e-01	9.999097e-01	9.999848e-01	1.000026e+00	1.000051e+00	1.000065e+00	1.000071e+00	1.000073e+00	1.000074e+00	1.000074e+00	1.000076e+00	1.000077e+00	1.000080e+00	1.000085e+00	1.000091e+00	1.000101e+00	1.000114e+00	1.000128e+00	1.000149e+00	1.000167e+00	1.000192e+00	1.000209e+00	1.000217e+00	1.000217e+00	1.000203e+00	1.000191e+00	1.000179e+00	1.000174e+00	1.000160e+00	1.000144e+00	1.000124e+00	1.000101e+00	1.000075e+00	1.000058e+00	1.000044e+00	1.000012e+00	9.999795e-01	9.426609e-01	9.013928e-01	8.268025e-01	9.241463e-01	8.409910e-01	1.183101e+00	1.173640e+00	9.402129e-01	9.106098e-01	1.218283e+00	9.302147e-01	8.733386e-01	1.151894e+00	1.145188e+00	8.799055e-01	9.202478e-01	1.308167e+00	1.136226e+00	1.123849e+00	1.337696e+00	8.969747e-01	9.603549e-01	9.501732e-01	8.063629e-01	9.709504e-01	7.927182e-01	9.820929e-01	8.799611e-01	9.927521e-01	9.153919e-01	1.000228e+00	1.344749e+00	1.005773e+00	1.002642e+00	1.099655e+00	8.521483e-01	9.764764e-01	1.025180e+00	1.107566e+00	1.065621e+00	8.469850e-01	9.970859e-01	9.352341e-01	1.164252e+00	8.844814e-01	8.535716e-01	8.700836e-01	8.572874e-01	8.634850e-01	8.601934e-01	8.666874e-01	1.041885e+00	8.463720e-01	9.760332e-01	8.499986e-01	8.194597e-01	8.279430e-01	1.017444e+00	8.176836e-01	1.003268e+00	8.529469e-01	8.336102e-01	9.036471e-01	8.832768e-01	8.768858e-01	8.417860e-01	8.885232e-01	9.876227e-01	1.069198e+00	1.157793e+00	1.209053e+00	8.240508e-01	1.001983e+00	1.012506e+00	1.087748e+00	1.135772e+00	9.655838e-01	8.217024e-01	8.734035e-01	9.251962e-01	9.451762e-01	8.745430e-01	8.270109e-01	8.805939e-01	9.059461e-01	9.584882e-01	1.248706e+00	1.133325e+00	8.344297e-01	8.374010e-01	1.211173e+00	8.241545e-01	8.929752e-01	8.179005e-01	8.197632e-01	8.551064e-01	9.153789e-01	1.280543e+00	1.318489e+00	8.545454e-01	1.324911e+00	7.948718e-01	7.733958e-01	7.803266e-01	7.739776e-01	8.216803e-01	1.140097e+00	8.493637e-01	8.382585e-01	1.097196e+00	1.106035e+00	1.052680e+00	8.413701e-01	8.313827e-01	8.122878e-01	1.083976e+00	1.067403e+00	7.715816e-01	1.092333e+00	1.106847e+00	1.099366e+00	7.724314e-01	7.718713e-01	7.989107e-01	7.948275e-01	7.820344e-01	8.026673e-01	8.351269e-01	8.166478e-01	7.791501e-01	7.755602e-01	8.933817e-01	7.849258e-01	7.885272e-01	9.082492e-01	8.667622e-01	9.577062e-01	9.406889e-01	9.920927e-01	9.749334e-01	1.024419e+00	1.008767e+00	1.059819e+00	1.038878e+00	1.104508e+00	1.075525e+00	1.102420e+00	1.031790e+00	1.045782e+00	1.000521e+00	1.016740e+00	9.663148e-01	9.835546e-01	9.323411e-01	9.491503e-01	9.006360e-01	9.161037e-01	8.604072e-01	8.865086e-01	7.866234e-01	7.905945e-01	7.806592e-01	7.834251e-01	7.761427e-01	7.774227e-01	8.475246e-01	7.863284e-01	8.301859e-01	9.837760e-01	1.043650e+00	9.552254e-01	8.227627e-01	8.668203e-01	1.055715e+00	8.070266e-01	9.246280e-01	7.720170e-01	7.713839e-01	7.968925e-01	7.729693e-01	1.090070e+00	1.092098e+00	8.008479e-01	1.099097e+00	1.110187e+00	8.044210e-01	8.088743e-01	1.092208e+00	1.206464e+00	1.157883e+00	1.174422e+00	8.926809e-01	9.955953e-01	1.124240e+00	8.449794e-01	1.286690e+00	1.170090e+00	9.283443e-01	8.595369e-01	8.183798e-01	7.837671e-01	1.200765e+00	1.260367e+00	8.232630e-01	9.158736e-01	1.002958e+00	1.199473e+00	8.746361e-01	9.112172e-01	9.451152e-01	1.133519e+00	8.256051e-01	9.758036e-01	9.652532e-01	9.110000e-01	1.317310e+00	8.353357e-01	1.132357e+00	1.041521e+00	8.589205e-01	9.206132e-01	9.022354e-01	8.577138e-01	9.229614e-01	8.473828e-01	9.961463e-01	9.500191e-01	9.581251e-01	8.553919e-01	9.162371e-01	1.021022e+00	7.814793e-01	9.240289e-01	7.867268e-01	1.042270e+00	1.100400e+00	8.093544e-01	8.516791e-01	1.099865e+00	1.049063e+00	1.108159e+00	1.101094e+00	1.094452e+00	7.958983e-01	8.074868e-01	7.939593e-01	7.813893e-01	9.066794e-01	8.390797e-01	9.152739e-01	7.844172e-01	7.930654e-01	1.098118e+00	1.118866e+00	1.055916e+00	8.528299e-01	1.215363e+00	1.145738e+00	1.131491e+00	1.010855e+00	1.135048e+00	1.234040e+00	1.331213e+00	1.315436e+00	1.101616e+00	1.217667e+00	9.504533e-01	1.163126e+00	1.148711e+00	8.284158e-01	8.749733e-01	1.123194e+00	9.865000e-01	8.811623e-01	1.141817e+00	1.332477e+00	8.562696e-01	8.233302e-01	9.704754e-01	8.018796e-01	9.811803e-01	9.915721e-01	9.360641e-01	9.999772e-01	1.005283e+00	1.017186e+00	1.047656e+00	1.027279e+00	1.058796e+00	1.110162e+00	8.732065e-01	9.353253e-01	9.402390e-01	1.155495e+00	8.595747e-01	8.621651e-01	8.652475e-01	1.073520e+00	8.517524e-01	8.545598e-01	8.296357e-01	1.003005e+00	1.007579e+00	1.011036e+00	8.657576e-01	9.000930e-01	8.783582e-01	8.896852e-01	1.077088e+00	1.094621e+00	9.254274e-01	9.303715e-01	8.902473e-01	8.813189e-01	8.819617e-01	8.857353e-01	9.838249e-01	9.663596e-01	1.165041e+00	8.352488e-01	8.415745e-01	8.476552e-01	8.431398e-01	8.319632e-01	8.289832e-01	8.227605e-01	8.234243e-01	8.265070e-01	1.298904e+00	1.267580e+00	7.994441e-01	1.095712e+00	8.564662e-01	8.476222e-01	8.441753e-01	8.409489e-01	1.095683e+00	1.100303e+00	1.077628e+00	8.374714e-01	8.332849e-01	8.186242e-01	1.070235e+00	1.096505e+00	7.855593e-01	7.885245e-01	7.978908e-01	7.998839e-01	7.855664e-01	7.833190e-01	7.822302e-01	9.895383e-01	9.564290e-01	9.481777e-01	9.813365e-01	1.013484e+00	1.062941e+00	1.035379e+00	1.028307e+00	1.005739e+00	9.977308e-01	9.730265e-01	9.647159e-01	9.400174e-01	9.319526e-01	9.086397e-01	9.012922e-01	8.681073e-01	8.619647e-01	8.943094e-01	8.876395e-01	7.921333e-01	7.905224e-01	7.891236e-01	7.879040e-01	8.817273e-01	8.081553e-01	8.198271e-01	9.550108e-01	9.601000e-01	8.684904e-01	8.716998e-01	1.071454e+00	8.351921e-01	7.818773e-01	7.826558e-01	8.057042e-01	8.038313e-01	8.147061e-01	8.116467e-01	1.091320e+00	1.084826e+00	8.937390e-01	8.979354e-01	1.024166e+00	1.297487e+00	8.245537e-01	1.311761e+00	8.536151e-01	8.286118e-01	9.505266e-01	8.771689e-01	1.007116e+00	1.107173e+00	1.101111e+00	1.096726e+00	1.082589e+00	1.115842e+00	1.160511e+00	1.181441e+00	1.153226e+00	1.200931e+00	1.103333e+00	1.283760e+00	9.187667e-01	1.010546e+00	1.131686e+00	8.765939e-01	1.172970e+00	1.220814e+00	9.216569e-01	1.276047e+00	9.263354e-01	1.130932e+00	9.859257e-01	1.190558e+00	8.323685e-01	9.807781e-01	9.170420e-01	1.139571e+00	1.160462e+00	1.095923e+00	8.591338e-01	1.093464e+00	9.171934e-01	1.125862e+00	8.546133e-01	8.050337e-01	8.125967e-01	7.919468e-01	7.986787e-01	1.171547e+00	1.293416e+00	1.185914e+00	9.097458e-01	1.241502e+00	1.055064e+00	9.308316e-01	1.312476e+00	8.651386e-01	8.623889e-01	1.077302e+00	9.833098e-01	1.018214e+00	9.877542e-01	9.247167e-01	1.097405e+00	1.095815e+00	1.052104e+00	1.045498e+00	8.107600e-01	8.069932e-01	7.993877e-01	7.903003e-01	9.080781e-01	9.125096e-01	8.447115e-01	9.433321e-01	7.910945e-01	1.095959e+00	1.136161e+00	1.030410e+00	1.135489e+00	1.249605e+00	1.315224e+00	1.052817e+00	1.186210e+00	1.178483e+00	1.070330e+00	1.122853e+00	8.830861e-01	8.608344e-01	8.302740e-01	9.703869e-01	9.755724e-01	9.909342e-01	9.956446e-01	9.584059e-01	9.440388e-01	9.999143e-01	1.003716e+00	1.029443e+00	1.041044e+00	1.112330e+00	9.408776e-01	9.457149e-01	1.146072e+00	8.646069e-01	8.675355e-01	8.572198e-01	8.593767e-01	1.030607e+00	1.014758e+00	1.020765e+00	8.800776e-01	8.722574e-01	8.804798e-01	8.839726e-01	1.085571e+00	1.099719e+00	9.311253e-01	9.360493e-01	9.077335e-01	8.975227e-01	8.883533e-01	8.876404e-01	8.914900e-01	1.010409e+00	9.915730e-01	9.741790e-01	8.368796e-01	8.426465e-01	8.485747e-01	8.591518e-01	8.538799e-01	8.491106e-01	8.407729e-01	8.372441e-01	8.284385e-01	8.295393e-01	8.342244e-01	8.175631e-01	8.506909e-01	8.471812e-01	1.096535e+00	8.437696e-01	8.398736e-01	8.352913e-01	8.253842e-01	1.072069e+00	8.032191e-01	8.093951e-01	8.030815e-01	8.012053e-01	7.905320e-01	7.903731e-01	7.902316e-01	9.559745e-01	1.065434e+00	1.058707e+00	1.038856e+00	1.032164e+00	1.025358e+00	1.010836e+00	1.003339e+00	9.956122e-01	9.799046e-01	9.719431e-01	9.639573e-01	9.480524e-01	9.401669e-01	9.323988e-01	9.098425e-01	8.700868e-01	8.643340e-01	9.027901e-01	8.960331e-01	8.895112e-01	7.977042e-01	7.961694e-01	7.948897e-01	7.937926e-01	7.928602e-01	8.284225e-01	8.425260e-01	9.553876e-01	9.603553e-01	9.653195e-01	8.707080e-01	8.739123e-01	8.603345e-01	8.823105e-01	7.912382e-01	7.931154e-01	7.955103e-01	8.089250e-01	8.210904e-01	8.175884e-01	8.147635e-01	1.089630e+00	1.084544e+00	1.078575e+00	8.954559e-01	8.995502e-01	9.037520e-01	8.316946e-01	8.298054e-01	1.290123e+00	9.267006e-01	1.129284e+00	1.097613e+00	8.825508e-01	1.262437e+00	1.159518e+00	1.012893e+00	1.017846e+00	1.056647e+00	1.112594e+00	8.583589e-01	1.271400e+00	9.670393e-01	1.206301e+00	1.092536e+00	1.120541e+00	1.172943e+00	9.181538e-01	1.131665e+00	1.185407e+00	1.188075e+00	9.558812e-01	8.726165e-01	1.103602e+00	8.600413e-01	9.388831e-01	8.659549e-01	8.352161e-01	1.100942e+00	8.786905e-01	1.090494e+00	1.087495e+00	9.867239e-01	7.983106e-01	8.087950e-01	1.122219e+00	8.178293e-01	9.861718e-01	1.146636e+00	1.105897e+00	1.144133e+00	1.078651e+00	1.128005e+00	9.228046e-01	1.231604e+00	9.279281e-01	9.320287e-01	1.154142e+00	1.130047e+00	1.180542e+00	1.015610e+00	8.615479e-01	8.145272e-01	1.220146e+00	1.003515e+00	9.261799e-01	1.048768e+00	8.164310e-01	8.126470e-01	8.106812e-01	9.138656e-01	9.188757e-01	1.095678e+00	1.043708e+00	1.087718e+00	1.254807e+00	1.297014e+00	1.079415e+00	1.065676e+00	1.113187e+00	8.860168e-01	9.760327e-01	9.810354e-01	9.910649e-01	9.958199e-01	9.661358e-01	9.519625e-01	1.000261e+00	1.004547e+00	1.008697e+00	1.041381e+00	1.053012e+00	9.462692e-01	9.515104e-01	1.137327e+00	8.678154e-01	8.704609e-01	8.627871e-01	8.645169e-01	1.023803e+00	1.031502e+00	8.877246e-01	8.792641e-01	8.866231e-01	1.091154e+00	1.102824e+00	9.371640e-01	9.424516e-01	9.154902e-01	9.053521e-01	8.963892e-01	8.895804e-01	8.939551e-01	1.036470e+00	1.016933e+00	9.983088e-01	9.813792e-01	8.402574e-01	8.449845e-01	8.504267e-01	8.556394e-01	8.666631e-01	8.611588e-01	8.559962e-01	8.513709e-01	8.472289e-01	8.370159e-01	8.353664e-01	8.436312e-01	8.541553e-01	1.094623e+00	1.093766e+00	8.505653e-01	8.468153e-01	8.425303e-01	8.377538e-01	8.328531e-01	8.261464e-01	8.366425e-01	8.069497e-01	8.053094e-01	7.981250e-01	7.984631e-01	7.992660e-01	8.000637e-01	1.067320e+00	1.061226e+00	1.055069e+00	1.042429e+00	1.036116e+00	1.029781e+00	1.022334e+00	1.009387e+00	1.001351e+00	9.939412e-01	9.787833e-01	9.715543e-01	9.634197e-01	9.562742e-01	9.480539e-01	9.410797e-01	9.329066e-01	8.673088e-01	8.719549e-01	9.117932e-01	9.041478e-01	8.983002e-01	8.911215e-01	8.037205e-01	8.023591e-01	8.010331e-01	8.000142e-01	7.991178e-01	7.985297e-01	8.490072e-01	8.647630e-01	9.611036e-01	9.662819e-01	9.710505e-01	8.736081e-01	8.759196e-01	8.798158e-01	8.844757e-01	9.076959e-01	9.347683e-01	8.012342e-01	8.036162e-01	8.075286e-01	8.120989e-01	8.282942e-01	8.244239e-01	8.212295e-01	8.184581e-01	1.073199e+00	1.083465e+00	1.078717e+00	8.971990e-01	9.018153e-01	9.053073e-01	9.101356e-01	8.405085e-01	8.379985e-01	8.361508e-01	1.147831e+00	1.125277e+00	1.073696e+00	1.177453e+00	1.171136e+00	9.358299e-01	9.350122e-01	1.193455e+00	1.096490e+00	1.235463e+00	1.080509e+00	8.814339e-01	8.061785e-01	1.019632e+00	1.128064e+00	1.235548e+00	1.292710e+00	1.294729e+00	1.281942e+00	1.250995e+00	1.138796e+00	8.207386e-01	1.084591e+00	1.121608e+00	1.026338e+00	9.590855e-01	8.663905e-01	1.115858e+00	1.068885e+00	1.082182e+00	8.774882e-01	8.680403e-01	9.234824e-01	9.818710e-01	8.621936e-01	8.869570e-01	8.219864e-01	1.109603e+00	9.471381e-01	1.165171e+00	1.099749e+00	1.292909e+00	1.182411e+00	1.173266e+00	1.019476e+00	1.060562e+00	1.266972e+00	9.867296e-01	1.215187e+00	1.088148e+00	1.162832e+00	1.177072e+00	1.178087e+00	1.125145e+00	8.419647e-01	8.425559e-01	1.104054e+00	8.880605e-01	1.085540e+00	1.113552e+00	9.269813e-01	1.200871e+00	8.180750e-01	8.168497e-01	8.142391e-01	9.181822e-01	1.054246e+00	1.090950e+00	1.275565e+00	1.103259e+00	9.821466e-01	9.862778e-01	9.916799e-01	9.961243e-01	9.600008e-01	9.743273e-01	1.001276e+00	1.005286e+00	1.010255e+00	1.015350e+00	1.051952e+00	1.062661e+00	9.502854e-01	1.128649e+00	8.709224e-01	8.737387e-01	8.678088e-01	8.700108e-01	1.033808e+00	1.042058e+00	8.951450e-01	8.860688e-01	1.095079e+00	1.104794e+00	9.438288e-01	9.234607e-01	9.125732e-01	9.058929e-01	8.941255e-01	1.041551e+00	1.022852e+00	1.004951e+00	9.893727e-01	8.449471e-01	8.474914e-01	8.527688e-01	8.571512e-01	8.623623e-01	8.736976e-01	8.693202e-01	8.623233e-01	8.588661e-01	8.532294e-01	1.094066e+00	1.092155e+00	1.090299e+00	8.572896e-01	8.542068e-01	8.493560e-01	8.453992e-01	8.398790e-01	8.437365e-01	8.560807e-01	8.132495e-01	8.109013e-01	8.055936e-01	8.084439e-01	8.104886e-01	1.063008e+00	1.057598e+00	1.051540e+00	1.045728e+00	1.039529e+00	1.033608e+00	1.026789e+00	1.016928e+00	1.007553e+00	9.959038e-01	9.672504e-01	9.525218e-01	9.378887e-01	9.096326e-01	8.973187e-01	8.103167e-01	8.082253e-01	8.080150e-01	8.060852e-01	8.064565e-01	8.057345e-01	8.057313e-01	8.705471e-01	8.869218e-01	9.672801e-01	9.717702e-01	9.768351e-01	8.768004e-01	8.806165e-01	9.070547e-01	9.311202e-01	9.572438e-01	8.125456e-01	8.156336e-01	8.206411e-01	8.278180e-01	8.350888e-01	8.359722e-01	8.310415e-01	8.285959e-01	8.251342e-01	1.078412e+00	1.073176e+00	9.017213e-01	9.097423e-01	8.507466e-01	8.463254e-01	8.450074e-01	8.421511e-01	1.166133e+00	1.154326e+00	1.181105e+00	1.255454e+00	1.180694e+00	1.088631e+00	1.106511e+00	1.184053e+00	1.086494e+00	1.141107e+00	1.105992e+00	1.255604e+00	1.081337e+00	1.161420e+00	8.274119e-01	1.177726e+00	1.061779e+00	1.153062e+00	1.141224e+00	1.079421e+00	8.882939e-01	1.101681e+00	8.492101e-01	1.035005e+00	1.024586e+00	9.100339e-01	9.430422e-01	8.853196e-01	1.231376e+00	8.724529e-01	9.690974e-01	9.561947e-01	8.158821e-01	1.094250e+00	1.066263e+00	1.213467e+00	1.031804e+00	1.070029e+00	1.170713e+00	1.097563e+00	1.291722e+00	1.245207e+00	1.113800e+00	9.436265e-01	8.711184e-01	8.629686e-01	1.112083e+00	1.173874e+00	1.129468e+00	1.275577e+00	1.176759e+00	1.063684e+00	1.217067e+00	1.199835e+00	8.882910e-01	1.101165e+00	1.084065e+00	1.080485e+00	8.787523e-01	8.233344e-01	8.196510e-01	9.353281e-01	1.092650e+00	1.123546e+00	1.121898e+00	9.897536e-01	9.991579e-01	9.820058e-01	1.008771e+00	1.017264e+00	1.060560e+00	1.121055e+00	8.757000e-01	1.043239e+00	1.051408e+00	8.984261e-01	1.097495e+00	9.508624e-01	9.582726e-01	9.268237e-01	9.133806e-01	8.948973e-01	1.045986e+00	1.027329e+00	1.010464e+00	9.988559e-01	8.532752e-01	8.612566e-01	8.687891e-01	8.729656e-01	8.627115e-01	1.091487e+00	1.089022e+00	8.543953e-01	8.450925e-01	8.758091e-01	8.167586e-01	8.212665e-01	1.003652e+00	1.056342e+00	1.045154e+00	1.033654e+00	1.023101e+00	1.013739e+00	9.913525e-01	9.777224e-01	9.636848e-01	9.495983e-01	9.355076e-01	9.216767e-01	9.091055e-01	8.984381e-01	8.146848e-01	8.133656e-01	8.135824e-01	8.123259e-01	8.144442e-01	8.921974e-01	9.092217e-01	9.667952e-01	9.749011e-01	9.828628e-01	8.796149e-01	8.833052e-01	9.285245e-01	9.517413e-01	9.769861e-01	1.003171e+00	8.251777e-01	8.288855e-01	8.345806e-01	8.432378e-01	8.542785e-01	8.604060e-01	8.370410e-01	8.323386e-01	1.077972e+00	1.073487e+00	9.022806e-01	9.181542e-01	9.266535e-01	8.549584e-01	8.501252e-01	1.117343e+00	1.166060e+00	1.161229e+00	1.136203e+00	1.024763e+00	1.108339e+00	1.173801e+00	1.135680e+00	1.185644e+00	1.135028e+00	1.147662e+00	1.126834e+00	1.093188e+00	1.194154e+00	1.235894e+00	1.088410e+00	9.511073e-01	8.354114e-01	1.124994e+00	1.016891e+00	1.099132e+00	8.874763e-01	1.067343e+00	1.169546e+00	8.755598e-01	1.043451e+00	9.184457e-01	8.961288e-01	1.083535e+00	1.091469e+00	1.081781e+00	1.066536e+00	1.171378e+00	1.098724e+00	1.103051e+00	1.082921e+00	8.270725e-01	8.991081e-01	9.350644e-01	9.888654e-01	1.150474e+00	1.157224e+00	1.272386e+00	1.075349e+00	1.085519e+00	1.175652e+00	1.099228e+00	1.169631e+00	1.152181e+00	8.903751e-01	1.225118e+00	9.790552e-01	9.636945e-01	1.094852e+00	1.234078e+00	1.067175e+00	1.106604e+00	9.434012e-01	1.254635e+00	1.176136e+00	1.004455e+00	1.213254e+00	1.200253e+00	8.807439e-01	1.117364e+00	1.079466e+00	8.892964e-01	8.309018e-01	9.095532e-01	1.118994e+00	1.144066e+00	9.977090e-01	1.007299e+00	1.025199e+00	1.034147e+00	1.114317e+00	8.790936e-01	1.051157e+00	1.058940e+00	8.698196e-01	9.744590e-01	9.824191e-01	9.583764e-01	9.490022e-01	9.336897e-01	9.188628e-01	1.048487e+00	8.577450e-01	8.626798e-01	9.044511e-01	8.905652e-01	9.266288e-01	1.091472e+00	8.727524e-01	8.643306e-01	8.320538e-01	1.059714e+00	1.049811e+00	1.010219e+00	1.039186e+00	1.028918e+00	1.019525e+00	9.995678e-01	9.872732e-01	9.741109e-01	9.606852e-01	9.471337e-01	9.335829e-01	9.208262e-01	8.241061e-01	8.222472e-01	8.213483e-01	8.213902e-01	8.216193e-01	8.261093e-01	9.123871e-01	9.307618e-01	9.661720e-01	9.896669e-01	8.822126e-01	8.858811e-01	9.488439e-01	9.698572e-01	9.934794e-01	1.017048e+00	1.041660e+00	8.392616e-01	8.451915e-01	8.506708e-01	8.590429e-01	8.713247e-01	8.553589e-01	8.469703e-01	8.405354e-01	1.074712e+00	1.068007e+00	9.030513e-01	9.105908e-01	8.781528e-01	8.681443e-01	8.609742e-01	8.572048e-01	1.152294e+00	1.153040e+00	1.149750e+00	1.121074e+00	1.156612e+00	1.140328e+00	1.114169e+00	1.050395e+00	1.172813e+00	1.120735e+00	1.117975e+00	1.071703e+00	1.165988e+00	1.084838e+00	8.318629e-01	1.137659e+00	1.141649e+00	1.128165e+00	1.169438e+00	1.071525e+00	9.250476e-01	1.026421e+00	1.024754e+00	9.590348e-01	1.132868e+00	1.131956e+00	1.128145e+00	1.171866e+00	1.172244e+00	9.005905e-01	9.