# vtk DataFile Version 3.0
vtk output
ASCII
DATASET UNSTRUCTURED_GRID
POINTS 200 float
9.997500e-01	-3.633245e-05	0.0	9.990000e-01	-1.454738e-04	0.0	9.977600e-01	-3.275233e-04	0.0	9.960200e-01	-5.900134e-04	0.0	9.937800e-01	-9.474073e-04	0.0	9.910500e-01	-1.422963e-03	0.0	9.878400e-01	-2.047497e-03	0.0	9.841300e-01	-2.857583e-03	0.0	9.799500e-01	-3.865702e-03	0.0	9.752800e-01	-5.069059e-03	0.0	9.701500e-01	-6.420655e-03	0.0	9.645400e-01	-7.861718e-03	0.0	9.584700e-01	-9.316518e-03	0.0	9.519400e-01	-1.072938e-02	0.0	9.449600e-01	-1.207217e-02	0.0	9.375400e-01	-1.334926e-02	0.0	9.296900e-01	-1.458804e-02	0.0	9.214000e-01	-1.582691e-02	0.0	9.127000e-01	-1.709319e-02	0.0	9.035800e-01	-1.840796e-02	0.0	8.940600e-01	-1.977482e-02	0.0	8.841500e-01	-2.118910e-02	0.0	8.738500e-01	-2.264254e-02	0.0	8.631800e-01	-2.412299e-02	0.0	8.521600e-01	-2.561976e-02	0.0	8.407700e-01	-2.712972e-02	0.0	8.290500e-01	-2.864362e-02	0.0	8.170100e-01	-3.015764e-02	0.0	8.046400e-01	-3.167097e-02	0.0	7.919700e-01	-3.317797e-02	0.0	7.790100e-01	-3.467539e-02	0.0	7.657800e-01	-3.615860e-02	0.0	7.522800e-01	-3.762503e-02	0.0	7.385200e-01	-3.907084e-02	0.0	7.245300e-01	-4.049013e-02	0.0	7.103200e-01	-4.187928e-02	0.0	6.958900e-01	-4.323571e-02	0.0	6.812700e-01	-4.455422e-02	0.0	6.664700e-01	-4.583182e-02	0.0	6.515000e-01	-4.706573e-02	0.0	6.363800e-01	-4.825265e-02	0.0	6.211300e-01	-4.938969e-02	0.0	6.057600e-01	-5.047501e-02	0.0	5.902800e-01	-5.150701e-02	0.0	5.747100e-01	-5.248366e-02	0.0	5.590600e-01	-5.340385e-02	0.0	5.433600e-01	-5.426552e-02	0.0	5.276100e-01	-5.506853e-02	0.0	5.118400e-01	-5.581129e-02	0.0	4.960500e-01	-5.649379e-02	0.0	4.802700e-01	-5.711474e-02	0.0	4.645100e-01	-5.767380e-02	0.0	4.487800e-01	-5.817056e-02	0.0	4.331100e-01	-5.860398e-02	0.0	4.175000e-01	-5.897390e-02	0.0	4.019700e-01	-5.927945e-02	0.0	3.865400e-01	-5.951979e-02	0.0	3.712300e-01	-5.969406e-02	0.0	3.560400e-01	-5.980150e-02	0.0	3.409900e-01	-5.984098e-02	0.0	3.261100e-01	-5.981140e-02	0.0	3.114000e-01	-5.971161e-02	0.0	2.968700e-01	-5.954026e-02	0.0	2.825500e-01	-5.929623e-02	0.0	2.684500e-01	-5.897821e-02	0.0	2.545700e-01	-5.858450e-02	0.0	2.409400e-01	-5.811419e-02	0.0	2.275700e-01	-5.756596e-02	0.0	2.144700e-01	-5.693847e-02	0.0	2.016600e-01	-5.623096e-02	0.0	1.891400e-01	-5.544169e-02	0.0	1.769300e-01	-5.457017e-02	0.0	1.650400e-01	-5.361548e-02	0.0	1.534900e-01	-5.257775e-02	0.0	1.422900e-01	-5.145661e-02	0.0	1.314400e-01	-5.025071e-02	0.0	1.209500e-01	-4.895970e-02	0.0	1.108500e-01	-4.758627e-02	0.0	1.011300e-01	-4.612814e-02	0.0	9.181000e-02	-4.458732e-02	0.0	8.290000e-02	-4.296482e-02	0.0	7.440000e-02	-4.125992e-02	0.0	6.633000e-02	-3.947604e-02	0.0	5.869000e-02	-3.761279e-02	0.0	5.149000e-02	-3.567210e-02	0.0	4.474000e-02	-3.365642e-02	0.0	3.844000e-02	-3.156536e-02	0.0	3.260000e-02	-2.940171e-02	0.0	2.723000e-02	-2.716911e-02	0.0	2.232000e-02	-2.486247e-02	0.0	1.790000e-02	-2.249584e-02	0.0	1.395000e-02	-2.005836e-02	0.0	1.049000e-02	-1.756141e-02	0.0	7.520000e-03	-1.500600e-02	0.0	5.040000e-03	-1.239251e-02	0.0	3.050000e-03	-9.719673e-03	0.0	1.560000e-03	-7.003302e-03	0.0	5.600000e-04	-4.222946e-03	0.0	6.000000e-05	-1.387752e-03	0.0	0.000000e+00	0.000000e+00	0.0	6.000000e-05	1.267549e-03	0.0	5.600000e-04	3.641642e-03	0.0	1.560000e-03	5.820031e-03	0.0	3.050000e-03	7.852730e-03	0.0	5.040000e-03	9.784133e-03	0.0	7.520000e-03	1.162153e-02	0.0	1.049000e-02	1.337970e-02	0.0	1.395000e-02	1.506908e-02	0.0	1.790000e-02	1.669755e-02	0.0	2.232000e-02	1.826470e-02	0.0	2.723000e-02	1.978377e-02	0.0	3.260000e-02	2.125067e-02	0.0	3.844000e-02	2.267318e-02	0.0	4.474000e-02	2.405276e-02	0.0	5.149000e-02	2.539088e-02	0.0	5.869000e-02	2.669063e-02	0.0	6.633000e-02	2.795285e-02	0.0	7.440000e-02	2.917828e-02	0.0	8.290000e-02	3.036891e-02	0.0	9.181000e-02	3.152371e-02	0.0	1.011300e-01	3.264426e-02	0.0	1.108500e-01	3.373058e-02	0.0	1.209500e-01	3.478160e-02	0.0	1.314400e-01	3.579920e-02	0.0	1.422900e-01	3.678115e-02	0.0	1.534900e-01	3.772720e-02	0.0	1.650400e-01	3.863773e-02	0.0	1.769300e-01	3.951207e-02	0.0	1.891400e-01	4.034877e-02	0.0	2.016600e-01	4.114704e-02	0.0	2.144700e-01	4.190539e-02	0.0	2.275700e-01	4.262339e-02	0.0	2.409400e-01	4.329935e-02	0.0	2.545700e-01	4.393200e-02	0.0	2.684500e-01	4.451994e-02	0.0	2.825500e-01	4.506087e-02	0.0	2.968700e-01	4.555361e-02	0.0	3.114000e-01	4.599637e-02	0.0	3.261100e-01	4.638673e-02	0.0	3.409900e-01	4.672280e-02	0.0	3.560400e-01	4.700273e-02	0.0	3.712300e-01	4.722398e-02	0.0	3.865400e-01	4.738429e-02	0.0	4.019700e-01	4.748151e-02	0.0	4.175000e-01	4.751325e-02	0.0	4.331100e-01	4.747721e-02	0.0	4.487800e-01	4.737118e-02	0.0	4.645100e-01	4.719289e-02	0.0	4.802700e-01	4.694040e-02	0.0	4.960500e-01	4.661176e-02	0.0	5.118400e-01	4.620509e-02	0.0	5.276100e-01	4.571931e-02	0.0	5.433600e-01	4.515279e-02	0.0	5.590600e-01	4.450521e-02	0.0	5.747100e-01	4.377550e-02	0.0	5.902800e-01	4.296434e-02	0.0	6.057600e-01	4.207203e-02	0.0	6.211300e-01	4.109999e-02	0.0	6.363800e-01	4.004962e-02	0.0	6.515000e-01	3.892289e-02	0.0	6.664700e-01	3.772315e-02	0.0	6.812700e-01	3.645460e-02	0.0	6.958900e-01	3.512139e-02	0.0	7.103200e-01	3.372830e-02	0.0	7.245300e-01	3.228287e-02	0.0	7.385200e-01	3.079041e-02	0.0	7.522800e-01	2.925782e-02	0.0	7.657800e-01	2.769498e-02	0.0	7.790100e-01	2.611022e-02	0.0	7.919700e-01	2.451115e-02	0.0	8.046400e-01	2.290828e-02	0.0	8.170100e-01	2.131123e-02	0.0	8.290500e-01	1.973232e-02	0.0	8.407700e-01	1.817836e-02	0.0	8.521600e-01	1.665778e-02	0.0	8.631800e-01	1.518141e-02	0.0	8.738500e-01	1.374972e-02	0.0	8.841500e-01	1.236588e-02	0.0	8.940600e-01	1.103103e-02	0.0	9.035800e-01	9.743409e-03	0.0	9.127000e-01	8.505666e-03	0.0	9.214000e-01	7.328737e-03	0.0	9.296900e-01	6.229264e-03	0.0	9.375400e-01	5.238358e-03	0.0	9.449600e-01	4.385368e-03	0.0	9.519400e-01	3.695360e-03	0.0	9.584700e-01	3.174452e-03	0.0	9.645400e-01	2.802254e-03	0.0	9.701500e-01	2.533508e-03	0.0	9.752800e-01	2.311910e-03	0.0	9.799500e-01	2.084826e-03	0.0	9.841300e-01	1.822284e-03	0.0	9.878400e-01	1.517491e-03	0.0	9.910500e-01	1.189144e-03	0.0	9.937800e-01	8.626397e-04	0.0	9.960200e-01	5.665207e-04	0.0	9.977600e-01	3.231687e-04	0.0	9.990000e-01	1.450765e-04	0.0	9.997500e-01	3.632616e-05	0.0	1.000000e+00	0.000000e+00	0.0	
CELLS 200	600
2	199	0	2	0	1	2	1	2	2	2	3	2	3	4	2	4	5	2	5	6	2	6	7	2	7	8	2	8	9	2	9	10	2	10	11	2	11	12	2	12	13	2	13	14	2	14	15	2	15	16	2	16	17	2	17	18	2	18	19	2	19	20	2	20	21	2	21	22	2	22	23	2	23	24	2	24	25	2	25	26	2	26	27	2	27	28	2	28	29	2	29	30	2	30	31	2	31	32	2	32	33	2	33	34	2	34	35	2	35	36	2	36	37	2	37	38	2	38	39	2	39	40	2	40	41	2	41	42	2	42	43	2	43	44	2	44	45	2	45	46	2	46	47	2	47	48	2	48	49	2	49	50	2	50	51	2	51	52	2	52	53	2	53	54	2	54	55	2	55	56	2	56	57	2	57	58	2	58	59	2	59	60	2	60	61	2	61	62	2	62	63	2	63	64	2	64	65	2	65	66	2	66	67	2	67	68	2	68	69	2	69	70	2	70	71	2	71	72	2	72	73	2	73	74	2	74	75	2	75	76	2	76	77	2	77	78	2	78	79	2	79	80	2	80	81	2	81	82	2	82	83	2	83	84	2	84	85	2	85	86	2	86	87	2	87	88	2	88	89	2	89	90	2	90	91	2	91	92	2	92	93	2	93	94	2	94	95	2	95	96	2	96	97	2	97	98	2	98	99	2	99	100	2	100	101	2	101	102	2	102	103	2	103	104	2	104	105	2	105	106	2	106	107	2	107	108	2	108	109	2	109	110	2	110	111	2	111	112	2	112	113	2	113	114	2	114	115	2	115	116	2	116	117	2	117	118	2	118	119	2	119	120	2	120	121	2	121	122	2	122	123	2	123	124	2	124	125	2	125	126	2	126	127	2	127	128	2	128	129	2	129	130	2	130	131	2	131	132	2	132	133	2	133	134	2	134	135	2	135	136	2	136	137	2	137	138	2	138	139	2	139	140	2	140	141	2	141	142	2	142	143	2	143	144	2	144	145	2	145	146	2	146	147	2	147	148	2	148	149	2	149	150	2	150	151	2	151	152	2	152	153	2	153	154	2	154	155	2	155	156	2	156	157	2	157	158	2	158	159	2	159	160	2	160	161	2	161	162	2	162	163	2	163	164	2	164	165	2	165	166	2	166	167	2	167	168	2	168	169	2	169	170	2	170	171	2	171	172	2	172	173	2	173	174	2	174	175	2	175	176	2	176	177	2	177	178	2	178	179	2	179	180	2	180	181	2	181	182	2	182	183	2	183	184	2	184	185	2	185	186	2	186	187	2	187	188	2	188	189	2	189	190	2	190	191	2	191	192	2	192	193	2	193	194	2	194	195	2	195	196	2	196	197	2	197	198	2	198	199	
CELL_TYPES 200
3	3	3	3	3	3	3	3	3	3	3	3	3	3	3	3	3	3	3	3	3	3	3	3	3	3	3	3	3	3	3	3	3	3	3	3	3	3	3	3	3	3	3	3	3	3	3	3	3	3	3	3	3	3	3	3	3	3	3	3	3	3	3	3	3	3	3	3	3	3	3	3	3	3	3	3	3	3	3	3	3	3	3	3	3	3	3	3	3	3	3	3	3	3	3	3	3	3	3	3	3	3	3	3	3	3	3	3	3	3	3	3	3	3	3	3	3	3	3	3	3	3	3	3	3	3	3	3	3	3	3	3	3	3	3	3	3	3	3	3	3	3	3	3	3	3	3	3	3	3	3	3	3	3	3	3	3	3	3	3	3	3	3	3	3	3	3	3	3	3	3	3	3	3	3	3	3	3	3	3	3	3	3	3	3	3	3	3	3	3	3	3	3	3	3	3	3	3	3	3	
POINT_DATA 200

SCALARS Conservative_1 float 1
LOOKUP_TABLE default
1.199854e+00	1.181660e+00	1.171276e+00	1.164884e+00	1.160357e+00	1.155932e+00	1.149072e+00	1.138157e+00	1.121952e+00	1.100542e+00	1.075167e+00	1.048441e+00	1.024743e+00	1.008098e+00	9.996537e-01	9.975616e-01	9.986584e-01	1.000094e+00	1.000109e+00	9.981015e-01	9.942927e-01	9.892438e-01	9.835435e-01	9.776658e-01	9.718893e-01	9.663241e-01	9.609603e-01	9.557500e-01	9.506273e-01	9.455605e-01	9.405333e-01	9.355013e-01	9.304305e-01	9.253377e-01	9.202752e-01	9.152924e-01	9.104082e-01	9.056277e-01	9.009627e-01	8.964306e-01	8.920314e-01	8.877762e-01	8.836479e-01	8.796640e-01	8.758401e-01	8.722274e-01	8.688136e-01	8.655330e-01	8.622377e-01	8.589196e-01	8.557827e-01	8.531854e-01	8.512507e-01	8.496996e-01	8.478677e-01	8.449893e-01	8.405166e-01	8.345297e-01	8.278633e-01	8.218086e-01	8.173290e-01	8.146703e-01	8.135729e-01	8.135923e-01	8.144028e-01	8.157941e-01	8.177107e-01	8.200653e-01	8.227704e-01	8.257155e-01	8.289276e-01	8.325796e-01	8.369227e-01	8.420191e-01	8.477846e-01	8.540710e-01	8.609485e-01	8.686008e-01	8.770854e-01	8.864421e-01	8.967833e-01	9.081691e-01	9.207534e-01	9.346554e-01	9.500681e-01	9.672724e-01	9.864987e-01	1.008109e+00	1.032590e+00	1.060258e+00	1.091638e+00	1.127187e+00	1.166727e+00	1.209767e+00	1.254572e+00	1.298080e+00	1.331725e+00	1.350866e+00	1.339716e+00	1.308842e+00	1.285213e+00	1.222818e+00	1.102291e+00	1.005225e+00	9.289803e-01	8.726277e-01	8.339250e-01	8.082925e-01	7.909286e-01	7.790859e-01	7.710596e-01	7.656688e-01	7.623441e-01	7.603365e-01	7.592638e-01	7.591184e-01	7.597679e-01	7.609717e-01	7.624043e-01	7.637285e-01	7.649486e-01	7.663879e-01	7.683153e-01	7.705905e-01	7.728101e-01	7.747322e-01	7.764403e-01	7.780808e-01	7.797610e-01	7.815553e-01	7.835225e-01	7.856482e-01	7.878609e-01	7.900628e-01	7.922162e-01	7.943028e-01	7.963149e-01	7.982056e-01	7.999832e-01	8.018044e-01	8.040158e-01	8.069718e-01	8.108673e-01	8.155617e-01	8.205999e-01	8.253668e-01	8.294103e-01	8.327502e-01	8.357918e-01	8.391116e-01	8.430865e-01	8.478593e-01	8.533608e-01	8.594564e-01	8.659072e-01	8.724791e-01	8.790911e-01	8.858675e-01	8.930082e-01	9.005416e-01	9.083953e-01	9.164832e-01	9.247645e-01	9.332307e-01	9.418490e-01	9.506048e-01	9.594477e-01	9.683615e-01	9.772722e-01	9.861827e-01	9.950099e-01	1.003673e+00	1.012110e+00	1.020235e+00	1.028001e+00	1.035386e+00	1.042436e+00	1.049332e+00	1.056334e+00	1.063833e+00	1.072131e+00	1.081323e+00	1.091028e+00	1.100377e+00	1.108113e+00	1.112888e+00	1.113606e+00	1.109896e+00	1.102522e+00	1.093664e+00	1.086428e+00	1.083817e+00	1.087693e+00	1.097944e+00	1.112593e+00	1.129839e+00	1.148372e+00	1.168582e+00	1.192695e+00	1.181130e+00	
SCALARS Conservative_2 float 1
LOOKUP_TABLE default
7.195049e-01	7.458333e-01	7.638659e-01	7.746078e-01	7.804271e-01	7.851338e-01	7.908883e-01	8.005277e-01	8.155476e-01	8.360045e-01	8.601792e-01	8.847308e-01	9.059929e-01	9.215672e-01	9.308577e-01	9.348595e-01	9.356347e-01	9.352865e-01	9.352802e-01	9.362299e-01	9.381891e-01	9.408555e-01	9.438521e-01	9.468878e-01	9.497762e-01	9.524521e-01	9.549113e-01	9.571967e-01	9.593188e-01	9.613104e-01	9.632067e-01	9.649996e-01	9.667040e-01	9.683168e-01	9.698256e-01	9.712181e-01	9.725088e-01	9.736790e-01	9.747386e-01	9.757032e-01	9.765537e-01	9.773253e-01	9.779914e-01	9.785895e-01	9.790870e-01	9.795252e-01	9.798818e-01	9.802090e-01	9.804748e-01	9.807183e-01	9.808808e-01	9.809894e-01	9.810288e-01	9.810545e-01	9.810855e-01	9.811571e-01	9.812017e-01	9.811386e-01	9.808272e-01	9.803271e-01	9.798055e-01	9.793710e-01	9.791034e-01	9.789391e-01	9.788788e-01	9.788301e-01	9.788156e-01	9.787632e-01	9.786866e-01	9.785181e-01	9.782723e-01	9.778963e-01	9.773938e-01	9.766847e-01	9.757564e-01	9.744676e-01	9.728383e-01	9.707744e-01	9.680424e-01	9.644885e-01	9.600208e-01	9.543445e-01	9.471943e-01	9.381482e-01	9.266852e-01	9.120707e-01	8.933627e-01	8.694756e-01	8.388249e-01	7.992478e-01	7.482508e-01	6.827940e-01	5.992466e-01	4.954876e-01	3.716792e-01	2.357156e-01	1.070804e-01	1.097975e-02	-2.128889e-02	5.240049e-03	7.231794e-02	2.084500e-01	4.103228e-01	5.871275e-01	7.128808e-01	7.952281e-01	8.474175e-01	8.807202e-01	9.022231e-01	9.166816e-01	9.267809e-01	9.339670e-01	9.394346e-01	9.436987e-01	9.471115e-01	9.500359e-01	9.525369e-01	9.547008e-01	9.566249e-01	9.582840e-01	9.597620e-01	9.611760e-01	9.625456e-01	9.637826e-01	9.648884e-01	9.658570e-01	9.667446e-01	9.675572e-01	9.683394e-01	9.690879e-01	9.698364e-01	9.705638e-01	9.712740e-01	9.719355e-01	9.725632e-01	9.731414e-01	9.736831e-01	9.741774e-01	9.746451e-01	9.751122e-01	9.756543e-01	9.762582e-01	9.769179e-01	9.775565e-01	9.780912e-01	9.784818e-01	9.787478e-01	9.789745e-01	9.791527e-01	9.793292e-01	9.794600e-01	9.795235e-01	9.794550e-01	9.792392e-01	9.788328e-01	9.782398e-01	9.774964e-01	9.765394e-01	9.753592e-01	9.738983e-01	9.721570e-01	9.701133e-01	9.677696e-01	9.651104e-01	9.621294e-01	9.588222e-01	9.551864e-01	9.512625e-01	9.469839e-01	9.424618e-01	9.377029e-01	9.327252e-01	9.276452e-01	9.225183e-01	9.173995e-01	9.123159e-01	9.072114e-01	9.019626e-01	8.962747e-01	8.898487e-01	8.823455e-01	8.737570e-01	8.645108e-01	8.556978e-01	8.488698e-01	8.456056e-01	8.469244e-01	8.527326e-01	8.615618e-01	8.707260e-01	8.768884e-01	8.773801e-01	8.708832e-01	8.581399e-01	8.398994e-01	8.177284e-01	7.913561e-01	7.597535e-01	7.213763e-01	6.623457e-01	
SCALARS Conservative_3 float 1
LOOKUP_TABLE default
1.010168e-01	1.066587e-01	1.128598e-01	1.197786e-01	1.302395e-01	1.449331e-01	1.635103e-01	1.840490e-01	2.033878e-01	2.175857e-01	2.234411e-01	2.193636e-01	2.063118e-01	1.880918e-01	1.694530e-01	1.540843e-01	1.436347e-01	1.378646e-01	1.354173e-01	1.346540e-01	1.342741e-01	1.335121e-01	1.320832e-01	1.300165e-01	1.274820e-01	1.246809e-01	1.217471e-01	1.187698e-01	1.157745e-01	1.127479e-01	1.096783e-01	1.065447e-01	1.033354e-01	1.000428e-01	9.665258e-02	9.317987e-02	8.962120e-02	8.599531e-02	8.230876e-02	7.857385e-02	7.480398e-02	7.100653e-02	6.720013e-02	6.338663e-02	5.957359e-02	5.575282e-02	5.192833e-02	4.811272e-02	4.432953e-02	4.058324e-02	3.683798e-02	3.303727e-02	2.915843e-02	2.518663e-02	2.115029e-02	1.709213e-02	1.306040e-02	9.050911e-03	4.962307e-03	6.468879e-04	-3.940198e-03	-8.777781e-03	-1.385220e-02	-1.915007e-02	-2.470944e-02	-3.055886e-02	-3.675561e-02	-4.331691e-02	-5.027667e-02	-5.765566e-02	-6.550263e-02	-7.388368e-02	-8.286989e-02	-9.249394e-02	-1.027987e-01	-1.138380e-01	-1.257248e-01	-1.385282e-01	-1.523246e-01	-1.672408e-01	-1.833972e-01	-2.009079e-01	-2.199310e-01	-2.406025e-01	-2.630447e-01	-2.873754e-01	-3.136632e-01	-3.418478e-01	-3.715311e-01	-4.019605e-01	-4.316282e-01	-4.573776e-01	-4.740760e-01	-4.732648e-01	-4.420455e-01	-3.651656e-01	-2.312139e-01	-3.905515e-02	1.839240e-01	3.491682e-01	4.931614e-01	6.581046e-01	7.225332e-01	6.894708e-01	6.135626e-01	5.302552e-01	4.556089e-01	3.934740e-01	3.428711e-01	3.014733e-01	2.675683e-01	2.393710e-01	2.157005e-01	1.955965e-01	1.783148e-01	1.633346e-01	1.502659e-01	1.387526e-01	1.285370e-01	1.193447e-01	1.109719e-01	1.033467e-01	9.641965e-02	9.009945e-02	8.425598e-02	7.873910e-02	7.352023e-02	6.857405e-02	6.389247e-02	5.942551e-02	5.514128e-02	5.100781e-02	4.699316e-02	4.305931e-02	3.918177e-02	3.534186e-02	3.152672e-02	2.771372e-02	2.386932e-02	1.996629e-02	1.600924e-02	1.201407e-02	7.996736e-03	3.949006e-03	-1.574364e-04	-4.381657e-03	-8.784814e-03	-1.337230e-02	-1.811389e-02	-2.295699e-02	-2.787079e-02	-3.287347e-02	-3.795492e-02	-4.313891e-02	-4.839833e-02	-5.374194e-02	-5.915733e-02	-6.460811e-02	-7.003876e-02	-7.541552e-02	-8.070376e-02	-8.589001e-02	-9.091387e-02	-9.574597e-02	-1.003174e-01	-1.046050e-01	-1.085381e-01	-1.120819e-01	-1.151807e-01	-1.177905e-01	-1.198699e-01	-1.213844e-01	-1.223348e-01	-1.227459e-01	-1.226905e-01	-1.223149e-01	-1.217953e-01	-1.213109e-01	-1.209347e-01	-1.205026e-01	-1.194794e-01	-1.169630e-01	-1.118277e-01	-1.031816e-01	-9.083244e-02	-7.570725e-02	-5.998363e-02	-4.677132e-02	-3.934314e-02	-3.992584e-02	-4.861988e-02	-6.317213e-02	-7.973851e-02	-9.455207e-02	-1.048660e-01	-1.097548e-01	-1.102763e-01	-1.062029e-01	-1.003415e-01	2.588225e-03	
SCALARS Conservative_4 float 1
LOOKUP_TABLE default
3.446460e+00	3.400925e+00	3.375738e+00	3.360333e+00	3.349299e+00	3.338524e+00	3.321490e+00	3.294310e+00	3.253878e+00	3.200413e+00	3.136933e+00	3.069830e+00	3.010155e+00	2.968218e+00	2.946970e+00	2.941696e+00	2.944410e+00	2.947950e+00	2.947894e+00	2.942713e+00	2.932976e+00	2.920090e+00	2.905536e+00	2.890514e+00	2.875727e+00	2.861458e+00	2.847684e+00	2.834288e+00	2.821096e+00	2.808033e+00	2.795064e+00	2.782066e+00	2.768953e+00	2.755768e+00	2.742647e+00	2.729717e+00	2.717032e+00	2.704600e+00	2.692454e+00	2.680644e+00	2.669165e+00	2.658055e+00	2.647260e+00	2.636839e+00	2.626819e+00	2.617350e+00	2.608389e+00	2.599781e+00	2.591124e+00	2.582410e+00	2.574156e+00	2.567313e+00	2.562196e+00	2.558089e+00	2.553252e+00	2.545685e+00	2.533932e+00	2.518187e+00	2.500599e+00	2.484573e+00	2.472680e+00	2.465592e+00	2.462652e+00	2.462677e+00	2.464817e+00	2.468494e+00	2.473573e+00	2.479805e+00	2.486971e+00	2.494762e+00	2.503260e+00	2.512906e+00	2.524370e+00	2.537799e+00	2.552981e+00	2.569495e+00	2.587549e+00	2.607619e+00	2.629807e+00	2.654203e+00	2.681118e+00	2.710667e+00	2.743243e+00	2.779113e+00	2.818736e+00	2.862780e+00	2.911763e+00	2.966571e+00	3.028363e+00	3.097784e+00	3.176085e+00	3.264284e+00	3.361675e+00	3.467001e+00	3.575892e+00	3.681395e+00	3.762449e+00	3.809637e+00	3.781676e+00	3.704265e+00	3.651936e+00	3.504040e+00	3.197957e+00	2.951296e+00	2.755780e+00	2.610381e+00	2.510260e+00	2.443852e+00	2.398690e+00	2.367782e+00	2.346800e+00	2.332640e+00	2.323921e+00	2.318675e+00	2.315895e+00	2.315599e+00	2.317405e+00	2.320673e+00	2.324562e+00	2.328162e+00	2.331494e+00	2.335427e+00	2.340658e+00	2.346783e+00	2.352750e+00	2.357919e+00	2.362524e+00	2.366945e+00	2.371475e+00	2.376303e+00	2.381593e+00	2.387299e+00	2.393235e+00	2.399135e+00	2.404905e+00	2.410492e+00	2.415878e+00	2.420939e+00	2.425701e+00	2.430583e+00	2.436516e+00	2.444421e+00	2.454808e+00	2.467289e+00	2.480648e+00	2.493265e+00	2.503959e+00	2.512810e+00	2.520874e+00	2.529680e+00	2.540205e+00	2.552820e+00	2.567329e+00	2.583378e+00	2.600328e+00	2.617566e+00	2.634893e+00	2.652618e+00	2.671268e+00	2.690905e+00	2.711341e+00	2.732344e+00	2.753809e+00	2.775711e+00	2.797962e+00	2.820523e+00	2.843261e+00	2.866143e+00	2.888953e+00	2.911729e+00	2.934249e+00	2.956299e+00	2.977739e+00	2.998353e+00	3.018026e+00	3.036707e+00	3.054508e+00	3.071891e+00	3.089493e+00	3.108308e+00	3.129064e+00	3.152018e+00	3.176214e+00	3.199524e+00	3.218855e+00	3.230886e+00	3.232863e+00	3.223798e+00	3.205510e+00	3.183390e+00	3.165163e+00	3.158372e+00	3.167758e+00	3.193199e+00	3.229520e+00	3.272236e+00	3.317845e+00	3.367364e+00	3.426954e+00	3.383867e+00	
SCALARS Pressure float 1
LOOKUP_TABLE default
1.290591e+00	1.264294e+00	1.248487e+00	1.238652e+00	1.231817e+00	1.225119e+00	1.215071e+00	1.199161e+00	1.175613e+00	1.144551e+00	1.107850e+00	1.069436e+00	1.035554e+00	1.011776e+00	9.996840e-01	9.966987e-01	9.983148e-01	1.000443e+00	1.000560e+00	9.978133e-01	9.925134e-01	9.854655e-01	9.775145e-01	9.693317e-01	9.613131e-01	9.536101e-01	9.462085e-01	9.390340e-01	9.320007e-01	9.250600e-01	9.181822e-01	9.113138e-01	9.044074e-01	8.974855e-01	8.906198e-01	8.838774e-01	8.772792e-01	8.708380e-01	8.645665e-01	8.584831e-01	8.525944e-01	8.469047e-01	8.414005e-01	8.360940e-01	8.310163e-01	8.262227e-01	8.217053e-01	8.173618e-01	8.130089e-01	8.086228e-01	8.044923e-01	8.010816e-01	7.985602e-01	7.965432e-01	7.941482e-01	7.903512e-01	7.844455e-01	7.765544e-01	7.678230e-01	7.599448e-01	7.541522e-01	7.507440e-01	7.493512e-01	7.494028e-01	7.504626e-01	7.522788e-01	7.547665e-01	7.578301e-01	7.613442e-01	7.651803e-01	7.693641e-01	7.741360e-01	7.798186e-01	7.865102e-01	7.940905e-01	8.023960e-01	8.114939e-01	8.216356e-01	8.329454e-01	8.454894e-01	8.594024e-01	8.748042e-01	8.919116e-01	9.109269e-01	9.321532e-01	9.560323e-01	9.829550e-01	1.013463e+00	1.048325e+00	1.088137e+00	1.133725e+00	1.185875e+00	1.244588e+00	1.309184e+00	1.377183e+00	1.443452e+00	1.495229e+00	1.523611e+00	1.507553e+00	1.463072e+00	1.422113e+00	1.323672e+00	1.153913e+00	1.017353e+00	9.118542e-01	8.347716e-01	7.820944e-01	7.473047e-01	7.239131e-01	7.080657e-01	6.973598e-01	6.902374e-01	6.858297e-01	6.831504e-01	6.816954e-01	6.814170e-01	6.821751e-01	6.836595e-01	6.854262e-01	6.870547e-01	6.885399e-01	6.902890e-01	6.926677e-01	6.955245e-01	6.983213e-01	7.007406e-01	7.028789e-01	7.049346e-01	7.070382e-01	7.092939e-01	7.117705e-01	7.144569e-01	7.172565e-01	7.200497e-01	7.227814e-01	7.254330e-01	7.279901e-01	7.303943e-01	7.326497e-01	7.349578e-01	7.377559e-01	7.415211e-01	7.465131e-01	7.525662e-01	7.590976e-01	7.653010e-01	7.705704e-01	7.749060e-01	7.788502e-01	7.831509e-01	7.883191e-01	7.945464e-01	8.017578e-01	8.097747e-01	8.182930e-01	8.270002e-01	8.357776e-01	8.448063e-01	8.543478e-01	8.644527e-01	8.750236e-01	8.859514e-01	8.971811e-01	9.087039e-01	9.204784e-01	9.324850e-01	9.446597e-01	9.569694e-01	9.693391e-01	9.817418e-01	9.940720e-01	1.006225e+00	1.018092e+00	1.029556e+00	1.040542e+00	1.051018e+00	1.061052e+00	1.070893e+00	1.080935e+00	1.091729e+00	1.103731e+00	1.117070e+00	1.131189e+00	1.144790e+00	1.155997e+00	1.162821e+00	1.163678e+00	1.158094e+00	1.147270e+00	1.134418e+00	1.124078e+00	1.120560e+00	1.126476e+00	1.141509e+00	1.163023e+00	1.188395e+00	1.215954e+00	1.246224e+00	1.281831e+00	1.279261e+00	
SCALARS Temperature float 1
LOOKUP_TABLE default
1.075623e+00	1.069931e+00	1.065920e+00	1.063327e+00	1.061584e+00	1.059854e+00	1.057437e+00	1.053598e+00	1.047828e+00	1.039988e+00	1.030398e+00	1.020025e+00	1.010550e+00	1.003648e+00	1.000030e+00	9.991350e-01	9.996559e-01	1.000349e+00	1.000450e+00	9.997112e-01	9.982105e-01	9.961806e-01	9.938702e-01	9.914756e-01	9.891180e-01	9.868429e-01	9.846489e-01	9.825101e-01	9.804060e-01	9.783192e-01	9.762357e-01	9.741448e-01	9.720311e-01	9.699005e-01	9.677754e-01	9.656776e-01	9.636109e-01	9.615850e-01	9.596030e-01	9.576682e-01	9.557897e-01	9.539619e-01	9.521898e-01	9.504697e-01	9.488220e-01	9.472561e-01	9.457786e-01	9.443451e-01	9.429057e-01	9.414419e-01	9.400661e-01	9.389303e-01	9.381022e-01	9.374410e-01	9.366417e-01	9.353387e-01	9.332897e-01	9.305294e-01	9.274755e-01	9.247224e-01	9.227034e-01	9.215311e-01	9.210621e-01	9.211036e-01	9.214882e-01	9.221431e-01	9.230239e-01	9.241095e-01	9.253422e-01	9.266875e-01	9.281439e-01	9.298041e-01	9.317690e-01	9.340764e-01	9.366654e-01	9.394956e-01	9.425580e-01	9.459301e-01	9.496742e-01	9.538011e-01	9.583166e-01	9.632614e-01	9.686759e-01	9.746126e-01	9.811435e-01	9.883797e-01	9.964079e-01	1.005311e+00	1.015239e+00	1.026295e+00	1.038554e+00	1.052066e+00	1.066734e+00	1.082179e+00	1.097732e+00	1.111990e+00	1.122776e+00	1.127877e+00	1.125278e+00	1.117837e+00	1.106519e+00	1.082477e+00	1.046831e+00	1.012065e+00	9.815646e-01	9.566183e-01	9.378474e-01	9.245474e-01	9.152699e-01	9.088417e-01	9.044175e-01	9.014829e-01	8.996327e-01	8.984842e-01	8.978374e-01	8.976426e-01	8.978730e-01	8.984033e-01	8.990325e-01	8.996059e-01	9.001126e-01	9.007045e-01	9.015409e-01	9.025865e-01	9.036131e-01	9.044940e-01	9.052582e-01	9.059914e-01	9.067371e-01	9.075415e-01	9.084238e-01	9.093852e-01	9.103847e-01	9.113829e-01	9.123537e-01	9.132953e-01	9.141988e-01	9.150453e-01	9.158314e-01	9.166298e-01	9.175888e-01	9.188935e-01	9.206354e-01	9.227581e-01	9.250521e-01	9.272254e-01	9.290581e-01	9.305384e-01	9.318711e-01	9.333096e-01	9.350394e-01	9.371207e-01	9.395297e-01	9.421941e-01	9.450123e-01	9.478740e-01	9.507293e-01	9.536486e-01	9.567076e-01	9.599254e-01	9.632629e-01	9.666859e-01	9.701726e-01	9.737184e-01	9.773100e-01	9.809387e-01	9.845870e-01	9.882357e-01	9.918825e-01	9.954969e-01	9.990574e-01	1.002542e+00	1.005911e+00	1.009136e+00	1.012200e+00	1.015098e+00	1.017858e+00	1.020548e+00	1.023289e+00	1.026222e+00	1.029475e+00	1.033058e+00	1.036810e+00	1.040361e+00	1.043213e+00	1.044868e+00	1.044964e+00	1.043426e+00	1.040587e+00	1.037264e+00	1.034655e+00	1.033901e+00	1.035657e+00	1.039678e+00	1.045326e+00	1.051826e+00	1.058850e+00	1.066441e+00	1.074735e+00	1.083082e+00	
SCALARS Pressure_Coefficient float 1
LOOKUP_TABLE default
6.486411e-01	5.899430e-01	5.546578e-01	5.327064e-01	5.174481e-01	5.024987e-01	4.800698e-01	4.445547e-01	3.919929e-01	3.226579e-01	2.407365e-01	1.549908e-01	7.936164e-02	2.628487e-02	-7.053145e-04	-7.368889e-03	-3.761702e-03	9.891998e-04	1.249448e-03	-4.881060e-03	-1.671109e-02	-3.244312e-02	-5.019083e-02	-6.845597e-02	-8.635462e-02	-1.035488e-01	-1.200703e-01	-1.360848e-01	-1.517842e-01	-1.672768e-01	-1.826291e-01	-1.979603e-01	-2.133764e-01	-2.288270e-01	-2.441523e-01	-2.592023e-01	-2.739303e-01	-2.883081e-01	-3.023069e-01	-3.158860e-01	-3.290303e-01	-3.417305e-01	-3.540167e-01	-3.658616e-01	-3.771958e-01	-3.878958e-01	-3.979793e-01	-4.076745e-01	-4.173909e-01	-4.271812e-01	-4.364011e-01	-4.440143e-01	-4.496425e-01	-4.541446e-01	-4.594905e-01	-4.679661e-01	-4.811484e-01	-4.987626e-01	-5.182523e-01	-5.358374e-01	-5.487673e-01	-5.563750e-01	-5.594840e-01	-5.593687e-01	-5.570032e-01	-5.529490e-01	-5.473962e-01	-5.405578e-01	-5.327139e-01	-5.241512e-01	-5.148123e-01	-5.041608e-01	-4.914763e-01	-4.765398e-01	-4.596195e-01	-4.410805e-01	-4.207726e-01	-3.981348e-01	-3.728897e-01	-3.448897e-01	-3.138340e-01	-2.794548e-01	-2.412688e-01	-1.988239e-01	-1.514439e-01	-9.814212e-02	-3.804681e-02	3.005142e-02	1.078690e-01	1.967344e-01	2.984942e-01	4.148995e-01	5.459545e-01	6.901437e-01	8.419273e-01	9.898491e-01	1.105421e+00	1.168775e+00	1.132930e+00	1.033642e+00	9.422172e-01	7.224832e-01	3.435554e-01	3.873485e-02	-1.967541e-01	-3.688135e-01	-4.863964e-01	-5.640519e-01	-6.162654e-01	-6.516391e-01	-6.755362e-01	-6.914345e-01	-7.012730e-01	-7.072536e-01	-7.105013e-01	-7.111228e-01	-7.094306e-01	-7.061172e-01	-7.021736e-01	-6.985387e-01	-6.952235e-01	-6.913191e-01	-6.860097e-01	-6.796328e-01	-6.733899e-01	-6.679897e-01	-6.632168e-01	-6.586282e-01	-6.539325e-01	-6.488976e-01	-6.433694e-01	-6.373730e-01	-6.311239e-01	-6.248891e-01	-6.187914e-01	-6.128729e-01	-6.071650e-01	-6.017984e-01	-5.967640e-01	-5.916121e-01	-5.853663e-01	-5.769618e-01	-5.658190e-01	-5.523076e-01	-5.377285e-01	-5.238816e-01	-5.121197e-01	-5.024419e-01	-4.936379e-01	-4.840381e-01	-4.725021e-01	-4.586017e-01	-4.425050e-01	-4.246099e-01	-4.055961e-01	-3.861603e-01	-3.665678e-01	-3.464145e-01	-3.251166e-01	-3.025609e-01	-2.789653e-01	-2.545727e-01	-2.295064e-01	-2.037859e-01	-1.775035e-01	-1.507031e-01	-1.235274e-01	-9.605041e-02	-6.843944e-02	-4.075484e-02	-1.323217e-02	1.389478e-02	4.038428e-02	6.597223e-02	9.049652e-02	1.138797e-01	1.362761e-01	1.582442e-01	1.806575e-01	2.047532e-01	2.315432e-01	2.613174e-01	2.928321e-01	3.231912e-01	3.482086e-01	3.634404e-01	3.653522e-01	3.528893e-01	3.287281e-01	3.000400e-01	2.769589e-01	2.691061e-01	2.823125e-01	3.158680e-01	3.638897e-01	4.205241e-01	4.820394e-01	5.496082e-01	6.290877e-01	6.233496e-01	
SCALARS Mach float 1
LOOKUP_TABLE default
4.934576e-01	5.209588e-01	5.396606e-01	5.514840e-01	5.593250e-01	5.670228e-01	5.776505e-01	5.942340e-01	6.185403e-01	6.505137e-01	6.882172e-01	7.275335e-01	7.623334e-01	7.871034e-01	7.999123e-01	8.030652e-01	8.012319e-01	7.987882e-01	7.984313e-01	8.010369e-01	8.063137e-01	8.134218e-01	8.214723e-01	8.297724e-01	8.379029e-01	8.457107e-01	8.532067e-01	8.604826e-01	8.676120e-01	8.746549e-01	8.816605e-01	8.886649e-01	8.957207e-01	9.028076e-01	9.098518e-01	9.167828e-01	9.235892e-01	9.302411e-01	9.367299e-01	9.430467e-01	9.491639e-01	9.551010e-01	9.608439e-01	9.664063e-01	9.717231e-01	9.767661e-01	9.815159e-01	9.861165e-01	9.907286e-01	9.954113e-01	9.998056e-01	1.003428e+00	1.006067e+00	1.008172e+00	1.010715e+00	1.014857e+00	1.021358e+00	1.030097e+00	1.039739e+00	1.048409e+00	1.054755e+00	1.058434e+00	1.059905e+00	1.059775e+00	1.058569e+00	1.056514e+00	1.053748e+00	1.050336e+00	1.046459e+00	1.042222e+00	1.037631e+00	1.032389e+00	1.026175e+00	1.018864e+00	1.010640e+00	1.001626e+00	9.918414e-01	9.810291e-01	9.689743e-01	9.556228e-01	9.409316e-01	9.247382e-01	9.068698e-01	8.871000e-01	8.651162e-01	8.404407e-01	8.126276e-01	7.811737e-01	7.452345e-01	7.039368e-01	6.562437e-01	6.007582e-01	5.359044e-01	4.601472e-01	3.713407e-01	2.683545e-01	1.526105e-01	2.389952e-02	1.101087e-01	2.132766e-01	3.115949e-01	4.585856e-01	6.226697e-01	7.568310e-01	8.636897e-01	9.464677e-01	1.006878e+00	1.048959e+00	1.078031e+00	1.098060e+00	1.111797e+00	1.120889e+00	1.126614e+00	1.130165e+00	1.132164e+00	1.132766e+00	1.132054e+00	1.130415e+00	1.128470e+00	1.126697e+00	1.125130e+00	1.123298e+00	1.120710e+00	1.117472e+00	1.114291e+00	1.111560e+00	1.109189e+00	1.106914e+00	1.104599e+00	1.102101e+00	1.099359e+00	1.096369e+00	1.093260e+00	1.090152e+00	1.087128e+00	1.084193e+00	1.081374e+00	1.078732e+00	1.076277e+00	1.073782e+00	1.070784e+00	1.066701e+00	1.061243e+00	1.054583e+00	1.047372e+00	1.040527e+00	1.034745e+00	1.030068e+00	1.025852e+00	1.021295e+00	1.015807e+00	1.009192e+00	1.001517e+00	9.930057e-01	9.839763e-01	9.747773e-01	9.655676e-01	9.561174e-01	9.461768e-01	9.356756e-01	9.247331e-01	9.134541e-01	9.019039e-01	8.900902e-01	8.780515e-01	8.658096e-01	8.534176e-01	8.409350e-01	8.283651e-01	8.158083e-01	8.033382e-01	7.910299e-01	7.790308e-01	7.674440e-01	7.563406e-01	7.457506e-01	7.355809e-01	7.255844e-01	7.153108e-01	7.042127e-01	6.917748e-01	6.778993e-01	6.631690e-01	6.490188e-01	6.374981e-01	6.307470e-01	6.303547e-01	6.366314e-01	6.481094e-01	6.613710e-01	6.716581e-01	6.746075e-01	6.677204e-01	6.517554e-01	6.288686e-01	6.017739e-01	5.714581e-01	5.372582e-01	4.978276e-01	4.554027e-01	