# vtk DataFile Version 3.0
vtk output
ASCII
DATASET UNSTRUCTURED_GRID
POINTS 5233 float
9.997500e-01	-3.633242e-05	0.0	9.990000e-01	-1.454720e-04	0.0	9.977600e-01	-3.275035e-04	0.0	9.960200e-01	-5.899061e-04	0.0	9.937800e-01	-9.470182e-04	0.0	9.910500e-01	-1.421883e-03	0.0	9.878400e-01	-2.045026e-03	0.0	9.841300e-01	-2.852695e-03	0.0	9.799500e-01	-3.857151e-03	0.0	9.752800e-01	-5.055521e-03	0.0	9.701500e-01	-6.401007e-03	0.0	9.645400e-01	-7.835178e-03	0.0	9.584700e-01	-9.282770e-03	0.0	9.519400e-01	-1.068849e-02	0.0	9.449600e-01	-1.202444e-02	0.0	9.375400e-01	-1.329505e-02	0.0	9.296900e-01	-1.452765e-02	0.0	9.214000e-01	-1.576051e-02	0.0	9.127000e-01	-1.702091e-02	0.0	9.035800e-01	-1.832991e-02	0.0	8.940600e-01	-1.969119e-02	0.0	8.841500e-01	-2.110017e-02	0.0	8.738500e-01	-2.254866e-02	0.0	8.631800e-01	-2.402456e-02	0.0	8.521600e-01	-2.551722e-02	0.0	8.407700e-01	-2.702346e-02	0.0	8.290500e-01	-2.853404e-02	0.0	8.170100e-01	-3.004509e-02	0.0	8.046400e-01	-3.155579e-02	0.0	7.919700e-01	-3.306047e-02	0.0	7.790100e-01	-3.455587e-02	0.0	7.657800e-01	-3.603737e-02	0.0	7.522800e-01	-3.750241e-02	0.0	7.385200e-01	-3.894716e-02	0.0	7.245300e-01	-4.036574e-02	0.0	7.103200e-01	-4.175452e-02	0.0	6.958900e-01	-4.311096e-02	0.0	6.812700e-01	-4.442984e-02	0.0	6.664700e-01	-4.570818e-02	0.0	6.515000e-01	-4.694319e-02	0.0	6.363800e-01	-4.813156e-02	0.0	6.211300e-01	-4.927037e-02	0.0	6.057600e-01	-5.035775e-02	0.0	5.902800e-01	-5.139206e-02	0.0	5.747100e-01	-5.237124e-02	0.0	5.590600e-01	-5.329409e-02	0.0	5.433600e-01	-5.415852e-02	0.0	5.276100e-01	-5.496431e-02	0.0	5.118400e-01	-5.570979e-02	0.0	4.960500e-01	-5.639490e-02	0.0	4.802700e-01	-5.701825e-02	0.0	4.645100e-01	-5.757944e-02	0.0	4.487800e-01	-5.807797e-02	0.0	4.331100e-01	-5.851275e-02	0.0	4.175000e-01	-5.888353e-02	0.0	4.019700e-01	-5.918939e-02	0.0	3.865400e-01	-5.942943e-02	0.0	3.712300e-01	-5.960275e-02	0.0	3.560400e-01	-5.970854e-02	0.0	3.409900e-01	-5.974565e-02	0.0	3.261100e-01	-5.971297e-02	0.0	3.114000e-01	-5.960934e-02	0.0	2.968700e-01	-5.943341e-02	0.0	2.825500e-01	-5.918410e-02	0.0	2.684500e-01	-5.886012e-02	0.0	2.545700e-01	-5.845982e-02	0.0	2.409400e-01	-5.798235e-02	0.0	2.275700e-01	-5.742646e-02	0.0	2.144700e-01	-5.679088e-02	0.0	2.016600e-01	-5.607496e-02	0.0	1.891400e-01	-5.527706e-02	0.0	1.769300e-01	-5.439679e-02	0.0	1.650400e-01	-5.343337e-02	0.0	1.534900e-01	-5.238704e-02	0.0	1.422900e-01	-5.125759e-02	0.0	1.314400e-01	-5.004379e-02	0.0	1.209500e-01	-4.874545e-02	0.0	1.108500e-01	-4.736540e-02	0.0	1.011300e-01	-4.590153e-02	0.0	9.181000e-02	-4.435598e-02	0.0	8.290000e-02	-4.272994e-02	0.0	7.440000e-02	-4.102281e-02	0.0	6.633000e-02	-3.923818e-02	0.0	5.869000e-02	-3.737580e-02	0.0	5.149000e-02	-3.543772e-02	0.0	4.474000e-02	-3.342652e-02	0.0	3.844000e-02	-3.134191e-02	0.0	3.260000e-02	-2.918678e-02	0.0	2.723000e-02	-2.696482e-02	0.0	2.232000e-02	-2.467104e-02	0.0	1.790000e-02	-2.231941e-02	0.0	1.395000e-02	-1.989912e-02	0.0	1.049000e-02	-1.742138e-02	0.0	7.520000e-03	-1.488703e-02	0.0	5.040000e-03	-1.229616e-02	0.0	3.050000e-03	-9.647073e-03	0.0	1.560000e-03	-6.954722e-03	0.0	5.600000e-04	-4.197587e-03	0.0	6.000000e-05	-1.382079e-03	0.0	0.000000e+00	0.000000e+00	0.0	6.000000e-05	1.261249e-03	0.0	5.600000e-04	3.613920e-03	0.0	1.560000e-03	5.767493e-03	0.0	3.050000e-03	7.774887e-03	0.0	5.040000e-03	9.681565e-03	0.0	7.520000e-03	1.149564e-02	0.0	1.049000e-02	1.323227e-02	0.0	1.395000e-02	1.490210e-02	0.0	1.790000e-02	1.651310e-02	0.0	2.232000e-02	1.806497e-02	0.0	2.723000e-02	1.957084e-02	0.0	3.260000e-02	2.102665e-02	0.0	3.844000e-02	2.244004e-02	0.0	4.474000e-02	2.381239e-02	0.0	5.149000e-02	2.514506e-02	0.0	5.869000e-02	2.644104e-02	0.0	6.633000e-02	2.770104e-02	0.0	7.440000e-02	2.892571e-02	0.0	8.290000e-02	3.011692e-02	0.0	9.181000e-02	3.127355e-02	0.0	1.011300e-01	3.239709e-02	0.0	1.108500e-01	3.348746e-02	0.0	1.209500e-01	3.454352e-02	0.0	1.314400e-01	3.556709e-02	0.0	1.422900e-01	3.655584e-02	0.0	1.534900e-01	3.750949e-02	0.0	1.650400e-01	3.842836e-02	0.0	1.769300e-01	3.931175e-02	0.0	1.891400e-01	4.015813e-02	0.0	2.016600e-01	4.096670e-02	0.0	2.144700e-01	4.173592e-02	0.0	2.275700e-01	4.246533e-02	0.0	2.409400e-01	4.315319e-02	0.0	2.545700e-01	4.379821e-02	0.0	2.684500e-01	4.439895e-02	0.0	2.825500e-01	4.495304e-02	0.0	2.968700e-01	4.545928e-02	0.0	3.114000e-01	4.591584e-02	0.0	3.261100e-01	4.632021e-02	0.0	3.409900e-01	4.667046e-02	0.0	3.560400e-01	4.696468e-02	0.0	3.712300e-01	4.720026e-02	0.0	3.865400e-01	4.737483e-02	0.0	4.019700e-01	4.748622e-02	0.0	4.175000e-01	4.753193e-02	0.0	4.331100e-01	4.750956e-02	0.0	4.487800e-01	4.741685e-02	0.0	4.645100e-01	4.725142e-02	0.0	4.802700e-01	4.701125e-02	0.0	4.960500e-01	4.669431e-02	0.0	5.118400e-01	4.629865e-02	0.0	5.276100e-01	4.582313e-02	0.0	5.433600e-01	4.526604e-02	0.0	5.590600e-01	4.462702e-02	0.0	5.747100e-01	4.390495e-02	0.0	5.902800e-01	4.310049e-02	0.0	6.057600e-01	4.221392e-02	0.0	6.211300e-01	4.124664e-02	0.0	6.363800e-01	4.020009e-02	0.0	6.515000e-01	3.907622e-02	0.0	6.664700e-01	3.787844e-02	0.0	6.812700e-01	3.661099e-02	0.0	6.958900e-01	3.527805e-02	0.0	7.103200e-01	3.388448e-02	0.0	7.245300e-01	3.243788e-02	0.0	7.385200e-01	3.094361e-02	0.0	7.522800e-01	2.940867e-02	0.0	7.657800e-01	2.784298e-02	0.0	7.790100e-01	2.625494e-02	0.0	7.919700e-01	2.465223e-02	0.0	8.046400e-01	2.304537e-02	0.0	8.170100e-01	2.144403e-02	0.0	8.290500e-01	1.986055e-02	0.0	8.407700e-01	1.830173e-02	0.0	8.521600e-01	1.677600e-02	0.0	8.631800e-01	1.529420e-02	0.0	8.738500e-01	1.385681e-02	0.0	8.841500e-01	1.246705e-02	0.0	8.940600e-01	1.112615e-02	0.0	9.035800e-01	9.832426e-03	0.0	9.127000e-01	8.588612e-03	0.0	9.214000e-01	7.405662e-03	0.0	9.296900e-01	6.300118e-03	0.0	9.375400e-01	5.302909e-03	0.0	9.449600e-01	4.443119e-03	0.0	9.519400e-01	3.745626e-03	0.0	9.584700e-01	3.216550e-03	0.0	9.645400e-01	2.835785e-03	0.0	9.701500e-01	2.558599e-03	0.0	9.752800e-01	2.329349e-03	0.0	9.799500e-01	2.095917e-03	0.0	9.841300e-01	1.828658e-03	0.0	9.878400e-01	1.520727e-03	0.0	9.910500e-01	1.190563e-03	0.0	9.937800e-01	8.631517e-04	0.0	9.960200e-01	5.666622e-04	0.0	9.977600e-01	3.231949e-04	0.0	9.990000e-01	1.450789e-04	0.0	9.997500e-01	3.632620e-05	0.0	1.000000e+00	0.000000e+00	0.0	1.984229e+01	2.506660e+00	0.0	1.937166e+01	4.973800e+00	0.0	1.859553e+01	7.362490e+00	0.0	1.752613e+01	9.635070e+00	0.0	1.618034e+01	1.175571e+01	0.0	1.457937e+01	1.369094e+01	0.0	1.274848e+01	1.541027e+01	0.0	1.071654e+01	1.688656e+01	0.0	8.515590e+00	1.809654e+01	0.0	6.180340e+00	1.902113e+01	0.0	3.747630e+00	1.964575e+01	0.0	1.255810e+00	1.996053e+01	0.0	-1.255810e+00	1.996053e+01	0.0	-3.747630e+00	1.964574e+01	0.0	-6.180340e+00	1.902113e+01	0.0	-8.515590e+00	1.809654e+01	0.0	-1.071654e+01	1.688656e+01	0.0	-1.274848e+01	1.541026e+01	0.0	-1.457937e+01	1.369094e+01	0.0	-1.618034e+01	1.175570e+01	0.0	-1.752613e+01	9.635070e+00	0.0	-1.859553e+01	7.362490e+00	0.0	-1.937166e+01	4.973800e+00	0.0	-1.984229e+01	2.506660e+00	0.0	-2.000000e+01	0.000000e+00	0.0	-1.984229e+01	-2.506670e+00	0.0	-1.937166e+01	-4.973800e+00	0.0	-1.859553e+01	-7.362490e+00	0.0	-1.752613e+01	-9.635080e+00	0.0	-1.618034e+01	-1.175571e+01	0.0	-1.457937e+01	-1.369094e+01	0.0	-1.274848e+01	-1.541027e+01	0.0	-1.071653e+01	-1.688656e+01	0.0	-8.515580e+00	-1.809654e+01	0.0	-6.180340e+00	-1.902113e+01	0.0	-3.747620e+00	-1.964575e+01	0.0	-1.255810e+00	-1.996053e+01	0.0	1.255810e+00	-1.996053e+01	0.0	3.747630e+00	-1.964574e+01	0.0	6.180340e+00	-1.902113e+01	0.0	8.515590e+00	-1.809654e+01	0.0	1.071654e+01	-1.688656e+01	0.0	1.274848e+01	-1.541026e+01	0.0	1.457937e+01	-1.369094e+01	0.0	1.618034e+01	-1.175570e+01	0.0	1.752614e+01	-9.635070e+00	0.0	1.859553e+01	-7.362490e+00	0.0	1.937166e+01	-4.973790e+00	0.0	1.984229e+01	-2.506660e+00	0.0	2.000000e+01	0.000000e+00	0.0	6.074466e-02	-4.523887e-02	0.0	6.601879e-01	-5.998701e-02	0.0	4.255491e-01	6.174327e-02	0.0	6.897646e-01	4.916539e-02	0.0	3.791221e-01	-7.357380e-02	0.0	9.994674e-01	-7.275897e-04	0.0	9.985544e-01	-1.331395e-03	0.0	7.738122e-01	-4.736694e-02	0.0	6.898595e-01	-5.711311e-02	0.0	-1.120663e-03	5.499587e-03	0.0	7.467792e-01	-5.077335e-02	0.0	5.833296e-01	5.759241e-02	0.0	9.928158e-01	-3.735923e-03	0.0	9.899357e-01	-4.743613e-03	0.0	5.989060e-01	5.665885e-02	0.0	7.187639e-01	-5.402883e-02	0.0	-1.465006e-03	5.977553e-04	0.0	9.865722e-01	-5.905489e-03	0.0	9.827324e-01	-7.224763e-03	0.0	-1.296088e-03	-6.459777e-03	0.0	6.451047e-01	-6.133779e-02	0.0	8.244807e-01	-4.026780e-02	0.0	7.997410e-01	-4.386241e-02	0.0	3.484762e-01	6.059623e-02	0.0	8.479007e-01	-3.663948e-02	0.0	2.473614e-01	5.603689e-02	0.0	8.699406e-01	-3.300173e-02	0.0	1.047090e-02	1.727790e-02	0.0	8.904943e-01	-2.941073e-02	0.0	7.702294e-02	-4.961671e-02	0.0	9.094895e-01	-2.592118e-02	0.0	-1.761617e-03	-3.200992e-03	0.0	9.424813e-01	-1.915658e-02	0.0	9.268461e-01	-2.253479e-02	0.0	1.795292e-02	-2.743445e-02	0.0	4.257408e-01	-7.300607e-02	0.0	8.591022e-01	-3.481633e-02	0.0	9.563345e-01	-1.565882e-02	0.0	9.784083e-01	-8.722856e-03	0.0	9.683293e-01	-1.207573e-02	0.0	1.582621e-01	-6.350635e-02	0.0	9.001936e-01	-2.765132e-02	0.0	7.604286e-01	-4.908592e-02	0.0	9.971358e-01	-2.087206e-03	0.0	5.990497e-01	-6.501142e-02	0.0	4.414434e-01	-7.265636e-02	0.0	5.363193e-01	-6.894829e-02	0.0	4.730151e-01	-7.172376e-02	0.0	5.046761e-01	-7.048578e-02	0.0	4.888337e-01	-7.114175e-02	0.0	1.249489e-01	-5.899015e-02	0.0	2.784858e-02	-3.290505e-02	0.0	3.945679e-01	-7.346649e-02	0.0	4.622218e-02	-4.054319e-02	0.0	4.101088e-01	-7.327757e-02	0.0	3.187132e-01	-7.317698e-02	0.0	3.486112e-01	-7.354655e-02	0.0	3.351173e-02	-3.551488e-02	0.0	2.895088e-01	-7.246782e-02	0.0	9.348836e-01	-2.085256e-02	0.0	1.468036e-01	-6.209147e-02	0.0	1.946418e-01	-6.717504e-02	0.0	8.579673e-02	-5.167508e-02	0.0	1.045872e-01	-5.552495e-02	0.0	5.678220e-01	-6.712758e-02	0.0	1.700644e-01	-6.482754e-02	0.0	6.145272e-01	-6.384933e-02	0.0	8.804117e-01	-3.119774e-02	0.0	2.267291e-02	-3.020989e-02	0.0	9.952217e-01	-2.869977e-03	0.0	6.742171e-03	-1.877766e-02	0.0	1.849867e-02	2.143040e-02	0.0	9.183762e-01	-2.421849e-02	0.0	9.49639
[...]
POINT_DATA 5233

SCALARS Conservative_1 float 1
LOOKUP_TABLE default
1.199828e+00	1.181590e+00	1.171156e+00	1.164703e+00	1.160117e+00	1.155639e+00	1.148745e+00	1.137821e+00	1.121640e+00	1.100291e+00	1.075015e+00	1.048424e+00	1.024886e+00	1.008384e+00	1.000040e+00	9.980063e-01	9.991364e-01	1.000598e+00	1.000642e+00	9.986698e-01	9.949013e-01	9.898928e-01	9.842292e-01	9.783819e-01	9.726287e-01	9.670811e-01	9.617313e-01	9.565333e-01	9.514228e-01	9.463687e-01	9.413551e-01	9.363383e-01	9.312843e-01	9.262094e-01	9.211645e-01	9.161976e-01	9.113271e-01	9.065574e-01	9.018997e-01	8.973700e-01	8.929680e-01	8.887039e-01	8.845602e-01	8.805531e-01	8.766973e-01	8.730446e-01	8.695850e-01	8.662555e-01	8.629099e-01	8.595388e-01	8.563434e-01	8.536731e-01	8.516339e-01	8.499259e-01	8.478749e-01	8.447445e-01	8.400685e-01	8.340324e-01	8.275294e-01	8.217839e-01	8.176346e-01	8.152488e-01	8.143531e-01	8.145262e-01	8.154689e-01	8.169885e-01	8.190387e-01	8.215376e-01	8.243998e-01	8.275115e-01	8.308878e-01	8.346863e-01	8.391515e-01	8.443544e-01	8.502230e-01	8.566117e-01	8.635826e-01	8.713112e-01	8.798543e-01	8.892510e-01	8.996129e-01	9.109981e-01	9.235571e-01	9.374068e-01	9.527357e-01	9.698190e-01	9.888838e-01	1.010287e+00	1.034514e+00	1.061879e+00	1.092916e+00	1.128097e+00	1.167282e+00	1.210026e+00	1.254629e+00	1.298098e+00	1.331813e+00	1.350927e+00	1.339365e+00	1.307777e+00	1.283460e+00	1.219696e+00	1.097122e+00	9.992107e-01	9.232866e-01	8.679770e-01	8.304904e-01	8.059479e-01	7.895332e-01	7.785055e-01	7.711705e-01	7.663640e-01	7.635314e-01	7.619414e-01	7.612242e-01	7.613791e-01	7.622805e-01	7.636941e-01	7.652998e-01	7.667764e-01	7.681499e-01	7.697460e-01	7.718165e-01	7.742034e-01	7.765067e-01	7.785073e-01	7.803036e-01	7.820470e-01	7.838393e-01	7.857461e-01	7.878143e-01	7.900213e-01	7.922892e-01	7.945116e-01	7.966355e-01	7.986212e-01	8.004469e-01	8.020730e-01	8.035038e-01	8.048230e-01	8.061376e-01	8.074361e-01	8.085971e-01	8.095360e-01	8.104469e-01	8.119369e-01	8.149195e-01	8.202475e-01	8.279017e-01	8.365713e-01	8.442446e-01	8.499870e-01	8.544498e-01	8.589154e-01	8.642175e-01	8.704098e-01	8.771397e-01	8.841347e-01	8.914121e-01	8.990144e-01	9.069400e-01	9.151202e-01	9.234950e-01	9.320403e-01	9.407282e-01	9.495490e-01	9.584556e-01	9.674289e-01	9.763944e-01	9.853542e-01	9.942258e-01	1.002929e+00	1.011401e+00	1.019558e+00	1.027356e+00	1.034772e+00	1.041855e+00	1.048785e+00	1.055820e+00	1.063350e+00	1.071670e+00	1.080876e+00	1.090586e+00	1.099941e+00	1.107692e+00	1.112508e+00	1.113304e+00	1.109718e+00	1.102513e+00	1.093850e+00	1.086795e+00	1.084307e+00	1.088216e+00	1.098411e+00	1.112951e+00	1.130079e+00	1.148509e+00	1.168641e+00	1.192694e+00	1.181115e+00	9.999761e-01	9.999689e-01	9.999518e-01	9.999275e-01	9.999030e-01	9.998744e-01	9.998343e-01	9.997785e-01	9.997152e-01	9.996628e-01	9.996281e-01	9.996398e-01	9.996946e-01	9.998061e-01	9.999019e-01	9.999794e-01	1.000022e+00	1.000048e+00	1.000063e+00	1.000069e+00	1.000072e+00	1.000073e+00	1.000074e+00	1.000076e+00	1.000077e+00	1.000080e+00	1.000085e+00	1.000092e+00	1.000101e+00	1.000114e+00	1.000129e+00	1.000151e+00	1.000170e+00	1.000197e+00	1.000215e+00	1.000227e+00	1.000229e+00	1.000217e+00	1.000207e+00	1.000194e+00	1.000187e+00	1.000171e+00	1.000153e+00	1.000132e+00	1.000108e+00	1.000079e+00	1.000061e+00	1.000047e+00	1.000013e+00	9.999797e-01	9.452186e-01	9.023094e-01	8.148400e-01	9.228753e-01	8.404940e-01	1.183053e+00	1.173553e+00	9.410196e-01	9.115114e-01	1.215980e+00	9.310548e-01	8.713466e-01	1.151670e+00	1.144931e+00	8.778499e-01	9.211222e-01	1.307193e+00	1.135953e+00	1.123583e+00	1.337707e+00	8.978921e-01	9.611062e-01	9.509519e-01	8.090518e-01	9.716693e-01	7.971576e-01	9.827622e-01	8.767931e-01	9.933505e-01	9.180535e-01	1.000750e+00	1.344601e+00	1.006147e+00	1.003100e+00	1.100786e+00	8.522935e-01	9.771733e-01	1.025361e+00	1.107333e+00	1.065547e+00	8.492448e-01	9.976454e-01	9.360567e-01	1.164120e+00	8.853670e-01	8.539084e-01	8.708246e-01	8.578279e-01	8.641332e-01	8.607918e-01	8.692109e-01	1.043600e+00	8.460116e-01	9.783652e-01	8.498901e-01	8.199639e-01	8.277971e-01	1.019403e+00	8.185857e-01	1.003692e+00	8.552966e-01	8.354992e-01	9.063227e-01	8.859167e-01	8.777122e-01	8.439462e-01	8.894259e-01	9.882586e-01	1.070635e+00	1.157612e+00	1.209339e+00	8.225715e-01	1.002472e+00	1.012801e+00	1.087579e+00	1.132307e+00	9.663202e-01	8.229918e-01	8.741891e-01	9.260539e-01	9.459686e-01	8.771355e-01	8.285815e-01	8.814541e-01	9.068572e-01	9.609499e-01	1.248827e+00	1.134145e+00	8.340100e-01	8.394381e-01	1.211161e+00	8.255785e-01	8.956427e-01	8.186346e-01	8.209261e-01	8.555674e-01	9.162680e-01	1.279064e+00	1.318535e+00	8.567091e-01	1.324310e+00	7.948724e-01	7.753158e-01	7.814425e-01	7.773564e-01	8.137467e-01	1.140252e+00	8.517562e-01	8.274537e-01	1.097273e+00	1.105842e+00	1.052167e+00	8.360826e-01	8.168822e-01	8.117067e-01	1.083555e+00	1.066946e+00	7.742870e-01	1.092558e+00	1.106561e+00	1.098981e+00	7.754799e-01	7.741014e-01	8.031548e-01	7.992691e-01	7.859239e-01	8.063797e-01	8.208806e-01	8.128209e-01	7.828611e-01	7.790798e-01	8.917891e-01	7.890432e-01	7.928521e-01	9.068068e-01	8.655979e-01	9.567137e-01	9.395724e-01	9.913093e-01	9.740546e-01	1.023780e+00	1.008062e+00	1.059336e+00	1.038302e+00	1.104160e+00	1.075088e+00	1.102351e+00	1.031182e+00	1.045238e+00	9.997786e-01	1.016069e+00	9.653810e-01	9.827258e-01	9.311543e-01	9.480962e-01	8.991371e-01	9.147389e-01	8.608797e-01	8.847027e-01	7.908525e-01	7.949916e-01	7.844529e-01	7.874250e-01	7.776947e-01	7.810488e-01	8.452019e-01	7.869300e-01	8.319143e-01	9.794067e-01	1.043700e+00	9.559905e-01	8.229609e-01	8.675154e-01	1.051486e+00	8.063324e-01	9.206954e-01	7.749013e-01	7.738744e-01	8.012760e-01	7.761840e-01	1.090410e+00	1.092496e+00	8.048646e-01	1.099485e+00	1.110513e+00	8.077381e-01	8.103964e-01	1.091801e+00	1.206443e+00	1.157966e+00	1.174450e+00	8.935939e-01	9.977608e-01	1.124480e+00	8.448057e-01	1.286740e+00	1.170618e+00	9.309677e-01	8.619763e-01	8.194176e-01	7.861618e-01	1.198639e+00	1.258881e+00	8.242694e-01	9.167432e-01	1.003434e+00	1.199763e+00	8.731228e-01	9.120980e-01	9.458901e-01	1.133304e+00	8.260031e-01	9.764776e-01	9.659671e-01	9.135010e-01	1.317246e+00	8.369957e-01	1.133113e+00	1.041620e+00	8.611735e-01	9.214695e-01	9.031282e-01	8.581248e-01	9.254366e-01	8.469995e-01	9.966937e-01	9.507796e-01	9.549998e-01	8.540058e-01	9.148842e-01	1.020391e+00	7.846765e-01	9.227655e-01	7.905312e-01	1.041733e+00	1.100697e+00	8.123296e-01	8.528791e-01	1.099596e+00	1.048555e+00	1.108435e+00	1.100896e+00	1.094664e+00	8.002873e-01	8.109739e-01	7.982865e-01	7.844062e-01	9.075682e-01	8.408867e-01	9.126279e-01	7.880224e-01	7.944716e-01	1.098119e+00	1.119091e+00	1.055438e+00	8.550051e-01	1.215344e+00	1.145840e+00	1.131654e+00	1.007518e+00	1.132247e+00	1.234165e+00	1.330879e+00	1.314752e+00	1.102640e+00	1.217648e+00	9.528043e-01	1.163028e+00	1.148540e+00	8.185478e-01	8.757278e-01	1.122979e+00	9.871177e-01	8.792442e-01	1.141617e+00	1.332326e+00	8.565315e-01	8.174577e-01	9.711712e-01	8.061717e-01	9.818284e-01	9.921556e-01	9.384898e-01	1.000488e+00	1.005725e+00	1.017477e+00	1.049192e+00	1.027482e+00	1.058793e+00	1.109968e+00	8.756014e-01	9.361314e-01	9.410287e-01	1.155359e+00	8.600827e-01	8.627396e-01	8.658733e-01	1.074807e+00	8.515584e-01	8.546102e-01	8.297094e-01	1.004959e+00	1.007984e+00	1.011393e+00	8.680818e-01	9.025998e-01	8.791522e-01	8.905595e-01	1.076999e+00	1.094468e+00	9.262683e-01	9.311954e-01	8.927381e-01	8.837712e-01	8.827900e-01	8.865907e-01	9.859401e-01	9.686075e-01	1.165548e+00	8.350133e-01	8.411620e-01	8.497306e-01	8.450894e-01	8.334806e-01	8.303667e-01	8.236186e-01	8.240868e-01	8.277640e-01	1.297919e+00	1.267600e+00	8.004062e-01	1.095989e+00	8.586445e-01	8.451584e-01	8.364617e-01	8.287293e-01	1.095796e+00	1.100196e+00	1.077225e+00	8.233484e-01	8.202224e-01	8.163878e-01	1.069810e+00	1.096185e+00	7.876778e-01	7.903147e-01	8.023065e-01	8.042745e-01	7.892724e-01	7.868080e-01	7.855858e-01	9.887575e-01	9.554413e-01	9.471301e-01	9.805099e-01	1.012820e+00	1.062491e+00	1.034811e+00	1.027707e+00	1.005040e+00	9.969929e-01	9.721501e-01	9.637846e-01	9.389094e-01	9.307727e-01	9.072119e-01	8.997897e-01	8.677427e-01	8.631547e-01	8.926800e-01	8.858043e-01	7.963742e-01	7.946586e-01	7.931471e-01	7.918136e-01	8.796884e-01	8.086074e-01	8.197073e-01	9.557566e-01	9.608303e-01	8.691607e-01	8.724126e-01	1.068246e+00	8.344540e-01	7.847046e-01	7.852815e-01	8.095405e-01	8.079376e-01	8.151330e-01	8.137244e-01	1.090965e+00	1.084445e+00	8.946253e-01	8.988275e-01	1.025927e+00	1.297463e+00	8.256879e-01	1.311528e+00	8.533572e-01	8.295814e-01	9.512650e-01	8.778959e-01	1.007541e+00	1.107386e+00	1.101324e+00	1.096600e+00	1.079993e+00	1.116028e+00	1.160568e+00	1.181434e+00	1.153125e+00	1.200914e+00	1.104234e+00	1.282870e+00	9.210929e-01	1.010933e+00	1.131521e+00	8.756535e-01	1.172902e+00	1.220924e+00	9.224911e-01	1.275968e+00	9.271552e-01	1.131604e+00	9.865222e-01	1.190823e+00	8.326632e-01	9.814028e-01	9.178886e-01	1.139422e+00	1.160916e+00	1.096045e+00	8.607010e-01	1.093210e+00	9.158640e-01	1.126004e+00	8.540524e-01	8.093359e-01	8.157791e-01	7.956284e-01	8.006260e-01	1.171563e+00	1.293277e+00	1.184059e+00	9.078699e-01	1.240149e+00	1.055108e+00	9.331192e-01	1.311842e+00	8.673019e-01	8.628627e-01	1.078433e+00	9.806910e-01	1.017596e+00	9.869857e-01	9.234740e-01	1.097588e+00	1.095618e+00	1.051636e+00	1.045002e+00	8.143698e-01	8.111524e-01	8.036886e-01	7.932475e-01	9.089415e-01	9.133663e-01	8.464463e-01	9.410138e-01	7.946603e-01	1.096001e+00	1.136267e+00	1.027696e+00	1.133175e+00	1.249602e+00	1.314847e+00	1.054175e+00	1.186190e+00	1.178445e+00	1.070299e+00	1.122683e+00	8.814078e-01	8.611891e-01	8.225427e-01	9.710581e-01	9.762219e-01	9.914991e-01	9.961758e-01	9.605510e-01	9.462671e-01	1.000410e+00	1.004176e+00	1.029655e+00	1.041173e+00	1.112169e+00	9.416464e-01	9.464686e-01	1.145948e+00	8.651597e-01	8.681436e-01	8.571760e-01	8.595557e-01	1.032171e+00	1.015099e+00	1.021050e+00	8.823431e-01	8.744723e-01	8.812434e-01	8.847694e-01	1.085479e+00	1.099585e+00	9.319294e-01	9.368350e-01	9.100758e-01	8.998633e-01	8.906694e-01	8.884650e-01	8.923346e-01	1.012152e+00	9.934737e-01	9.762145e-01	8.368571e-01	8.423715e-01	8.482153e-01	8.612412e-01	8.558666e-01	8.509759e-01	8.423751e-01	8.387162e-01	8.292421e-01	8.301220e-01	8.355710e-01	8.183125e-01	8.457463e-01	8.373775e-01	1.096491e+00	8.307862e-01	8.264984e-01	8.240370e-01	8.213756e-01	1.071682e+00	8.048159e-01	8.105910e-01	8.074416e-01	8.055579e-01	7.939668e-01	7.936569e-01	7.933556e-01	9.550046e-01	1.065021e+00	1.058268e+00	1.038329e+00	1.031609e+00	1.024771e+00	1.010185e+00	1.002651e+00	9.948858e-01	9.790897e-01	9.710804e-01	9.630402e-01	9.470239e-01	9.390798e-01	9.312376e-01	9.084335e-01	8.704532e-01	8.658624e-01	9.012792e-01	8.943736e-01	8.876933e-01	8.019237e-01	8.002919e-01	7.989042e-01	7.976984e-01	7.966536e-01	8.286808e-01	8.422523e-01	9.561110e-01	9.610620e-01	9.660091e-01	8.713590e-01	8.746020e-01	8.595078e-01	8.809450e-01	7.939761e-01	7.956189e-01	7.977563e-01	8.128506e-01	8.201681e-01	8.187866e-01	8.172486e-01	1.089332e+00	1.084211e+00	1.078214e+00	8.963138e-01	9.004148e-01	9.046185e-01	8.329199e-01	8.309085e-01	1.289847e+00	9.288455e-01	1.129380e+00	1.097721e+00	8.832869e-01	1.261484e+00	1.159443e+00	1.013261e+00	1.018170e+00	1.057841e+00	1.112737e+00	8.558778e-01	1.271210e+00	9.650706e-01	1.206396e+00	1.092400e+00	1.120663e+00	1.171302e+00	9.168611e-01	1.129746e+00	1.185384e+00	1.188069e+00	9.565838e-01	8.746764e-01	1.104390e+00	8.599384e-01	9.409813e-01	8.663827e-01	8.361382e-01	1.101084e+00	8.786774e-01	1.090302e+00	1.087255e+00	9.859774e-01	8.018131e-01	8.130470e-01	1.122088e+00	8.192032e-01	9.867421e-01	1.146705e+00	1.106050e+00	1.144039e+00	1.078610e+00	1.128600e+00	9.236177e-01	1.231581e+00	9.287230e-01	9.328135e-01	1.154548e+00	1.129924e+00	1.180779e+00	1.015009e+00	8.620083e-01	8.182016e-01	1.218839e+00	1.001366e+00	9.249895e-01	1.048318e+00	8.197197e-01	8.166056e-01	8.148343e-01	9.146998e-01	9.196958e-01	1.095734e+00	1.041520e+00	1.085617e+00	1.254691e+00	1.296609e+00	1.080405e+00	1.065688e+00	1.113060e+00	8.848073e-01	9.766543e-01	9.816333e-01	9.916059e-01	9.963289e-01	9.680765e-01	9.539920e-01	1.000738e+00	1.004989e+00	1.009103e+00	1.041527e+00	1.053088e+00	9.470024e-01	9.522235e-01	1.137216e+00	8.683404e-01	8.710511e-01	8.628860e-01	8.648045e-01	1.024076e+00	1.031715e+00	8.898502e-01	8.813648e-01	8.873883e-01	1.091072e+00	1.102713e+00	9.379276e-01	9.431954e-01	9.176676e-01	9.075365e-01	8.985486e-01	8.903767e-01	8.947692e-01	1.037843e+00	1.018471e+00	1.000005e+00	9.832120e-01	8.404649e-01	8.449169e-01	8.501896e-01	8.553939e-01	8.686432e-01	8.630437e-01	8.577710e-01	8.530337e-01	8.487731e-01	8.375112e-01	8.361032e-01	8.450583e-01	8.471750e-01	1.094616e+00	1.093693e+00	8.397908e-01	8.343181e-01	8.307942e-01	8.286073e-01	8.270695e-01	8.271079e-01	8.371625e-01	8.112246e-01	8.095450e-01	8.014792e-01	8.016529e-01	8.022810e-01	8.028917e-01	1.066952e+00	1.060831e+00	1.054648e+00	1.041951e+00	1.035609e+00	1.029246e+00	1.021765e+00	1.008760e+00	1.000682e+00	9.932318e-01	9.779868e-01	9.707152e-01	9.625233e-01	9.553327e-01	9.470523e-01	9.400300e-01	9.317820e-01	8.686721e-01	8.730336e-01	9.103835e-01	9.025838e-01	8.965893e-01	8.893901e-01	8.078869e-01	8.064305e-01	8.050091e-01	8.038849e-01	8.028864e-01	8.021744e-01	8.490773e-01	8.643728e-01	9.617839e-01	9.669437e-01	9.716940e-01	8.742442e-01	8.765890e-01	8.805172e-01	8.836179e-01	9.064005e-01	9.330998e-01	8.038496e-01	8.059714e-01	8.095849e-01	8.138340e-01	8.257271e-01	8.243797e-01	8.228981e-01	8.211764e-01	1.072858e+00	1.083187e+00	1.078406e+00	8.980314e-01	9.026514e-01	9.061499e-01	9.109713e-01	8.418173e-01	8.391900e-01	8.372177e-01	1.148183e+00	1.125366e+00	1.073692e+00	1.177450e+00	1.171338e+00	9.365810e-01	9.369751e-01	1.193528e+00	1.096544e+00	1.235323e+00	1.081370e+00	8.833767e-01	8.094319e-01	1.017858e+00	1.126433e+00	1.234571e+00	1.292028e+00	1.294105e+00	1.281205e+00	1.250774e+00	1.138707e+00	8.241084e-01	1.084549e+00	1.121509e+00	1.026597e+00	9.597521e-01	8.664212e-01	1.115954e+00	1.068563e+00	1.081960e+00	8.786483e-01	8.678089e-01	9.222553e-01	9.811247e-01	8.573465e-01	8.876783e-01	8.249060e-01	1.109707e+00	9.490428e-01	1.165194e+00	1.099834e+00	1.292340e+00	1.182390e+00	1.173224e+00	1.019786e+00	1.061593e+00	1.266657e+00	9.850701e-01	1.215146e+00	1.088010e+00	1.161388e+00	1.177053e+00	1.178079e+00	1.125657e+00	8.426376e-01	8.434307e-01	1.104156e+00	8.878297e-01	1.085357e+00	1.113455e+00	9.277607e-01	1.199650e+00	8.218268e-01	8.208156e-01	8.183685e-01	9.189842e-01	1.052446e+00	1.089203e+00	1.275145e+00	1.103937e+00	9.827134e-01	9.868256e-01	9.921925e-01	9.966122e-01	9.618333e-01	9.760556e-01	1.001726e+00	1.005709e+00	1.010637e+00	1.015693e+00	1.052048e+00	1.062703e+00	9.509834e-01	1.128555e+00	8.714117e-01	8.743077e-01	8.680156e-01	8.703736e-01	1.034013e+00	1.042210e+00	8.971324e-01	8.880694e-01	1.095009e+00	1.104706e+00	9.445491e-01	9.254643e-01	9.146113e-01	9.078956e-01	8.948998e-01	1.042742e+00	1.024202e+00	1.006451e+00	9.909891e-01	8.453880e-01	8.476515e-01	8.527321e-01	8.569714e-01	8.622349e-01	8.755817e-01	8.711116e-01	8.640255e-01	8.604673e-01	8.547260e-01	1.094077e+00	1.092117e+00	1.090210e+00	8.485610e-01	8.433128e-01	8.378697e-01	8.358323e-01	8.327889e-01	8.444680e-01	8.563943e-01	8.174061e-01	8.150644e-01	8.086991e-01	8.113266e-01	8.131546e-01	1.062664e+00	1.057222e+00	1.051142e+00	1.045297e+00	1.039076e+00	1.033123e+00	1.026276e+00	1.016368e+00	1.006950e+00	9.952384e-01	9.664089e-01	9.515899e-01	9.368641e-01	9.080411e-01	8.958129e-01	8.143948e-01	8.122380e-01	8.119137e-01	8.099060e-01	8.101603e-01	8.093247e-01	8.091665e-01	8.704525e-01	8.864440e-01	9.679139e-01	9.723893e-01	9.774272e-01	8.774298e-01	8.812857e-01	9.062049e-01	9.299240e-01	9.557787e-01	8.149827e-01	8.177973e-01	8.224784e-01	8.292922e-01	8.362032e-01	8.319600e-01	8.296775e-01	8.291027e-01	8.272237e-01	1.078155e+00	1.072887e+00	9.025282e-01	9.105558e-01	8.521367e-01	8.476005e-01	8.461688e-01	8.431806e-01	1.166065e+00	1.154382e+00	1.181154e+00	1.254662e+00	1.180684e+00	1.088595e+00	1.106580e+00	1.182917e+00	1.086397e+00	1.141032e+00	1.105923e+00	1.255173e+00	1.082074e+00	1.161586e+00	8.301374e-01	1.177710e+00	1.060287e+00	1.151790e+00	1.141520e+00	1.079411e+00	8.889791e-01	1.101742e+00	8.499377e-01	1.035204e+00	1.024854e+00	9.108177e-01	9.448160e-01	8.871276e-01	1.231134e+00	8.726631e-01	9.707150e-01	9.578884e-01	8.187333e-01	1.094265e+00	1.065977e+00	1.212486e+00	1.030333e+00	1.070051e+00	1.170721e+00	1.097606e+00	1.291088e+00	1.244876e+00	1.113726e+00	9.443284e-01	8.681217e-01	8.546603e-01	1.112152e+00	1.173862e+00	1.129538e+00	1.275043e+00	1.176728e+00	1.064566e+00	1.216911e+00	1.199776e+00	8.889285e-01	1.101746e+00	1.083931e+00	1.080313e+00	8.793605e-01	8.269506e-01	8.236427e-01	9.360594e-01	1.091188e+00	1.122160e+00	1.122329e+00	9.902577e-01	9.996037e-01	9.835333e-01	1.009153e+00	1.017584e+00	1.060621e+00	1.120980e+00	8.761750e-01	1.043387e+00	1.051512e+00	9.002952e-01	1.097439e+00	9.515364e-01	9.589189e-01	9.286769e-01	9.152303e-01	8.956260e-01	1.047011e+00	1.028507e+00	1.011789e+00	1.000256e+00	8.535700e-01	8.612185e-01	8.687679e-01	8.746365e-01	8.642096e-01	1.091469e+00	1.088966e+00	8.445378e-01	8.388135e-01	8.759600e-01	8.207744e-01	8.237420e-01	1.003058e+00	1.056004e+00	1.044760e+00	1.033205e+00	1.022603e+00	1.013197e+00	9.906896e-01	9.769693e-01	9.628413e-01	9.486944e-01	9.344782e-01	9.202864e-01	9.074669e-01	8.975541e-01	8.185582e-01	8.170546e-01	8.170820e-01	8.157006e-01	8.175866e-01	8.919807e-01	9.086862e-01	9.674090e-01	9.754816e-01	9.834021e-01	8.802273e-01	8.839619e-01	9.277121e-01	9.506741e-01	9.757233e-01	1.001779e+00	8.273725e-01	8.308027e-01	8.361680e-01	8.444478e-01	8.550890e-01	8.609362e-01	8.352873e-01	8.334497e-01	1.077765e+00	1.073251e+00	9.030490e-01	9.189310e-01	9.274109e-01	8.562554e-01	8.511807e-01	1.117408e+00	1.166011e+00	1.161167e+00	1.136266e+00	1.025848e+00	1.108387e+00	1.173781e+00	1.135608e+00	1.185567e+00	1.135266e+00	1.147591e+00	1.126762e+00	1.091945e+00	1.193212e+00	1.235463e+00	1.088374e+00	9.517586e-01	8.372156e-01	1.125061e+00	1.017203e+00	1.099621e+00	8.876373e-01	1.066087e+00	1.169567e+00	8.756884e-01	1.043598e+00	9.191943e-01	8.968185e-01	1.083523e+00	1.091438e+00	1.082399e+00	1.067267e+00	1.171376e+00	1.098753e+00	1.103091e+00	1.082826e+00	8.307687e-01	8.989116e-01	9.357732e-01	9.902192e-01	1.150524e+00	1.157258e+00	1.271736e+00	1.075360e+00	1.085453e+00	1.175647e+00	1.099184e+00	1.168588e+00	1.152308e+00	8.910368e-01	1.224779e+00	9.804591e-01	9.652017e-01	1.094865e+00	1.233256e+00	1.067214e+00	1.106551e+00	9.440821e-01	1.254101e+00	1.176114e+00	1.005679e+00	1.213000e+00	1.200085e+00	8.794961e-01	1.117722e+00	1.079336e+00	8.898711e-01	8.339727e-01	9.082375e-01	1.117798e+00	1.142939e+00	9.981440e-01	1.007674e+00	1.025456e+00	1.034348e+00	1.114258e+00	8.794518e-01	1.051264e+00	1.059012e+00	8.698556e-01	9.750170e-01	9.829382e-01	9.589995e-01	9.506067e-01	9.353588e-01	9.205695e-01	1.049361e+00	8.583376e-01	8.629004e-01	9.061683e-01	8.922257e-01	9.273613e-01	1.091463e+00	8.671590e-01	8.556560e-01	8.343530e-01	1.059436e+00	1.049478e+00	1.009678e+00	1.038797e+00	1.028475e+00	1.019033e+00	9.989675e-01	9.865938e-01	9.733382e-01	9.598440e-01	9.462296e-01	9.324422e-01	9.193265e-01	8.279836e-01	8.260465e-01	8.249760e-01	8.247986e-01	8.247439e-01	8.288187e-01	9.121059e-01	9.302125e-01	9.667649e-01	9.901477e-01	8.827620e-01	8.865156e-01	9.480895e-01	9.689255e-01	9.924015e-01	1.015876e+00	1.040430e+00	8.411752e-01	8.467910e-01	8.519715e-01	8.600039e-01	8.719067e-01	8.478362e-01	8.431388e-01	8.401088e-01	1.074533e+00	1.067781e+00	9.037771e-01	9.113395e-01	8.797001e-01	8.695379e-01	8.621723e-01	8.581462e-01	1.152329e+00	1.152964e+00	1.149657e+00	1.121154e+00	1.155660e+00	1.140398e+00	1.113129e+00	1.050505e+00	1.172803e+00	1.120674e+00	1.117923e+00	1.071730e+00	1.165997e+00	1.084790e+00	8.354993e-01	1.137596e+00	1.141586e+00	1.128350e+00	1.169424e+00	1.070460e+00	9.266016e-01	1.027356e+00	1.025005e+00	9.596299e-01	1.132785e+00	1.132007e+00	1.128199e+00	1.171835e+00	1.172149e+00	9.006804e-01	9.