# vtk DataFile Version 3.0
vtk output
ASCII
DATASET UNSTRUCTURED_GRID
POINTS 200 float
9.997500e-01	-3.633242e-05	0.0	9.990000e-01	-1.454720e-04	0.0	9.977600e-01	-3.275035e-04	0.0	9.960200e-01	-5.899061e-04	0.0	9.937800e-01	-9.470182e-04	0.0	9.910500e-01	-1.421883e-03	0.0	9.878400e-01	-2.045026e-03	0.0	9.841300e-01	-2.852695e-03	0.0	9.799500e-01	-3.857151e-03	0.0	9.752800e-01	-5.055521e-03	0.0	9.701500e-01	-6.401007e-03	0.0	9.645400e-01	-7.835178e-03	0.0	9.584700e-01	-9.282770e-03	0.0	9.519400e-01	-1.068849e-02	0.0	9.449600e-01	-1.202444e-02	0.0	9.375400e-01	-1.329505e-02	0.0	9.296900e-01	-1.452765e-02	0.0	9.214000e-01	-1.576051e-02	0.0	9.127000e-01	-1.702091e-02	0.0	9.035800e-01	-1.832991e-02	0.0	8.940600e-01	-1.969119e-02	0.0	8.841500e-01	-2.110017e-02	0.0	8.738500e-01	-2.254866e-02	0.0	8.631800e-01	-2.402456e-02	0.0	8.521600e-01	-2.551722e-02	0.0	8.407700e-01	-2.702346e-02	0.0	8.290500e-01	-2.853404e-02	0.0	8.170100e-01	-3.004509e-02	0.0	8.046400e-01	-3.155579e-02	0.0	7.919700e-01	-3.306047e-02	0.0	7.790100e-01	-3.455587e-02	0.0	7.657800e-01	-3.603737e-02	0.0	7.522800e-01	-3.750241e-02	0.0	7.385200e-01	-3.894716e-02	0.0	7.245300e-01	-4.036574e-02	0.0	7.103200e-01	-4.175452e-02	0.0	6.958900e-01	-4.311096e-02	0.0	6.812700e-01	-4.442984e-02	0.0	6.664700e-01	-4.570818e-02	0.0	6.515000e-01	-4.694319e-02	0.0	6.363800e-01	-4.813156e-02	0.0	6.211300e-01	-4.927037e-02	0.0	6.057600e-01	-5.035775e-02	0.0	5.902800e-01	-5.139206e-02	0.0	5.747100e-01	-5.237124e-02	0.0	5.590600e-01	-5.329409e-02	0.0	5.433600e-01	-5.415852e-02	0.0	5.276100e-01	-5.496431e-02	0.0	5.118400e-01	-5.570979e-02	0.0	4.960500e-01	-5.639490e-02	0.0	4.802700e-01	-5.701825e-02	0.0	4.645100e-01	-5.757944e-02	0.0	4.487800e-01	-5.807797e-02	0.0	4.331100e-01	-5.851275e-02	0.0	4.175000e-01	-5.888353e-02	0.0	4.019700e-01	-5.918939e-02	0.0	3.865400e-01	-5.942943e-02	0.0	3.712300e-01	-5.960275e-02	0.0	3.560400e-01	-5.970854e-02	0.0	3.409900e-01	-5.974565e-02	0.0	3.261100e-01	-5.971297e-02	0.0	3.114000e-01	-5.960934e-02	0.0	2.968700e-01	-5.943341e-02	0.0	2.825500e-01	-5.918410e-02	0.0	2.684500e-01	-5.886012e-02	0.0	2.545700e-01	-5.845982e-02	0.0	2.409400e-01	-5.798235e-02	0.0	2.275700e-01	-5.742646e-02	0.0	2.144700e-01	-5.679088e-02	0.0	2.016600e-01	-5.607496e-02	0.0	1.891400e-01	-5.527706e-02	0.0	1.769300e-01	-5.439679e-02	0.0	1.650400e-01	-5.343337e-02	0.0	1.534900e-01	-5.238704e-02	0.0	1.422900e-01	-5.125759e-02	0.0	1.314400e-01	-5.004379e-02	0.0	1.209500e-01	-4.874545e-02	0.0	1.108500e-01	-4.736540e-02	0.0	1.011300e-01	-4.590153e-02	0.0	9.181000e-02	-4.435598e-02	0.0	8.290000e-02	-4.272994e-02	0.0	7.440000e-02	-4.102281e-02	0.0	6.633000e-02	-3.923818e-02	0.0	5.869000e-02	-3.737580e-02	0.0	5.149000e-02	-3.543772e-02	0.0	4.474000e-02	-3.342652e-02	0.0	3.844000e-02	-3.134191e-02	0.0	3.260000e-02	-2.918678e-02	0.0	2.723000e-02	-2.696482e-02	0.0	2.232000e-02	-2.467104e-02	0.0	1.790000e-02	-2.231941e-02	0.0	1.395000e-02	-1.989912e-02	0.0	1.049000e-02	-1.742138e-02	0.0	7.520000e-03	-1.488703e-02	0.0	5.040000e-03	-1.229616e-02	0.0	3.050000e-03	-9.647073e-03	0.0	1.560000e-03	-6.954722e-03	0.0	5.600000e-04	-4.197587e-03	0.0	6.000000e-05	-1.382079e-03	0.0	0.000000e+00	0.000000e+00	0.0	6.000000e-05	1.261249e-03	0.0	5.600000e-04	3.613920e-03	0.0	1.560000e-03	5.767493e-03	0.0	3.050000e-03	7.774887e-03	0.0	5.040000e-03	9.681565e-03	0.0	7.520000e-03	1.149564e-02	0.0	1.049000e-02	1.323227e-02	0.0	1.395000e-02	1.490210e-02	0.0	1.790000e-02	1.651310e-02	0.0	2.232000e-02	1.806497e-02	0.0	2.723000e-02	1.957084e-02	0.0	3.260000e-02	2.102665e-02	0.0	3.844000e-02	2.244004e-02	0.0	4.474000e-02	2.381239e-02	0.0	5.149000e-02	2.514506e-02	0.0	5.869000e-02	2.644104e-02	0.0	6.633000e-02	2.770104e-02	0.0	7.440000e-02	2.892571e-02	0.0	8.290000e-02	3.011692e-02	0.0	9.181000e-02	3.127355e-02	0.0	1.011300e-01	3.239709e-02	0.0	1.108500e-01	3.348746e-02	0.0	1.209500e-01	3.454352e-02	0.0	1.314400e-01	3.556709e-02	0.0	1.422900e-01	3.655584e-02	0.0	1.534900e-01	3.750949e-02	0.0	1.650400e-01	3.842836e-02	0.0	1.769300e-01	3.931175e-02	0.0	1.891400e-01	4.015813e-02	0.0	2.016600e-01	4.096670e-02	0.0	2.144700e-01	4.173592e-02	0.0	2.275700e-01	4.246533e-02	0.0	2.409400e-01	4.315319e-02	0.0	2.545700e-01	4.379821e-02	0.0	2.684500e-01	4.439895e-02	0.0	2.825500e-01	4.495304e-02	0.0	2.968700e-01	4.545928e-02	0.0	3.114000e-01	4.591584e-02	0.0	3.261100e-01	4.632021e-02	0.0	3.409900e-01	4.667046e-02	0.0	3.560400e-01	4.696468e-02	0.0	3.712300e-01	4.720026e-02	0.0	3.865400e-01	4.737483e-02	0.0	4.019700e-01	4.748622e-02	0.0	4.175000e-01	4.753193e-02	0.0	4.331100e-01	4.750956e-02	0.0	4.487800e-01	4.741685e-02	0.0	4.645100e-01	4.725142e-02	0.0	4.802700e-01	4.701125e-02	0.0	4.960500e-01	4.669431e-02	0.0	5.118400e-01	4.629865e-02	0.0	5.276100e-01	4.582313e-02	0.0	5.433600e-01	4.526604e-02	0.0	5.590600e-01	4.462702e-02	0.0	5.747100e-01	4.390495e-02	0.0	5.902800e-01	4.310049e-02	0.0	6.057600e-01	4.221392e-02	0.0	6.211300e-01	4.124664e-02	0.0	6.363800e-01	4.020009e-02	0.0	6.515000e-01	3.907622e-02	0.0	6.664700e-01	3.787844e-02	0.0	6.812700e-01	3.661099e-02	0.0	6.958900e-01	3.527805e-02	0.0	7.103200e-01	3.388448e-02	0.0	7.245300e-01	3.243788e-02	0.0	7.385200e-01	3.094361e-02	0.0	7.522800e-01	2.940867e-02	0.0	7.657800e-01	2.784298e-02	0.0	7.790100e-01	2.625494e-02	0.0	7.919700e-01	2.465223e-02	0.0	8.046400e-01	2.304537e-02	0.0	8.170100e-01	2.144403e-02	0.0	8.290500e-01	1.986055e-02	0.0	8.407700e-01	1.830173e-02	0.0	8.521600e-01	1.677600e-02	0.0	8.631800e-01	1.529420e-02	0.0	8.738500e-01	1.385681e-02	0.0	8.841500e-01	1.246705e-02	0.0	8.940600e-01	1.112615e-02	0.0	9.035800e-01	9.832426e-03	0.0	9.127000e-01	8.588612e-03	0.0	9.214000e-01	7.405662e-03	0.0	9.296900e-01	6.300118e-03	0.0	9.375400e-01	5.302909e-03	0.0	9.449600e-01	4.443119e-03	0.0	9.519400e-01	3.745626e-03	0.0	9.584700e-01	3.216550e-03	0.0	9.645400e-01	2.835785e-03	0.0	9.701500e-01	2.558599e-03	0.0	9.752800e-01	2.329349e-03	0.0	9.799500e-01	2.095917e-03	0.0	9.841300e-01	1.828658e-03	0.0	9.878400e-01	1.520727e-03	0.0	9.910500e-01	1.190563e-03	0.0	9.937800e-01	8.631517e-04	0.0	9.960200e-01	5.666622e-04	0.0	9.977600e-01	3.231949e-04	0.0	9.990000e-01	1.450789e-04	0.0	9.997500e-01	3.632620e-05	0.0	1.000000e+00	0.000000e+00	0.0	
CELLS 200	600
2	199	0	2	0	1	2	1	2	2	2	3	2	3	4	2	4	5	2	5	6	2	6	7	2	7	8	2	8	9	2	9	10	2	10	11	2	11	12	2	12	13	2	13	14	2	14	15	2	15	16	2	16	17	2	17	18	2	18	19	2	19	20	2	20	21	2	21	22	2	22	23	2	23	24	2	24	25	2	25	26	2	26	27	2	27	28	2	28	29	2	29	30	2	30	31	2	31	32	2	32	33	2	33	34	2	34	35	2	35	36	2	36	37	2	37	38	2	38	39	2	39	40	2	40	41	2	41	42	2	42	43	2	43	44	2	44	45	2	45	46	2	46	47	2	47	48	2	48	49	2	49	50	2	50	51	2	51	52	2	52	53	2	53	54	2	54	55	2	55	56	2	56	57	2	57	58	2	58	59	2	59	60	2	60	61	2	61	62	2	62	63	2	63	64	2	64	65	2	65	66	2	66	67	2	67	68	2	68	69	2	69	70	2	70	71	2	71	72	2	72	73	2	73	74	2	74	75	2	75	76	2	76	77	2	77	78	2	78	79	2	79	80	2	80	81	2	81	82	2	82	83	2	83	84	2	84	85	2	85	86	2	86	87	2	87	88	2	88	89	2	89	90	2	90	91	2	91	92	2	92	93	2	93	94	2	94	95	2	95	96	2	96	97	2	97	98	2	98	99	2	99	100	2	100	101	2	101	102	2	102	103	2	103	104	2	104	105	2	105	106	2	106	107	2	107	108	2	108	109	2	109	110	2	110	111	2	111	112	2	112	113	2	113	114	2	114	115	2	115	116	2	116	117	2	117	118	2	118	119	2	119	120	2	120	121	2	121	122	2	122	123	2	123	124	2	124	125	2	125	126	2	126	127	2	127	128	2	128	129	2	129	130	2	130	131	2	131	132	2	132	133	2	133	134	2	134	135	2	135	136	2	136	137	2	137	138	2	138	139	2	139	140	2	140	141	2	141	142	2	142	143	2	143	144	2	144	145	2	145	146	2	146	147	2	147	148	2	148	149	2	149	150	2	150	151	2	151	152	2	152	153	2	153	154	2	154	155	2	155	156	2	156	157	2	157	158	2	158	159	2	159	160	2	160	161	2	161	162	2	162	163	2	163	164	2	164	165	2	165	166	2	166	167	2	167	168	2	168	169	2	169	170	2	170	171	2	171	172	2	172	173	2	173	174	2	174	175	2	175	176	2	176	177	2	177	178	2	178	179	2	179	180	2	180	181	2	181	182	2	182	183	2	183	184	2	184	185	2	185	186	2	186	187	2	187	188	2	188	189	2	189	190	2	190	191	2	191	192	2	192	193	2	193	194	2	194	195	2	195	196	2	196	197	2	197	198	2	198	199	
CELL_TYPES 200
3	3	3	3	3	3	3	3	3	3	3	3	3	3	3	3	3	3	3	3	3	3	3	3	3	3	3	3	3	3	3	3	3	3	3	3	3	3	3	3	3	3	3	3	3	3	3	3	3	3	3	3	3	3	3	3	3	3	3	3	3	3	3	3	3	3	3	3	3	3	3	3	3	3	3	3	3	3	3	3	3	3	3	3	3	3	3	3	3	3	3	3	3	3	3	3	3	3	3	3	3	3	3	3	3	3	3	3	3	3	3	3	3	3	3	3	3	3	3	3	3	3	3	3	3	3	3	3	3	3	3	3	3	3	3	3	3	3	3	3	3	3	3	3	3	3	3	3	3	3	3	3	3	3	3	3	3	3	3	3	3	3	3	3	3	3	3	3	3	3	3	3	3	3	3	3	3	3	3	3	3	3	3	3	3	3	3	3	3	3	3	3	3	3	3	3	3	3	3	3	
POINT_DATA 200

SCALARS Conservative_1 float 1
LOOKUP_TABLE default
1.199828e+00	1.181590e+00	1.171156e+00	1.164703e+00	1.160117e+00	1.155639e+00	1.148745e+00	1.137821e+00	1.121640e+00	1.100291e+00	1.075015e+00	1.048424e+00	1.024886e+00	1.008384e+00	1.000040e+00	9.980063e-01	9.991364e-01	1.000598e+00	1.000642e+00	9.986698e-01	9.949013e-01	9.898928e-01	9.842292e-01	9.783819e-01	9.726287e-01	9.670811e-01	9.617313e-01	9.565333e-01	9.514228e-01	9.463687e-01	9.413551e-01	9.363383e-01	9.312843e-01	9.262094e-01	9.211645e-01	9.161976e-01	9.113271e-01	9.065574e-01	9.018997e-01	8.973700e-01	8.929680e-01	8.887039e-01	8.845602e-01	8.805531e-01	8.766973e-01	8.730446e-01	8.695850e-01	8.662555e-01	8.629099e-01	8.595388e-01	8.563434e-01	8.536731e-01	8.516339e-01	8.499259e-01	8.478749e-01	8.447445e-01	8.400685e-01	8.340324e-01	8.275294e-01	8.217839e-01	8.176346e-01	8.152488e-01	8.143531e-01	8.145262e-01	8.154689e-01	8.169885e-01	8.190387e-01	8.215376e-01	8.243998e-01	8.275115e-01	8.308878e-01	8.346863e-01	8.391515e-01	8.443544e-01	8.502230e-01	8.566117e-01	8.635826e-01	8.713112e-01	8.798543e-01	8.892510e-01	8.996129e-01	9.109981e-01	9.235571e-01	9.374068e-01	9.527357e-01	9.698190e-01	9.888838e-01	1.010287e+00	1.034514e+00	1.061879e+00	1.092916e+00	1.128097e+00	1.167282e+00	1.210026e+00	1.254629e+00	1.298098e+00	1.331813e+00	1.350927e+00	1.339365e+00	1.307777e+00	1.283460e+00	1.219696e+00	1.097122e+00	9.992107e-01	9.232866e-01	8.679770e-01	8.304904e-01	8.059479e-01	7.895332e-01	7.785055e-01	7.711705e-01	7.663640e-01	7.635314e-01	7.619414e-01	7.612242e-01	7.613791e-01	7.622805e-01	7.636941e-01	7.652998e-01	7.667764e-01	7.681499e-01	7.697460e-01	7.718165e-01	7.742034e-01	7.765067e-01	7.785073e-01	7.803036e-01	7.820470e-01	7.838393e-01	7.857461e-01	7.878143e-01	7.900213e-01	7.922892e-01	7.945116e-01	7.966355e-01	7.986212e-01	8.004469e-01	8.020730e-01	8.035038e-01	8.048230e-01	8.061376e-01	8.074361e-01	8.085971e-01	8.095360e-01	8.104469e-01	8.119369e-01	8.149195e-01	8.202475e-01	8.279017e-01	8.365713e-01	8.442446e-01	8.499870e-01	8.544498e-01	8.589154e-01	8.642175e-01	8.704098e-01	8.771397e-01	8.841347e-01	8.914121e-01	8.990144e-01	9.069400e-01	9.151202e-01	9.234950e-01	9.320403e-01	9.407282e-01	9.495490e-01	9.584556e-01	9.674289e-01	9.763944e-01	9.853542e-01	9.942258e-01	1.002929e+00	1.011401e+00	1.019558e+00	1.027356e+00	1.034772e+00	1.041855e+00	1.048785e+00	1.055820e+00	1.063350e+00	1.071670e+00	1.080876e+00	1.090586e+00	1.099941e+00	1.107692e+00	1.112508e+00	1.113304e+00	1.109718e+00	1.102513e+00	1.093850e+00	1.086795e+00	1.084307e+00	1.088216e+00	1.098411e+00	1.112951e+00	1.130079e+00	1.148509e+00	1.168641e+00	1.192694e+00	1.181115e+00	
SCALARS Conservative_2 float 1
LOOKUP_TABLE default
7.196143e-01	7.459926e-01	7.640973e-01	7.749246e-01	7.808368e-01	7.856300e-01	7.914528e-01	8.011297e-01	8.161429e-01	8.365441e-01	8.606174e-01	8.850371e-01	9.061648e-01	9.216240e-01	9.308275e-01	9.347714e-01	9.355098e-01	9.351360e-01	9.351082e-01	9.360378e-01	9.379787e-01	9.406301e-01	9.436164e-01	9.466472e-01	9.495352e-01	9.522142e-01	9.546788e-01	9.569707e-01	9.591003e-01	9.610996e-01	9.630037e-01	9.648048e-01	9.665171e-01	9.681386e-01	9.696566e-01	9.710590e-01	9.723606e-01	9.735422e-01	9.746141e-01	9.755915e-01	9.764555e-01	9.772408e-01	9.779211e-01	9.785335e-01	9.790452e-01	9.794969e-01	9.798660e-01	9.802042e-01	9.804797e-01	9.807318e-01	9.809014e-01	9.810158e-01	9.810602e-01	9.810920e-01	9.811299e-01	9.812039e-01	9.812380e-01	9.811530e-01	9.808242e-01	9.803349e-01	9.798434e-01	9.794430e-01	9.792028e-01	9.790577e-01	9.790087e-01	9.789662e-01	9.789533e-01	9.788984e-01	9.788151e-01	9.786363e-01	9.783752e-01	9.779774e-01	9.774439e-01	9.766946e-01	9.757168e-01	9.743707e-01	9.726764e-01	9.705389e-01	9.677291e-01	9.640917e-01	9.595371e-01	9.537752e-01	9.465434e-01	9.374274e-01	9.259147e-01	9.112799e-01	8.925963e-01	8.687943e-01	8.383073e-01	7.989916e-01	7.483645e-01	6.833735e-01	6.003369e-01	4.970063e-01	3.733126e-01	2.369516e-01	1.074700e-01	1.056464e-02	-2.182373e-02	5.232598e-03	7.363972e-02	2.120682e-01	4.159746e-01	5.927540e-01	7.172168e-01	7.981914e-01	8.492846e-01	8.818620e-01	9.029245e-01	9.171360e-01	9.271155e-01	9.342614e-01	9.397321e-01	9.440237e-01	9.474783e-01	9.504463e-01	9.529867e-01	9.551848e-01	9.571378e-01	9.588264e-01	9.603376e-01	9.617811e-01	9.631696e-01	9.644155e-01	9.655250e-01	9.665012e-01	9.674001e-01	9.682264e-01	9.690195e-01	9.697757e-01	9.705246e-01	9.712456e-01	9.719416e-01	9.725811e-01	9.731769e-01	9.737130e-01	9.742006e-01	9.746331e-01	9.750170e-01	9.753674e-01	9.757060e-01	9.760006e-01	9.762493e-01	9.764705e-01	9.767182e-01	9.770841e-01	9.776126e-01	9.783200e-01	9.789530e-01	9.793080e-01	9.793159e-01	9.792062e-01	9.791239e-01	9.790119e-01	9.787671e-01	9.782942e-01	9.776125e-01	9.766697e-01	9.755025e-01	9.740619e-01	9.723441e-01	9.703172e-01	9.679869e-01	9.653370e-01	9.623662e-01	9.590655e-01	9.554350e-01	9.515136e-01	9.472363e-01	9.427149e-01	9.379557e-01	9.329780e-01	9.278973e-01	9.227680e-01	9.176452e-01	9.125539e-01	9.074386e-01	9.021760e-01	8.964743e-01	8.900380e-01	8.825324e-01	8.739512e-01	8.647196e-01	8.559182e-01	8.490830e-01	8.457758e-01	8.470029e-01	8.526683e-01	8.613159e-01	8.702870e-01	8.762860e-01	8.766790e-01	8.701624e-01	8.574659e-01	8.393157e-01	8.172533e-01	7.909834e-01	7.594677e-01	7.211509e-01	6.622953e-01	
SCALARS Conservative_3 float 1
LOOKUP_TABLE default
1.010143e-01	1.066715e-01	1.128646e-01	1.197548e-01	1.301561e-01	1.447511e-01	1.631937e-01	1.835723e-01	2.027413e-01	2.167824e-01	2.225176e-01	2.183734e-01	2.053194e-01	1.871500e-01	1.685868e-01	1.532944e-01	1.429087e-01	1.371882e-01	1.347815e-01	1.340569e-01	1.337185e-01	1.330023e-01	1.316220e-01	1.296044e-01	1.271172e-01	1.243593e-01	1.214644e-01	1.185219e-01	1.155578e-01	1.125602e-01	1.095181e-01	1.064112e-01	1.032283e-01	9.996190e-02	9.659815e-02	9.315191e-02	8.961955e-02	8.601945e-02	8.235793e-02	7.864678e-02	7.489918e-02	7.112177e-02	6.733298e-02	6.353416e-02	5.973281e-02	5.592016e-02	5.209993e-02	4.828399e-02	4.449574e-02	4.073924e-02	3.697793e-02	3.315503e-02	2.924859e-02	2.524700e-02	2.118446e-02	1.710476e-02	1.304998e-02	9.001742e-03	4.850602e-03	4.677875e-04	-4.179373e-03	-9.070059e-03	-1.419467e-02	-1.954302e-02	-2.515330e-02	-3.105319e-02	-3.729840e-02	-4.390558e-02	-5.090821e-02	-5.832580e-02	-6.620435e-02	-7.460686e-02	-8.360333e-02	-9.322618e-02	-1.035181e-01	-1.145298e-01	-1.263714e-01	-1.391084e-01	-1.528163e-01	-1.676180e-01	-1.836310e-01	-2.009667e-01	-2.197795e-01	-2.402035e-01	-2.623583e-01	-2.863621e-01	-3.122872e-01	-3.400816e-01	-3.693649e-01	-3.994166e-01	-4.287774e-01	-4.543662e-01	-4.711370e-01	-4.706927e-01	-4.400978e-01	-3.638191e-01	-2.299642e-01	-3.699010e-02	1.875456e-01	3.542459e-01	4.990765e-01	6.636092e-01	7.246833e-01	6.877158e-01	6.094109e-01	5.253250e-01	4.508967e-01	3.893694e-01	3.394787e-01	2.987629e-01	2.654561e-01	2.377659e-01	2.145187e-01	1.947658e-01	1.777758e-01	1.630386e-01	1.501720e-01	1.388265e-01	1.287499e-01	1.196715e-01	1.113964e-01	1.038575e-01	9.700486e-02	9.074542e-02	8.494774e-02	7.946874e-02	7.428466e-02	6.937233e-02	6.472134e-02	6.028126e-02	5.601965e-02	5.190475e-02	4.790605e-02	4.398587e-02	4.012086e-02	3.629030e-02	3.247947e-02	2.866774e-02	2.482934e-02	2.095014e-02	1.703464e-02	1.308034e-02	9.058205e-03	4.914406e-03	6.202086e-04	-3.833183e-03	-8.408485e-03	-1.300858e-02	-1.755367e-02	-2.206376e-02	-2.678195e-02	-3.188098e-02	-3.724105e-02	-4.267673e-02	-4.807202e-02	-5.344768e-02	-5.886026e-02	-6.433161e-02	-6.981964e-02	-7.526899e-02	-8.062334e-02	-8.586561e-02	-9.094078e-02	-9.582351e-02	-1.004435e-01	-1.047757e-01	-1.087490e-01	-1.123293e-01	-1.154619e-01	-1.181028e-01	-1.202120e-01	-1.217560e-01	-1.227362e-01	-1.231789e-01	-1.231566e-01	-1.228152e-01	-1.223287e-01	-1.218744e-01	-1.215230e-01	-1.211102e-01	-1.201045e-01	-1.176122e-01	-1.125190e-01	-1.039439e-01	-9.169822e-02	-7.670230e-02	-6.111328e-02	-4.800834e-02	-4.062129e-02	-4.114694e-02	-4.967946e-02	-6.399195e-02	-8.029263e-02	-9.486812e-02	-1.050076e-01	-1.097924e-01	-1.102648e-01	-1.061764e-01	-1.003288e-01	2.585492e-03	
SCALARS Conservative_4 float 1
LOOKUP_TABLE default
3.446405e+00	3.400762e+00	3.375448e+00	3.359896e+00	3.348713e+00	3.337809e+00	3.320689e+00	3.293486e+00	3.253112e+00	3.199798e+00	3.136564e+00	3.069801e+00	3.010527e+00	2.968952e+00	2.947959e+00	2.942834e+00	2.945634e+00	2.949239e+00	2.949257e+00	2.944168e+00	2.934535e+00	2.921754e+00	2.907296e+00	2.892353e+00	2.877628e+00	2.863408e+00	2.849671e+00	2.836309e+00	2.823152e+00	2.810124e+00	2.797192e+00	2.784236e+00	2.771168e+00	2.758033e+00	2.744960e+00	2.732074e+00	2.719427e+00	2.707026e+00	2.694901e+00	2.683101e+00	2.671616e+00	2.660486e+00	2.649654e+00	2.639173e+00	2.629073e+00	2.619501e+00	2.610422e+00	2.601687e+00	2.592900e+00	2.584048e+00	2.575641e+00	2.568606e+00	2.563215e+00	2.558697e+00	2.553286e+00	2.545057e+00	2.532768e+00	2.516887e+00	2.499724e+00	2.484511e+00	2.473493e+00	2.467129e+00	2.464727e+00	2.465161e+00	2.467652e+00	2.471668e+00	2.477100e+00	2.483713e+00	2.491291e+00	2.499520e+00	2.508448e+00	2.518476e+00	2.530257e+00	2.543960e+00	2.559404e+00	2.576177e+00	2.594465e+00	2.614722e+00	2.637049e+00	2.661534e+00	2.688484e+00	2.718014e+00	2.750503e+00	2.786216e+00	2.825600e+00	2.869309e+00	2.917854e+00	2.972111e+00	3.033230e+00	3.101862e+00	3.179276e+00	3.266533e+00	3.363028e+00	3.467611e+00	3.575994e+00	3.681403e+00	3.762643e+00	3.809791e+00	3.780833e+00	3.701663e+00	3.647704e+00	3.496409e+00	3.184814e+00	2.935641e+00	2.740736e+00	2.597988e+00	2.501040e+00	2.437505e+00	2.394863e+00	2.366127e+00	2.346994e+00	2.334403e+00	2.327008e+00	2.322887e+00	2.321067e+00	2.321583e+00	2.324070e+00	2.327904e+00	2.332261e+00	2.336272e+00	2.340018e+00	2.344372e+00	2.349985e+00	2.356408e+00	2.362596e+00	2.367974e+00	2.372815e+00	2.377511e+00	2.382338e+00	2.387463e+00	2.393019e+00	2.398937e+00	2.405014e+00	2.410963e+00	2.416648e+00	2.421959e+00	2.426842e+00	2.431193e+00	2.435023e+00	2.438555e+00	2.442078e+00	2.445549e+00	2.448651e+00	2.451169e+00	2.453630e+00	2.457652e+00	2.465639e+00	2.479834e+00	2.500115e+00	2.522998e+00	2.543190e+00	2.558300e+00	2.570078e+00	2.581872e+00	2.595846e+00	2.612116e+00	2.629768e+00	2.648069e+00	2.667081e+00	2.686902e+00	2.707532e+00	2.728782e+00	2.750496e+00	2.772607e+00	2.795043e+00	2.817777e+00	2.840683e+00	2.863722e+00	2.886676e+00	2.909582e+00	2.932219e+00	2.954373e+00	2.975906e+00	2.996606e+00	3.016361e+00	3.035123e+00	3.053008e+00	3.070478e+00	3.088166e+00	3.107058e+00	3.127873e+00	3.150863e+00	3.175076e+00	3.198401e+00	3.217772e+00	3.229903e+00	3.232070e+00	3.223312e+00	3.205444e+00	3.183811e+00	3.166039e+00	3.159561e+00	3.169032e+00	3.194332e+00	3.230376e+00	3.272795e+00	3.318147e+00	3.367472e+00	3.426912e+00	3.383817e+00	
SCALARS Pressure float 1
LOOKUP_TABLE default
1.290541e+00	1.264183e+00	1.248300e+00	1.238378e+00	1.231454e+00	1.224680e+00	1.214581e+00	1.198657e+00	1.175145e+00	1.144173e+00	1.107618e+00	1.069401e+00	1.035745e+00	1.012168e+00	1.000219e+00	9.973159e-01	9.989784e-01	1.001142e+00	1.001299e+00	9.986016e-01	9.933569e-01	9.863638e-01	9.784621e-01	9.703193e-01	9.623307e-01	9.546496e-01	9.472647e-01	9.401048e-01	9.330858e-01	9.261601e-01	9.192984e-01	9.124482e-01	9.055623e-01	8.986622e-01	8.918177e-01	8.850942e-01	8.785120e-01	8.720826e-01	8.658181e-01	8.597354e-01	8.538404e-01	8.481364e-01	8.426092e-01	8.372692e-01	8.321469e-01	8.272981e-01	8.227181e-01	8.183083e-01	8.138873e-01	8.094303e-01	8.052215e-01	8.017140e-01	7.990539e-01	7.968288e-01	7.941428e-01	7.900123e-01	7.838406e-01	7.758904e-01	7.673805e-01	7.599093e-01	7.545463e-01	7.514903e-01	7.503567e-01	7.506059e-01	7.518365e-01	7.538197e-01	7.564822e-01	7.597356e-01	7.634570e-01	7.675136e-01	7.719155e-01	7.768834e-01	7.827315e-01	7.895698e-01	7.972943e-01	8.057445e-01	8.149774e-01	8.252335e-01	8.366351e-01	8.492484e-01	8.632065e-01	8.786267e-01	8.957206e-01	9.146866e-01	9.358210e-01	9.595576e-01	9.862807e-01	1.016525e+00	1.051054e+00	1.090460e+00	1.135579e+00	1.187218e+00	1.245428e+00	1.309597e+00	1.377306e+00	1.443517e+00	1.495381e+00	1.523697e+00	1.507010e+00	1.461470e+00	1.419423e+00	1.318978e+00	1.146647e+00	1.009264e+00	9.044188e-01	8.288036e-01	7.777542e-01	7.443944e-01	7.222316e-01	7.074293e-01	6.976033e-01	6.912191e-01	6.874303e-01	6.852739e-01	6.842625e-01	6.843581e-01	6.854302e-01	6.871763e-01	6.891595e-01	6.909777e-01	6.926544e-01	6.946015e-01	6.971630e-01	7.001638e-01	7.030691e-01	7.055890e-01	7.078403e-01	7.100278e-01	7.122767e-01	7.146791e-01	7.172889e-01	7.200844e-01	7.229603e-01	7.257861e-01	7.284866e-01	7.310152e-01	7.333392e-01	7.354086e-01	7.372276e-01	7.389030e-01	7.405707e-01	7.422261e-01	7.437077e-01	7.448961e-01	7.460317e-01	7.478926e-01	7.516810e-01	7.585211e-01	7.684588e-01	7.798033e-01	7.899064e-01	7.974670e-01	8.033085e-01	8.091446e-01	8.161036e-01	8.242801e-01	8.331984e-01	8.425136e-01	8.522335e-01	8.624258e-01	8.730865e-01	8.841326e-01	8.954827e-01	9.071080e-01	9.189720e-01	9.310631e-01	9.433206e-01	9.557083e-01	9.681499e-01	9.806176e-01	9.930064e-01	1.005212e+00	1.017126e+00	1.028633e+00	1.039661e+00	1.050180e+00	1.060258e+00	1.070146e+00	1.080234e+00	1.091070e+00	1.103102e+00	1.116458e+00	1.130582e+00	1.144189e+00	1.155420e+00	1.162304e+00	1.163277e+00	1.157877e+00	1.147301e+00	1.134732e+00	1.124651e+00	1.121307e+00	1.127268e+00	1.142219e+00	1.163577e+00	1.188780e+00	1.216191e+00	1.246348e+00	1.281870e+00	1.279251e+00	
SCALARS Temperature float 1
LOOKUP_TABLE default
1.075605e+00	1.069899e+00	1.065870e+00	1.063256e+00	1.061491e+00	1.059742e+00	1.057311e+00	1.053467e+00	1.047703e+00	1.039883e+00	1.030328e+00	1.020008e+00	1.010595e+00	1.003753e+00	1.000179e+00	9.993083e-01	9.998418e-01	1.000544e+00	1.000656e+00	9.999317e-01	9.984477e-01	9.964350e-01	9.941405e-01	9.917593e-01	9.894122e-01	9.871453e-01	9.849578e-01	9.828250e-01	9.807267e-01	9.786461e-01	9.765692e-01	9.744857e-01	9.723800e-01	9.702581e-01	9.681416e-01	9.660516e-01	9.639919e-01	9.619717e-01	9.599939e-01	9.580613e-01	9.561826e-01	9.543520e-01	9.525742e-01	9.508447e-01	9.491839e-01	9.476012e-01	9.461043e-01	9.446500e-01	9.431892e-01	9.417030e-01	9.403022e-01	9.391346e-01	9.382599e-01	9.375273e-01	9.366274e-01	9.352086e-01	9.330675e-01	9.302882e-01	9.273151e-01	9.247070e-01	9.228405e-01	9.217926e-01	9.214144e-01	9.215245e-01	9.219684e-01	9.226810e-01	9.236221e-01	9.247728e-01	9.260762e-01	9.274960e-01	9.290250e-01	9.307489e-01	9.327654e-01	9.351166e-01	9.377473e-01	9.406182e-01	9.437167e-01	9.471168e-01	9.508791e-01	9.550153e-01	9.595311e-01	9.644659e-01	9.698594e-01	9.757627e-01	9.822462e-01	9.894193e-01	9.973677e-01	1.006174e+00	1.015988e+00	1.026915e+00	1.039036e+00	1.052408e+00	1.066947e+00	1.082288e+00	1.097780e+00	1.112025e+00	1.122817e+00	1.127890e+00	1.125167e+00	1.117522e+00	1.105935e+00	1.081399e+00	1.045141e+00	1.010061e+00	9.795646e-01	9.548682e-01	9.364999e-01	9.236259e-01	9.147576e-01	9.087018e-01	9.046033e-01	9.019462e-01	9.003301e-01	8.993789e-01	8.988974e-01	8.988402e-01	8.991837e-01	8.998058e-01	9.005091e-01	9.011463e-01	9.017177e-01	9.023774e-01	9.032755e-01	9.043668e-01	9.054256e-01	9.063358e-01	9.071344e-01	9.079093e-01	9.087024e-01	9.095547e-01	9.104798e-01	9.114747e-01	9.124956e-01	9.134997e-01	9.144541e-01	9.153466e-01	9.161622e-01	9.168848e-01	9.175159e-01	9.180938e-01	9.186654e-01	9.192383e-01	9.197507e-01	9.201519e-01	9.205189e-01	9.211216e-01	9.223990e-01	9.247467e-01	9.282005e-01	9.321420e-01	9.356369e-01	9.382107e-01	9.401472e-01	9.420539e-01	9.443266e-01	9.470023e-01	9.499039e-01	9.529245e-01	9.560488e-01	9.593014e-01	9.626728e-01	9.661383e-01	9.696671e-01	9.732497e-01	9.768730e-01	9.805319e-01	9.842089e-01	9.878847e-01	9.915562e-01	9.951930e-01	9.987735e-01	1.002276e+00	1.005661e+00	1.008900e+00	1.011978e+00	1.014890e+00	1.017664e+00	1.020368e+00	1.023123e+00	1.026069e+00	1.029330e+00	1.032919e+00	1.036674e+00	1.040228e+00	1.043088e+00	1.044760e+00	1.044887e+00	1.043398e+00	1.040624e+00	1.037374e+00	1.034833e+00	1.034123e+00	1.035886e+00	1.039883e+00	1.045489e+00	1.051944e+00	1.058930e+00	1.066493e+00	1.074768e+00	1.083087e+00	
SCALARS Pressure_Coefficient float 1
LOOKUP_TABLE default
6.485298e-01	5.896938e-01	5.542406e-01	5.320938e-01	5.166376e-01	5.015172e-01	4.789754e-01	4.434315e-01	3.909487e-01	3.218151e-01	2.402185e-01	1.549133e-01	7.978846e-02	2.716127e-02	4.877764e-04	-5.991294e-03	-2.280324e-03	2.549528e-03	2.899079e-03	-3.121451e-03	-1.482838e-02	-3.043784e-02	-4.807568e-02	-6.625153e-02	-8.408335e-02	-1.012287e-01	-1.177126e-01	-1.336946e-01	-1.493621e-01	-1.648212e-01	-1.801375e-01	-1.954281e-01	-2.107985e-01	-2.262004e-01	-2.414784e-01	-2.564863e-01	-2.711786e-01	-2.855299e-01	-2.995131e-01	-3.130906e-01	-3.262491e-01	-3.389812e-01	-3.513188e-01	-3.632384e-01	-3.746720e-01	-3.854953e-01	-3.957186e-01	-4.055619e-01	-4.154301e-01	-4.253788e-01	-4.347734e-01	-4.426027e-01	-4.485403e-01	-4.535072e-01	-4.595026e-01	-4.687225e-01	-4.824986e-01	-5.002446e-01	-5.192399e-01	-5.359167e-01	-5.478877e-01	-5.547092e-01	-5.572395e-01	-5.566833e-01	-5.539364e-01	-5.495096e-01	-5.435664e-01	-5.363045e-01	-5.279977e-01	-5.189427e-01	-5.091171e-01	-4.980282e-01	-4.849743e-01	-4.697102e-01	-4.524682e-01	-4.336059e-01	-4.129969e-01	-3.901039e-01	-3.646539e-01	-3.364992e-01	-3.053425e-01	-2.709227e-01	-2.327665e-01	-1.904317e-01	-1.432568e-01	-9.027322e-02	-3.062342e-02	3.688702e-02	1.139587e-01	2.019200e-01	3.026320e-01	4.178969e-01	5.478307e-01	6.910645e-01	8.422019e-01	9.899940e-01	1.105762e+00	1.168967e+00	1.131719e+00	1.030066e+00	9.362124e-01	7.120046e-01	3.273366e-01	2.067896e-02	-2.133509e-01	-3.821348e-01	-4.960844e-01	-5.705483e-01	-6.200189e-01	-6.530595e-01	-6.749925e-01	-6.892430e-01	-6.977001e-01	-7.025135e-01	-7.047713e-01	-7.045578e-01	-7.021647e-01	-6.982671e-01	-6.938404e-01	-6.897819e-01	-6.860394e-01	-6.816932e-01	-6.759755e-01	-6.692771e-01	-6.627922e-01	-6.571674e-01	-6.521422e-01	-6.472595e-01	-6.422395e-01	-6.368771e-01	-6.310515e-01	-6.248115e-01	-6.183921e-01	-6.120846e-01	-6.060567e-01	-6.004125e-01	-5.952251e-01	-5.906058e-01	-5.865456e-01	-5.828058e-01	-5.790833e-01	-5.753881e-01	-5.720809e-01	-5.694284e-01	-5.668935e-01	-5.627398e-01	-5.542836e-01	-5.390153e-01	-5.168331e-01	-4.915106e-01	-4.689589e-01	-4.520827e-01	-4.390435e-01	-4.260165e-01	-4.104831e-01	-3.922319e-01	-3.723249e-01	-3.515322e-01	-3.298359e-01	-3.070853e-01	-2.832891e-01	-2.586326e-01	-2.332975e-01	-2.073482e-01	-1.808662e-01	-1.538770e-01	-1.265165e-01	-9.886550e-02	-7.109394e-02	-4.326420e-02	-1.561068e-02	1.163351e-02	3.822762e-02	6.391209e-02	8.852984e-02	1.120079e-01	1.345043e-01	1.565764e-01	1.790929e-01	2.032803e-01	2.301384e-01	2.599502e-01	2.914783e-01	3.218513e-01	3.469205e-01	3.622868e-01	3.644574e-01	3.524044e-01	3.287975e-01	3.007400e-01	2.782387e-01	2.707751e-01	2.840793e-01	3.174536e-01	3.651278e-01	4.213840e-01	4.825688e-01	5.498839e-01	6.291732e-01	6.233280e-01	
SCALARS Mach float 1
LOOKUP_TABLE default
4.935458e-01	5.211074e-01	5.398893e-01	5.518055e-01	5.597414e-01	5.675196e-01	5.781991e-01	5.947940e-01	6.190599e-01	6.509367e-01	6.884871e-01	7.275984e-01	7.621671e-01	7.867287e-01	7.993884e-01	8.024556e-01	8.005767e-01	7.980995e-01	7.977037e-01	8.002601e-01	8.054809e-01	8.125326e-01	8.205324e-01	8.287912e-01	8.368904e-01	8.446751e-01	8.521532e-01	8.594132e-01	8.665269e-01	8.735532e-01	8.805407e-01	8.875248e-01	8.945575e-01	9.016197e-01	9.086397e-01	9.155486e-01	9.223360e-01	9.289727e-01	9.354515e-01	9.417647e-01	9.478858e-01	9.538350e-01	9.595995e-01	9.651945e-01	9.705562e-01	9.756554e-01	9.804696e-01	9.851386e-01	9.898206e-01	9.945763e-01	9.990519e-01	1.002777e+00	1.005565e+00	1.007898e+00	1.010761e+00	1.015270e+00	1.022063e+00	1.030859e+00	1.040244e+00	1.048457e+00	1.054324e+00	1.057614e+00	1.058800e+00	1.058455e+00	1.057062e+00	1.054825e+00	1.051868e+00	1.048250e+00	1.044148e+00	1.039674e+00	1.034850e+00	1.029403e+00	1.023020e+00	1.015562e+00	1.007197e+00	9.980427e-01	9.881307e-01	9.772141e-01	9.650833e-01	9.516810e-01	9.369647e-01	9.207758e-01	9.029438e-01	8.832471e-01	8.613785e-01	8.368660e-01	8.092690e-01	7.780877e-01	7.424811e-01	7.015740e-01	6.543213e-01	5.993074e-01	5.349213e-01	4.595742e-01	3.710366e-01	2.680642e-01	1.520176e-01	2.266125e-02	1.123197e-01	2.165840e-01	3.158879e-01	4.642147e-01	6.296278e-01	7.641003e-01	8.704549e-01	9.521591e-01	1.011166e+00	1.051856e+00	1.079630e+00	1.098495e+00	1.111221e+00	1.119455e+00	1.124457e+00	1.127399e+00	1.128888e+00	1.129065e+00	1.128003e+00	1.126079e+00	1.123903e+00	1.121931e+00	1.120162e+00	1.118119e+00	1.115337e+00	1.111954e+00	1.108670e+00	1.105845e+00	1.103365e+00	1.100958e+00	1.098493e+00	1.095842e+00	1.092964e+00	1.089866e+00	1.086686e+00	1.083555e+00	1.080578e+00	1.077791e+00	1.075244e+00	1.072985e+00	1.071012e+00	1.069204e+00	1.067415e+00	1.065621e+00	1.064016e+00	1.062759e+00	1.061609e+00	1.059719e+00	1.055710e+00	1.048332e+00	1.037452e+00	1.024994e+00	1.013909e+00	1.005721e+00	9.995467e-01	9.934543e-01	9.861758e-01	9.775823e-01	9.682330e-01	9.584647e-01	9.483209e-01	9.377155e-01	9.266716e-01	9.152627e-01	9.035824e-01	8.916558e-01	8.795202e-01	8.671861e-01	8.547057e-01	8.421398e-01	8.294936e-01	8.168681e-01	8.043362e-01	7.919734e-01	7.799258e-01	7.682943e-01	7.571483e-01	7.465147e-01	7.362996e-01	7.262558e-01	7.159357e-01	7.047972e-01	6.923302e-01	6.784402e-01	6.637065e-01	6.495517e-01	6.380058e-01	6.311873e-01	6.306669e-01	6.367455e-01	6.479631e-01	6.609338e-01	6.709590e-01	6.737395e-01	6.668165e-01	6.509349e-01	6.282006e-01	6.012730e-01	5.711033e-01	5.370173e-01	4.976666e-01	4.553727e-01	