# vtk DataFile Version 3.0
vtk output
ASCII
DATASET UNSTRUCTURED_GRID
POINTS 5233 float
9.997500e-01	-3.633567e-05	0.0	9.990000e-01	-1.456765e-04	0.0	9.977600e-01	-3.297389e-04	0.0	9.960200e-01	-6.019121e-04	0.0	9.937800e-01	-9.900441e-04	0.0	9.910500e-01	-1.539381e-03	0.0	9.878400e-01	-2.307603e-03	0.0	9.841300e-01	-3.355483e-03	0.0	9.799500e-01	-4.698699e-03	0.0	9.752800e-01	-6.310611e-03	0.0	9.701500e-01	-8.083327e-03	0.0	9.645400e-01	-9.880230e-03	0.0	9.584700e-01	-1.154751e-02	0.0	9.519400e-01	-1.298216e-02	0.0	9.449600e-01	-1.415448e-02	0.0	9.375400e-01	-1.511356e-02	0.0	9.296900e-01	-1.596149e-02	0.0	9.214000e-01	-1.681668e-02	0.0	9.127000e-01	-1.777289e-02	0.0	9.035800e-01	-1.888703e-02	0.0	8.940600e-01	-2.016714e-02	0.0	8.841500e-01	-2.158487e-02	0.0	8.738500e-01	-2.309018e-02	0.0	8.631800e-01	-2.462141e-02	0.0	8.521600e-01	-2.612012e-02	0.0	8.407700e-01	-2.754369e-02	0.0	8.290500e-01	-2.885576e-02	0.0	8.170100e-01	-3.003882e-02	0.0	8.046400e-01	-3.108975e-02	0.0	7.919700e-01	-3.201183e-02	0.0	7.790100e-01	-3.281717e-02	0.0	7.657800e-01	-3.352094e-02	0.0	7.522800e-01	-3.414039e-02	0.0	7.385200e-01	-3.469097e-02	0.0	7.245300e-01	-3.518516e-02	0.0	7.103200e-01	-3.563329e-02	0.0	6.958900e-01	-3.604292e-02	0.0	6.812700e-01	-3.641816e-02	0.0	6.664700e-01	-3.676180e-02	0.0	6.515000e-01	-3.707551e-02	0.0	6.363800e-01	-3.736042e-02	0.0	6.211300e-01	-3.761807e-02	0.0	6.057600e-01	-3.785096e-02	0.0	5.902800e-01	-3.806264e-02	0.0	5.747100e-01	-3.825765e-02	0.0	5.590600e-01	-3.844158e-02	0.0	5.433600e-01	-3.862050e-02	0.0	5.276100e-01	-3.880104e-02	0.0	5.118400e-01	-3.898936e-02	0.0	4.960500e-01	-3.919132e-02	0.0	4.802700e-01	-3.941142e-02	0.0	4.645100e-01	-3.965307e-02	0.0	4.487800e-01	-3.991817e-02	0.0	4.331100e-01	-4.020660e-02	0.0	4.175000e-01	-4.051703e-02	0.0	4.019700e-01	-4.084618e-02	0.0	3.865400e-01	-4.118920e-02	0.0	3.712300e-01	-4.153993e-02	0.0	3.560400e-01	-4.189161e-02	0.0	3.409900e-01	-4.223620e-02	0.0	3.261100e-01	-4.256488e-02	0.0	3.114000e-01	-4.286922e-02	0.0	2.968700e-01	-4.314044e-02	0.0	2.825500e-01	-4.336955e-02	0.0	2.684500e-01	-4.354826e-02	0.0	2.545700e-01	-4.366872e-02	0.0	2.409400e-01	-4.372331e-02	0.0	2.275700e-01	-4.370523e-02	0.0	2.144700e-01	-4.360825e-02	0.0	2.016600e-01	-4.342691e-02	0.0	1.891400e-01	-4.315606e-02	0.0	1.769300e-01	-4.279153e-02	0.0	1.650400e-01	-4.232963e-02	0.0	1.534900e-01	-4.176775e-02	0.0	1.422900e-01	-4.110371e-02	0.0	1.314400e-01	-4.033521e-02	0.0	1.209500e-01	-3.946102e-02	0.0	1.108500e-01	-3.848270e-02	0.0	1.011300e-01	-3.739899e-02	0.0	9.181000e-02	-3.621235e-02	0.0	8.290000e-02	-3.492532e-02	0.0	7.440000e-02	-3.353976e-02	0.0	6.633000e-02	-3.206172e-02	0.0	5.869000e-02	-3.049496e-02	0.0	5.149000e-02	-2.884596e-02	0.0	4.474000e-02	-2.712250e-02	0.0	3.844000e-02	-2.533065e-02	0.0	3.260000e-02	-2.347987e-02	0.0	2.723000e-02	-2.158082e-02	0.0	2.232000e-02	-1.963702e-02	0.0	1.790000e-02	-1.766804e-02	0.0	1.395000e-02	-1.567210e-02	0.0	1.049000e-02	-1.366470e-02	0.0	7.520000e-03	-1.165061e-02	0.0	5.040000e-03	-9.630819e-03	0.0	3.050000e-03	-7.599664e-03	0.0	1.560000e-03	-5.554961e-03	0.0	5.600000e-04	-3.449201e-03	0.0	6.000000e-05	-1.210007e-03	0.0	0.000000e+00	0.000000e+00	0.0	6.000000e-05	1.166039e-03	0.0	5.600000e-04	3.217826e-03	0.0	1.560000e-03	5.046638e-03	0.0	3.050000e-03	6.742583e-03	0.0	5.040000e-03	8.361691e-03	0.0	7.520000e-03	9.918498e-03	0.0	1.049000e-02	1.142868e-02	0.0	1.395000e-02	1.290151e-02	0.0	1.790000e-02	1.434254e-02	0.0	2.232000e-02	1.574908e-02	0.0	2.723000e-02	1.713024e-02	0.0	3.260000e-02	1.847938e-02	0.0	3.844000e-02	1.980072e-02	0.0	4.474000e-02	2.109290e-02	0.0	5.149000e-02	2.235482e-02	0.0	5.869000e-02	2.358728e-02	0.0	6.633000e-02	2.478924e-02	0.0	7.440000e-02	2.595998e-02	0.0	8.290000e-02	2.710031e-02	0.0	9.181000e-02	2.820850e-02	0.0	1.011300e-01	2.928563e-02	0.0	1.108500e-01	3.033159e-02	0.0	1.209500e-01	3.134549e-02	0.0	1.314400e-01	3.232953e-02	0.0	1.422900e-01	3.328213e-02	0.0	1.534900e-01	3.420380e-02	0.0	1.650400e-01	3.509582e-02	0.0	1.769300e-01	3.595853e-02	0.0	1.891400e-01	3.679155e-02	0.0	2.016600e-01	3.759516e-02	0.0	2.144700e-01	3.836891e-02	0.0	2.275700e-01	3.911335e-02	0.0	2.409400e-01	3.982758e-02	0.0	2.545700e-01	4.051098e-02	0.0	2.684500e-01	4.116258e-02	0.0	2.825500e-01	4.178012e-02	0.0	2.968700e-01	4.236229e-02	0.0	3.114000e-01	4.290684e-02	0.0	3.261100e-01	4.341034e-02	0.0	3.409900e-01	4.386974e-02	0.0	3.560400e-01	4.428174e-02	0.0	3.712300e-01	4.464183e-02	0.0	3.865400e-01	4.494557e-02	0.0	4.019700e-01	4.518863e-02	0.0	4.175000e-01	4.536609e-02	0.0	4.331100e-01	4.547301e-02	0.0	4.487800e-01	4.550453e-02	0.0	4.645100e-01	4.545587e-02	0.0	4.802700e-01	4.532237e-02	0.0	4.960500e-01	4.509954e-02	0.0	5.118400e-01	4.478304e-02	0.0	5.276100e-01	4.436927e-02	0.0	5.433600e-01	4.385430e-02	0.0	5.590600e-01	4.323557e-02	0.0	5.747100e-01	4.251003e-02	0.0	5.902800e-01	4.167676e-02	0.0	6.057600e-01	4.073503e-02	0.0	6.211300e-01	3.968610e-02	0.0	6.363800e-01	3.853230e-02	0.0	6.515000e-01	3.727793e-02	0.0	6.664700e-01	3.593039e-02	0.0	6.812700e-01	3.449976e-02	0.0	6.958900e-01	3.299767e-02	0.0	7.103200e-01	3.143773e-02	0.0	7.245300e-01	2.983734e-02	0.0	7.385200e-01	2.821123e-02	0.0	7.522800e-01	2.657470e-02	0.0	7.657800e-01	2.494383e-02	0.0	7.790100e-01	2.332962e-02	0.0	7.919700e-01	2.173827e-02	0.0	8.046400e-01	2.017457e-02	0.0	8.170100e-01	1.863830e-02	0.0	8.290500e-01	1.712871e-02	0.0	8.407700e-01	1.563781e-02	0.0	8.521600e-01	1.415878e-02	0.0	8.631800e-01	1.268814e-02	0.0	8.738500e-01	1.121446e-02	0.0	8.841500e-01	9.732277e-03	0.0	8.940600e-01	8.239157e-03	0.0	9.035800e-01	6.736698e-03	0.0	9.127000e-01	5.241430e-03	0.0	9.214000e-01	3.792431e-03	0.0	9.296900e-01	2.449032e-03	0.0	9.375400e-01	1.298375e-03	0.0	9.449600e-01	4.268908e-04	0.0	9.519400e-01	-9.670142e-05	0.0	9.584700e-01	-2.543421e-04	0.0	9.645400e-01	-9.680574e-05	0.0	9.701500e-01	2.628226e-04	0.0	9.752800e-01	6.784136e-04	0.0	9.799500e-01	1.018766e-03	0.0	9.841300e-01	1.197879e-03	0.0	9.878400e-01	1.196100e-03	0.0	9.910500e-01	1.046812e-03	0.0	9.937800e-01	8.108997e-04	0.0	9.960200e-01	5.521548e-04	0.0	9.977600e-01	3.205026e-04	0.0	9.990000e-01	1.448331e-04	0.0	9.997500e-01	3.632230e-05	0.0	1.000000e+00	0.000000e+00	0.0	1.984229e+01	2.506660e+00	0.0	1.937166e+01	4.973800e+00	0.0	1.859553e+01	7.362490e+00	0.0	1.752613e+01	9.635070e+00	0.0	1.618034e+01	1.175571e+01	0.0	1.457937e+01	1.369094e+01	0.0	1.274848e+01	1.541027e+01	0.0	1.071654e+01	1.688656e+01	0.0	8.515590e+00	1.809654e+01	0.0	6.180340e+00	1.902113e+01	0.0	3.747630e+00	1.964575e+01	0.0	1.255810e+00	1.996053e+01	0.0	-1.255810e+00	1.996053e+01	0.0	-3.747630e+00	1.964574e+01	0.0	-6.180340e+00	1.902113e+01	0.0	-8.515590e+00	1.809654e+01	0.0	-1.071654e+01	1.688656e+01	0.0	-1.274848e+01	1.541026e+01	0.0	-1.457937e+01	1.369094e+01	0.0	-1.618034e+01	1.175570e+01	0.0	-1.752613e+01	9.635070e+00	0.0	-1.859553e+01	7.362490e+00	0.0	-1.937166e+01	4.973800e+00	0.0	-1.984229e+01	2.506660e+00	0.0	-2.000000e+01	0.000000e+00	0.0	-1.984229e+01	-2.506670e+00	0.0	-1.937166e+01	-4.973800e+00	0.0	-1.859553e+01	-7.362490e+00	0.0	-1.752613e+01	-9.635080e+00	0.0	-1.618034e+01	-1.175571e+01	0.0	-1.457937e+01	-1.369094e+01	0.0	-1.274848e+01	-1.541027e+01	0.0	-1.071653e+01	-1.688656e+01	0.0	-8.515580e+00	-1.809654e+01	0.0	-6.180340e+00	-1.902113e+01	0.0	-3.747620e+00	-1.964575e+01	0.0	-1.255810e+00	-1.996053e+01	0.0	1.255810e+00	-1.996053e+01	0.0	3.747630e+00	-1.964574e+01	0.0	6.180340e+00	-1.902113e+01	0.0	8.515590e+00	-1.809654e+01	0.0	1.071654e+01	-1.688656e+01	0.0	1.274848e+01	-1.541026e+01	0.0	1.457937e+01	-1.369094e+01	0.0	1.618034e+01	-1.175570e+01	0.0	1.752614e+01	-9.635070e+00	0.0	1.859553e+01	-7.362490e+00	0.0	1.937166e+01	-4.973790e+00	0.0	1.984229e+01	-2.506660e+00	0.0	2.000000e+01	0.000000e+00	0.0	6.108542e-02	-3.816182e-02	0.0	6.596172e-01	-5.067450e-02	0.0	4.254822e-01	5.960361e-02	0.0	6.898002e-01	4.694653e-02	0.0	3.791921e-01	-5.563980e-02	0.0	9.994689e-01	-7.250005e-04	0.0	9.985588e-01	-1.332446e-03	0.0	7.734185e-01	-4.509865e-02	0.0	6.892983e-01	-4.963885e-02	0.0	-8.296652e-04	4.943927e-03	0.0	7.463102e-01	-4.690828e-02	0.0	5.833279e-01	5.609679e-02	0.0	9.928466e-01	-3.842841e-03	0.0	9.899844e-01	-4.960996e-03	0.0	5.989133e-01	5.512254e-02	0.0	7.182379e-01	-4.839509e-02	0.0	-1.259624e-03	5.821585e-04	0.0	9.866441e-01	-6.298553e-03	0.0	9.828301e-01	-7.863795e-03	0.0	-9.283355e-04	-5.357643e-03	0.0	6.445387e-01	-5.112389e-02	0.0	8.242639e-01	-4.018611e-02	0.0	7.994357e-01	-4.289121e-02	0.0	3.484142e-01	5.784633e-02	0.0	8.477561e-01	-3.701414e-02	0.0	2.473350e-01	5.273262e-02	0.0	8.698461e-01	-3.351071e-02	0.0	1.069248e-02	1.538733e-02	0.0	8.904306e-01	-2.996774e-02	0.0	7.735917e-02	-4.190450e-02	0.0	9.094522e-01	-2.669769e-02	0.0	-1.478749e-03	-2.676610e-03	0.0	9.425480e-01	-2.093014e-02	0.0	9.268504e-01	-2.378935e-02	0.0	1.834947e-02	-2.265983e-02	0.0	4.256822e-01	-5.492616e-02	0.0	8.589856e-01	-3.528606e-02	0.0	9.564614e-01	-1.760585e-02	0.0	9.785309e-01	-9.668987e-03	0.0	9.684786e-01	-1.366927e-02	0.0	1.586193e-01	-5.258875e-02	0.0	9.001424e-01	-2.828482e-02	0.0	7.599952e-01	-4.604858e-02	0.0	9.971456e-01	-2.101211e-03	0.0	5.985333e-01	-5.223064e-02	0.0	4.413403e-01	-5.468401e-02	0.0	5.359436e-01	-5.329298e-02	0.0	4.728216e-01	-5.421105e-02	0.0	5.043907e-01	-5.375248e-02	0.0	4.885945e-01	-5.397945e-02	0.0	1.252952e-01	-4.941870e-02	0.0	2.822702e-02	-2.739441e-02	0.0	3.945961e-01	-5.540893e-02	0.0	4.657426e-02	-3.407576e-02	0.0	4.100941e-01	-5.517016e-02	0.0	3.189295e-01	-5.636558e-02	0.0	3.487595e-01	-5.606062e-02	0.0	3.387975e-02	-2.967208e-02	0.0	2.897806e-01	-5.650371e-02	0.0	9.349173e-01	-2.238568e-02	0.0	1.471574e-01	-5.164119e-02	0.0	1.950012e-01	-5.476456e-02	0.0	8.613288e-02	-4.362667e-02	0.0	1.049271e-01	-4.675323e-02	0.0	5.673664e-01	-5.280842e-02	0.0	1.704241e-01	-5.342578e-02	0.0	6.139885e-01	-5.189624e-02	0.0	8.803344e-01	-3.172388e-02	0.0	2.306067e-02	-2.505257e-02	0.0	9.952398e-01	-2.914780e-03	0.0	7.154911e-03	-1.536423e-02	0.0	1.868948e-02	1.918536e-02	0.0	9.183568e-01	-2.520793e-02	0.0	9.49
[...]
POINT_DATA 5233

SCALARS Conservative_1 float 1
LOOKUP_TABLE default
1.194908e+00	1.179151e+00	1.172165e+00	1.169537e+00	1.168214e+00	1.165343e+00	1.157028e+00	1.140435e+00	1.113035e+00	1.074318e+00	1.024628e+00	9.627107e-01	9.066930e-01	8.845958e-01	8.955062e-01	9.233147e-01	9.534117e-01	9.754552e-01	9.862603e-01	9.866612e-01	9.783709e-01	9.635552e-01	9.446079e-01	9.233598e-01	8.996935e-01	8.736690e-01	8.503504e-01	8.363425e-01	8.333332e-01	8.385725e-01	8.482025e-01	8.591971e-01	8.698664e-01	8.793053e-01	8.873726e-01	8.941533e-01	8.998827e-01	9.048426e-01	9.092489e-01	9.133606e-01	9.173131e-01	9.212435e-01	9.251692e-01	9.290982e-01	9.329485e-01	9.366454e-01	9.400659e-01	9.431158e-01	9.456790e-01	9.476728e-01	9.490043e-01	9.496233e-01	9.494793e-01	9.485555e-01	9.468365e-01	9.443315e-01	9.410523e-01	9.370300e-01	9.323073e-01	9.269316e-01	9.209770e-01	9.144565e-01	9.073642e-01	8.996671e-01	8.915950e-01	8.835212e-01	8.756009e-01	8.670610e-01	8.565127e-01	8.432876e-01	8.295944e-01	8.191637e-01	8.141044e-01	8.139140e-01	8.171051e-01	8.223683e-01	8.292256e-01	8.375684e-01	8.472472e-01	8.581698e-01	8.703537e-01	8.837647e-01	8.984658e-01	9.144552e-01	9.317942e-01	9.505931e-01	9.708852e-01	9.928018e-01	1.016568e+00	1.042267e+00	1.070273e+00	1.101095e+00	1.135101e+00	1.173170e+00	1.215723e+00	1.262031e+00	1.307446e+00	1.347987e+00	1.347999e+00	1.321563e+00	1.296584e+00	1.222685e+00	1.088558e+00	9.925622e-01	9.285002e-01	8.888781e-01	8.650467e-01	8.499718e-01	8.396091e-01	8.321750e-01	8.267075e-01	8.225433e-01	8.194359e-01	8.170497e-01	8.153081e-01	8.142671e-01	8.137970e-01	8.137630e-01	8.141666e-01	8.151432e-01	8.169878e-01	8.198661e-01	8.236237e-01	8.278296e-01	8.320503e-01	8.360085e-01	8.395204e-01	8.424351e-01	8.447171e-01	8.464792e-01	8.478568e-01	8.489117e-01	8.496180e-01	8.499178e-01	8.497791e-01	8.491837e-01	8.481428e-01	8.466643e-01	8.447520e-01	8.424131e-01	8.396351e-01	8.364138e-01	8.328129e-01	8.289588e-01	8.249504e-01	8.208205e-01	8.165554e-01	8.124250e-01	8.092408e-01	8.087319e-01	8.129953e-01	8.231332e-01	8.372467e-01	8.509022e-01	8.609793e-01	8.682265e-01	8.749976e-01	8.830609e-01	8.928767e-01	9.038227e-01	9.151621e-01	9.266002e-01	9.380713e-01	9.494607e-01	9.605102e-01	9.710270e-01	9.808199e-01	9.898005e-01	9.978741e-01	1.005118e+00	1.011603e+00	1.017502e+00	1.023056e+00	1.028526e+00	1.034217e+00	1.040456e+00	1.047618e+00	1.056188e+00	1.066667e+00	1.079562e+00	1.094967e+00	1.112356e+00	1.130265e+00	1.146690e+00	1.159283e+00	1.165736e+00	1.164034e+00	1.152869e+00	1.132102e+00	1.104080e+00	1.075012e+00	1.052677e+00	1.044521e+00	1.053653e+00	1.075734e+00	1.102837e+00	1.129819e+00	1.156217e+00	1.184512e+00	1.174610e+00	9.999828e-01	9.999865e-01	9.999802e-01	9.999681e-01	9.999565e-01	9.999428e-01	9.999207e-01	9.998874e-01	9.998482e-01	9.998133e-01	9.997886e-01	9.997931e-01	9.998272e-01	9.998982e-01	9.999597e-01	1.000009e+00	1.000035e+00	1.000050e+00	1.000058e+00	1.000061e+00	1.000061e+00	1.000061e+00	1.000060e+00	1.000061e+00	1.000061e+00	1.000063e+00	1.000067e+00	1.000071e+00	1.000077e+00	1.000086e+00	1.000096e+00	1.000109e+00	1.000120e+00	1.000134e+00	1.000140e+00	1.000135e+00	1.000120e+00	1.000098e+00	1.000082e+00	1.000073e+00	1.000072e+00	1.000070e+00	1.000066e+00	1.000059e+00	1.000049e+00	1.000036e+00	1.000029e+00	1.000023e+00	1.000002e+00	9.999790e-01	9.211854e-01	9.129939e-01	8.268363e-01	9.358380e-01	9.390971e-01	1.179025e+00	1.171994e+00	8.597325e-01	9.044233e-01	1.217998e+00	8.787264e-01	8.706839e-01	1.156904e+00	1.149768e+00	8.770632e-01	8.935475e-01	1.316506e+00	1.137674e+00	1.118474e+00	1.326888e+00	9.168900e-01	8.505765e-01	8.432203e-01	8.441676e-01	8.943270e-01	8.527278e-01	9.376339e-01	9.042365e-01	9.692894e-01	8.904261e-01	9.821596e-01	1.344721e+00	9.230580e-01	9.649724e-01	1.076672e+00	9.472243e-01	9.178526e-01	9.186035e-01	1.091090e+00	1.009815e+00	8.212006e-01	9.789867e-01	8.695866e-01	1.165290e+00	9.281880e-01	9.484728e-01	9.417210e-01	9.487993e-01	9.463997e-01	9.479222e-01	8.357162e-01	1.023174e+00	9.425241e-01	9.572935e-01	9.452382e-01	9.190946e-01	9.302513e-01	9.994872e-01	9.057090e-01	9.451075e-01	8.237956e-01	8.414458e-01	8.769571e-01	8.536850e-01	9.354050e-01	8.226395e-01	9.244520e-01	9.548819e-01	1.048817e+00	1.161354e+00	1.176687e+00	8.661128e-01	9.776267e-01	9.098584e-01	1.055648e+00	1.129693e+00	8.695129e-01	8.832731e-01	9.387252e-01	8.867065e-01	8.502169e-01	8.439844e-01	8.670226e-01	9.318675e-01	9.089011e-01	9.385430e-01	1.215934e+00	1.107041e+00	9.349895e-01	8.295624e-01	1.205247e+00	8.759219e-01	8.647150e-01	9.126996e-01	8.905822e-01	9.489949e-01	8.993924e-01	1.286301e+00	1.296492e+00	8.344507e-01	1.331575e+00	8.457769e-01	8.269414e-01	8.339654e-01	8.274672e-01	8.306879e-01	1.121221e+00	8.216397e-01	8.151314e-01	1.112775e+00	1.143695e+00	1.063289e+00	8.130422e-01	8.228646e-01	8.380228e-01	1.116640e+00	1.087364e+00	8.226586e-01	1.091956e+00	1.149519e+00	1.141781e+00	8.230342e-01	8.248280e-01	8.515282e-01	8.527503e-01	8.450749e-01	8.486495e-01	8.188190e-01	8.344411e-01	8.386697e-01	8.310186e-01	8.926625e-01	8.491638e-01	8.515542e-01	9.138780e-01	8.621784e-01	9.773373e-01	9.574221e-01	1.008831e+00	9.945284e-01	1.032647e+00	1.021022e+00	1.074433e+00	1.045870e+00	1.148577e+00	1.101751e+00	1.131048e+00	1.038910e+00	1.053878e+00	1.015106e+00	1.026780e+00	9.863099e-01	1.002027e+00	9.467371e-01	9.676711e-01	9.029408e-01	9.248747e-01	8.495882e-01	8.839462e-01	8.505110e-01	8.523128e-01	8.421312e-01	8.474031e-01	8.299407e-01	8.348877e-01	8.819413e-01	8.391439e-01	8.552002e-01	9.841166e-01	9.564581e-01	8.421157e-01	9.249331e-01	9.443114e-01	1.049474e+00	8.544694e-01	9.365477e-01	8.224445e-01	8.234488e-01	8.523499e-01	8.246985e-01	1.073770e+00	1.063705e+00	8.502897e-01	1.065632e+00	1.078761e+00	8.466139e-01	8.412985e-01	1.130567e+00	1.200242e+00	1.144302e+00	1.164883e+00	9.206832e-01	9.775762e-01	1.098857e+00	8.145528e-01	1.257266e+00	1.140358e+00	9.051529e-01	8.289225e-01	8.981899e-01	8.335544e-01	1.196962e+00	1.259724e+00	9.045720e-01	9.041360e-01	9.761976e-01	1.169994e+00	8.720511e-01	9.086553e-01	8.616211e-01	1.132783e+00	9.232232e-01	9.135320e-01	8.709533e-01	8.844363e-01	1.300998e+00	8.663870e-01	1.106797e+00	9.620369e-01	8.324022e-01	8.989740e-01	9.166252e-01	9.480956e-01	8.978063e-01	9.407176e-01	9.712758e-01	8.547700e-01	9.681781e-01	8.906046e-01	9.238119e-01	1.030870e+00	8.330870e-01	9.342698e-01	8.480584e-01	1.051606e+00	1.077858e+00	8.486661e-01	8.239590e-01	1.135421e+00	1.060139e+00	1.083761e+00	1.133572e+00	1.088999e+00	8.557324e-01	8.508054e-01	8.552683e-01	8.315543e-01	9.127890e-01	8.545526e-01	9.348129e-01	8.419478e-01	8.432296e-01	1.115821e+00	1.096606e+00	1.069831e+00	8.309154e-01	1.209403e+00	1.131375e+00	1.113050e+00	1.012405e+00	1.129903e+00	1.204238e+00	1.331150e+00	1.319431e+00	1.078306e+00	1.212055e+00	9.281300e-01	1.161923e+00	1.150354e+00	8.329648e-01	9.404247e-01	1.117855e+00	9.478206e-01	8.793593e-01	1.143249e+00	1.324570e+00	9.472578e-01	8.365029e-01	8.917957e-01	8.549788e-01	9.320852e-01	9.612188e-01	9.123595e-01	9.765549e-01	9.698004e-01	9.342700e-01	1.027416e+00	9.380812e-01	1.000273e+00	1.097036e+00	8.436209e-01	8.785141e-01	8.700790e-01	1.156077e+00	9.482681e-01	9.478031e-01	9.467185e-01	1.052032e+00	9.435698e-01	9.457562e-01	9.284258e-01	9.833364e-01	9.581283e-01	9.441191e-01	8.370195e-01	8.722338e-01	9.375152e-01	9.275006e-01	1.038406e+00	1.070524e+00	8.930916e-01	8.863082e-01	8.613399e-01	8.517684e-01	9.343507e-01	9.309749e-01	9.636303e-01	9.452400e-01	1.137255e+00	9.330940e-01	9.372161e-01	8.342753e-01	8.427020e-01	8.760132e-01	8.835622e-01	9.113125e-01	9.175457e-01	8.904682e-01	1.301907e+00	1.239716e+00	8.486910e-01	1.079708e+00	8.341112e-01	8.194221e-01	8.194359e-01	8.220075e-01	1.102222e+00	1.126838e+00	1.104575e+00	8.256021e-01	8.293222e-01	8.399521e-01	1.092477e+00	1.132594e+00	8.358467e-01	8.390036e-01	8.558603e-01	8.556088e-01	8.451727e-01	8.386852e-01	8.356067e-01	1.005960e+00	9.742062e-01	9.647789e-01	9.989511e-01	1.024806e+00	1.080669e+00	1.044024e+00	1.037190e+00	1.018799e+00	1.012577e+00	9.913061e-01	9.830567e-01	9.548883e-01	9.446599e-01	9.133355e-01	9.030760e-01	8.617177e-01	8.480947e-01	8.937297e-01	8.859449e-01	8.545046e-01	8.534833e-01	8.521546e-01	8.503946e-01	9.097985e-01	8.557207e-01	8.646760e-01	8.520838e-01	8.569075e-01	9.450992e-01	9.429660e-01	1.067860e+00	8.759921e-01	8.312312e-01	8.319712e-01	8.525689e-01	8.539583e-01	8.432128e-01	8.461444e-01	1.125806e+00	1.116068e+00	9.239334e-01	9.203339e-01	1.004521e+00	1.273826e+00	8.974671e-01	1.298246e+00	9.420762e-01	9.103968e-01	8.664754e-01	9.417891e-01	9.724919e-01	1.089578e+00	1.086696e+00	1.120200e+00	1.078979e+00	1.098080e+00	1.149107e+00	1.174368e+00	1.151623e+00	1.194973e+00	1.079872e+00	1.281350e+00	8.926867e-01	9.665513e-01	1.129601e+00	8.735299e-01	1.170210e+00	1.193364e+00	9.041751e-01	1.252777e+00	8.991200e-01	1.105991e+00	9.434708e-01	1.163168e+00	9.269751e-01	9.288654e-01	9.087155e-01	1.138799e+00	1.134050e+00	1.096285e+00	8.358256e-01	1.123093e+00	9.238622e-01	1.110204e+00	8.281724e-01	8.584673e-01	8.531501e-01	8.513152e-01	8.462784e-01	1.162968e+00	1.274675e+00	1.180629e+00	9.319721e-01	1.237056e+00	9.984917e-01	9.059033e-01	1.311959e+00	8.416159e-01	9.476940e-01	1.055158e+00	9.905697e-01	1.029080e+00	1.003526e+00	9.338036e-01	1.089264e+00	1.123405e+00	1.065482e+00	1.056875e+00	8.549883e-01	8.576542e-01	8.588562e-01	8.399253e-01	9.166077e-01	9.128075e-01	8.659617e-01	9.581046e-01	8.485234e-01	1.105220e+00	1.122323e+00	1.031117e+00	1.130026e+00	1.223628e+00	1.308309e+00	1.031630e+00	1.180639e+00	1.173885e+00	1.029474e+00	1.117807e+00	8.821527e-01	9.472088e-01	8.390939e-01	8.916107e-01	9.113191e-01	9.558613e-01	9.658134e-01	9.357287e-01	9.202665e-01	9.722872e-01	9.746169e-01	9.551817e-01	9.707730e-01	1.102193e+00	8.796141e-01	8.725251e-01	1.144983e+00	9.475854e-01	9.468730e-01	9.444131e-01	9.461106e-01	1.009876e+00	9.586055e-01	9.528397e-01	8.522669e-01	8.458179e-01	9.393015e-01	9.365285e-01	1.057562e+00	1.081880e+00	8.933387e-01	8.868222e-01	8.806460e-01	8.696346e-01	8.601061e-01	9.335053e-01	9.303304e-01	9.896980e-01	9.705235e-01	9.524464e-01	9.315206e-01	9.356109e-01	9.391279e-01	8.415613e-01	8.461788e-01	8.551324e-01	8.761026e-01	8.842029e-01	9.164265e-01	9.219190e-01	8.910326e-01	8.624018e-01	8.254295e-01	8.262777e-01	1.113794e+00	8.290754e-01	8.324318e-01	8.357955e-01	8.423114e-01	1.094818e+00	8.504709e-01	8.557775e-01	8.589241e-01	8.590542e-01	8.456886e-01	8.432688e-01	8.412771e-01	9.720430e-01	1.084783e+00	1.074787e+00	1.049049e+00	1.041938e+00	1.035417e+00	1.022858e+00	1.016676e+00	1.010270e+00	9.964450e-01	9.888393e-01	9.806794e-01	9.629425e-01	9.534445e-01	9.437095e-01	9.139309e-01	8.615084e-01	8.479974e-01	9.044341e-01	8.959854e-01	8.888987e-01	8.583822e-01	8.576420e-01	8.566668e-01	8.553772e-01	8.536396e-01	8.708077e-01	8.815196e-01	8.630686e-01	8.652572e-01	8.748130e-01	9.456533e-01	9.439166e-01	8.948371e-01	9.112204e-01	8.397167e-01	8.408897e-01	8.431190e-01	8.565024e-01	8.454579e-01	8.484145e-01	8.509932e-01	1.119440e+00	1.112993e+00	1.104542e+00	9.270320e-01	9.236619e-01	9.201903e-01	8.974633e-01	9.040266e-01	1.273255e+00	9.014870e-01	1.116934e+00	1.094724e+00	9.408647e-01	1.255133e+00	1.156720e+00	9.719210e-01	9.687315e-01	1.035110e+00	1.099222e+00	8.346894e-01	1.251052e+00	9.780363e-01	1.180777e+00	1.112693e+00	1.107268e+00	1.166477e+00	9.240106e-01	1.126150e+00	1.179294e+00	1.181695e+00	8.731233e-01	8.530884e-01	1.080476e+00	9.431545e-01	9.145216e-01	9.469695e-01	9.158895e-01	1.092587e+00	8.737779e-01	1.113521e+00	1.111942e+00	1.001608e+00	8.552389e-01	8.622420e-01	1.116864e+00	8.617220e-01	9.415200e-01	1.135096e+00	1.093940e+00	1.141497e+00	1.048681e+00	1.103971e+00	9.089493e-01	1.206927e+00	9.049851e-01	8.995141e-01	1.129187e+00	1.126664e+00	1.155001e+00	1.027033e+00	8.383388e-01	8.593897e-01	1.213084e+00	1.008667e+00	9.342607e-01	1.061805e+00	8.578441e-01	8.606594e-01	8.616022e-01	9.166806e-01	9.133537e-01	1.099319e+00	1.043960e+00	1.084348e+00	1.231706e+00	1.284708e+00	1.057229e+00	1.025409e+00	1.104289e+00	8.855725e-01	9.121162e-01	9.279611e-01	9.528470e-01	9.622309e-01	9.435284e-01	9.285176e-01	9.690423e-01	9.729748e-01	9.738018e-01	9.815813e-01	1.001567e+00	8.817942e-01	8.782480e-01	1.134812e+00	9.471734e-01	9.468149e-01	9.449758e-01	9.462417e-01	9.667378e-01	9.698948e-01	8.623704e-01	8.557733e-01	9.385435e-01	1.069887e+00	1.088665e+00	8.947575e-01	8.881208e-01	8.894853e-01	8.788673e-01	8.700672e-01	9.357580e-01	9.330571e-01	1.015223e+00	9.957948e-01	9.769241e-01	9.594604e-01	9.303318e-01	9.343050e-01	9.377449e-01	9.407218e-01	8.542697e-01	8.594738e-01	8.676304e-01	8.769354e-01	8.852355e-01	9.259792e-01	9.211083e-01	8.923242e-01	8.326720e-01	1.104746e+00	1.109568e+00	8.340511e-01	8.365902e-01	8.395410e-01	8.425074e-01	8.454434e-01	8.684002e-01	8.766015e-01	8.625736e-01	8.626419e-01	8.528293e-01	8.507445e-01	8.494384e-01	8.486982e-01	1.086871e+00	1.078374e+00	1.070008e+00	1.054086e+00	1.046958e+00	1.040351e+00	1.033202e+00	1.021616e+00	1.014578e+00	1.008240e+00	9.943201e-01	9.869822e-01	9.787861e-01	9.707177e-01	9.615718e-01	9.529646e-01	9.431090e-01	8.493123e-01	8.606772e-01	9.154747e-01	9.058648e-01	8.993055e-01	8.916145e-01	8.624232e-01	8.619607e-01	8.612078e-01	8.602208e-01	8.589530e-01	8.572663e-01	8.860818e-01	8.979701e-01	8.757483e-01	8.822589e-01	8.951364e-01	9.459237e-01	9.447277e-01	9.429876e-01	9.129868e-01	9.308207e-01	9.519930e-01	8.487384e-01	8.499944e-01	8.529082e-01	8.568291e-01	8.483027e-01	8.510994e-01	8.537964e-01	8.559754e-01	1.094941e+00	1.107980e+00	1.102294e+00	9.298560e-01	9.269822e-01	9.235096e-01	9.204885e-01	8.983991e-01	9.044104e-01	9.102072e-01	1.124210e+00	1.113750e+00	1.044002e+00	1.170064e+00	1.147144e+00	9.038720e-01	9.109653e-01	1.169506e+00	1.096606e+00	1.213004e+00	1.058705e+00	8.660881e-01	8.599460e-01	1.022874e+00	1.122107e+00	1.225965e+00	1.288010e+00	1.289548e+00	1.274397e+00	1.230242e+00	1.135673e+00	8.628995e-01	1.061866e+00	1.115974e+00	9.777789e-01	8.850507e-01	9.440771e-01	1.105118e+00	1.087728e+00	1.102204e+00	8.666753e-01	8.483392e-01	9.295338e-01	9.960674e-01	8.418125e-01	9.412631e-01	8.606830e-01	1.099771e+00	9.237225e-01	1.156210e+00	1.095425e+00	1.284193e+00	1.176895e+00	1.168935e+00	9.753116e-01	1.039110e+00	1.248337e+00	9.946179e-01	1.191749e+00	1.105122e+00	1.155496e+00	1.170728e+00	1.171525e+00	1.102067e+00	9.250616e-01	9.206648e-01	1.096357e+00	8.863635e-01	1.104635e+00	1.105400e+00	9.119893e-01	1.192263e+00	8.636559e-01	8.652599e-01	8.654634e-01	9.190610e-01	1.053615e+00	1.087221e+00	1.259596e+00	1.080781e+00	9.299729e-01	9.406520e-01	9.516905e-01	9.604034e-01	9.372294e-01	9.522580e-01	9.676819e-01	9.723392e-01	9.751045e-01	9.762876e-01	1.006894e+00	1.025264e+00	8.889668e-01	1.124453e+00	9.467365e-01	9.466687e-01	9.453434e-01	9.461552e-01	9.820063e-01	9.915589e-01	8.727053e-01	8.656159e-01	1.078401e+00	1.093010e+00	8.964117e-01	8.989571e-01	8.876984e-01	8.818511e-01	9.366817e-01	1.020367e+00	1.001710e+00	9.836667e-01	9.677870e-01	9.293878e-01	9.331423e-01	9.365606e-01	9.395317e-01	9.419545e-01	8.657042e-01	8.717162e-01	8.776192e-01	8.859917e-01	8.928912e-01	1.099085e+00	1.101887e+00	1.104112e+00	8.396541e-01	8.423708e-01	8.436043e-01	8.470657e-01	8.488058e-01	8.815923e-01	8.910686e-01	8.665602e-01	8.662630e-01	8.573151e-01	8.575631e-01	8.576755e-01	1.079901e+00	1.073153e+00	1.065379e+00	1.058363e+00	1.051191e+00	1.044668e+00	1.037728e+00	1.028282e+00	1.019710e+00	1.009233e+00	9.813169e-01	9.651621e-01	9.477348e-01	9.126316e-01	8.989882e-01	8.668752e-01	8.660473e-01	8.661855e-01	8.647799e-01	8.646442e-01	8.633347e-01	8.617619e-01	9.021064e-01	9.146456e-01	8.905997e-01	8.985097e-01	9.142901e-01	9.460294e-01	9.444551e-01	9.301676e-01	9.491352e-01	9.701635e-01	8.584290e-01	8.602159e-01	8.635461e-01	8.689839e-01	8.748725e-01	8.521033e-01	8.538139e-01	8.568552e-01	8.594846e-01	1.098699e+00	1.092510e+00	9.312837e-01	9.254178e-01	8.996875e-01	9.049966e-01	9.107682e-01	9.155314e-01	1.163108e+00	1.143322e+00	1.158528e+00	1.245433e+00	1.174412e+00	1.070847e+00	1.099472e+00	1.174477e+00	1.098207e+00	1.137588e+00	1.095782e+00	1.237628e+00	1.060189e+00	1.138871e+00	8.652459e-01	1.171133e+00	1.060260e+00	1.145048e+00	1.118915e+00	1.056786e+00	9.431331e-01	1.096866e+00	9.265668e-01	9.913087e-01	9.832850e-01	9.299548e-01	9.205657e-01	8.772825e-01	1.210549e+00	9.450739e-01	9.474423e-01	9.341790e-01	8.650739e-01	1.095898e+00	1.082402e+00	1.202376e+00	1.033485e+00	1.042055e+00	1.162746e+00	1.095723e+00	1.285247e+00	1.225692e+00	1.106215e+00	9.048719e-01	8.528820e-01	8.481359e-01	1.103638e+00	1.167251e+00	1.118845e+00	1.262345e+00	1.171696e+00	1.042730e+00	1.195290e+00	1.177508e+00	8.833938e-01	1.079656e+00	1.098103e+00	1.095819e+00	8.650116e-01	8.679145e-01	8.696940e-01	9.115524e-01	1.088447e+00	1.117191e+00	1.099902e+00	9.470729e-01	9.633364e-01	9.608082e-01	9.748658e-01	9.803130e-01	1.026964e+00	1.115229e+00	9.463013e-01	1.000452e+00	1.012521e+00	8.804297e-01	1.083891e+00	8.989063e-01	8.954388e-01	9.040334e-01	8.920150e-01	9.396999e-01	1.025218e+00	1.006674e+00	9.896575e-01	9.779176e-01	9.338384e-01	9.396098e-01	9.431726e-01	8.839246e-01	8.966000e-01	1.096776e+00	1.097747e+00	8.503356e-01	8.544842e-01	9.056355e-01	8.706420e-01	8.667101e-01	1.015636e+00	1.070676e+00	1.057551e+00	1.044885e+00	1.034094e+00	1.025054e+00	1.004084e+00	9.907511e-01	9.761381e-01	9.603523e-01	9.433343e-01	9.264972e-01	9.123342e-01	8.996797e-01	8.707288e-01	8.700050e-01	8.694547e-01	8.673724e-01	8.669421e-01	9.183459e-01	9.315906e-01	8.984630e-01	9.105267e-01	9.311975e-01	9.462566e-01	9.452021e-01	9.467985e-01	9.654957e-01	9.863650e-01	1.008562e+00	8.686648e-01	8.709932e-01	8.747495e-01	8.808247e-01	8.893083e-01	8.940345e-01	8.585908e-01	8.627146e-01	1.094916e+00	1.090163e+00	9.351370e-01	9.243649e-01	9.182782e-01	9.085884e-01	9.182157e-01	1.108269e+00	1.162004e+00	1.157768e+00	1.125557e+00	1.004720e+00	1.101593e+00	1.167399e+00	1.131646e+00	1.164364e+00	1.113950e+00	1.144411e+00	1.121956e+00	1.088407e+00	1.182361e+00	1.216937e+00	1.093325e+00	9.076624e-01	8.687028e-01	1.114993e+00	9.825645e-01	1.078617e+00	9.142505e-01	1.064914e+00	1.148192e+00	9.442825e-01	1.006827e+00	9.290699e-01	9.419863e-01	1.065728e+00	1.076999e+00	1.061545e+00	1.046494e+00	1.163968e+00	1.095776e+00	1.098035e+00	1.092591e+00	8.733300e-01	8.986541e-01	9.181701e-01	9.686420e-01	1.140102e+00	1.147805e+00	1.261456e+00	1.053770e+00	1.092985e+00	1.168951e+00	1.087698e+00	1.159385e+00	1.130932e+00	9.444117e-01	1.205364e+00	9.588031e-01	9.432531e-01	1.094381e+00	1.221862e+00	1.041557e+00	1.097511e+00	9.125101e-01	1.238761e+00	1.170551e+00	9.845327e-01	1.192746e+00	1.179257e+00	8.669353e-01	1.096551e+00	1.090859e+00	8.819366e-01	8.712007e-01	9.126250e-01	1.112160e+00	1.135479e+00	9.609172e-01	9.734512e-01	9.885245e-01	9.962450e-01	1.107172e+00	9.457087e-01	1.017647e+00	1.029259e+00	9.418029e-01	9.157088e-01	9.313008e-01	9.049599e-01	9.282910e-01	9.135183e-01	9.007538e-01	1.028596e+00	9.317554e-01	9.375885e-01	8.916878e-01	8.898337e-01	9.238017e-01	1.093662e+00	8.581639e-01	8.563471e-01	8.757765e-01	1.073160e+00	1.062123e+00	1.021208e+00	1.050471e+00	1.039694e+00	1.030249e+00	1.011039e+00	9.991125e-01	9.858510e-01	9.715846e-01	9.561450e-01	9.400158e-01	9.253209e-01	8.747966e-01	8.756202e-01	8.758196e-01	8.754150e-01	8.736209e-01	8.739505e-01	9.335300e-01	9.481882e-01	9.068258e-01	9.471340e-01	9.462753e-01	9.457930e-01	9.627775e-01	9.800510e-01	9.999965e-01	1.020306e+00	1.041926e+00	8.796460e-01	8.835720e-01	8.872279e-01	8.929838e-01	9.019153e-01	8.587203e-01	8.621378e-01	8.656719e-01	1.088189e+00	1.081922e+00	9.384098e-01	9.339734e-01	8.962099e-01	9.068850e-01	9.168761e-01	9.248797e-01	1.142906e+00	1.150127e+00	1.147512e+00	1.110652e+00	1.145984e+00	1.129008e+00	1.106934e+00	1.021287e+00	1.166483e+00	1.114851e+00	1.111632e+00	1.051543e+00	1.157987e+00	1.089137e+00	8.790301e-01	1.133385e+00	1.137529e+00	1.108297e+00	1.162665e+00	1.068173e+00	9.108544e-01	1.007574e+00	9.914737e-01	9.140011e-01	1.128946e+00	1.122336e+00	1.118637e+00	1.166728e+00	1.151971e+00	8.983730e-01	9.