# vtk DataFile Version 3.0
vtk output
ASCII
DATASET UNSTRUCTURED_GRID
POINTS 200 float
9.997500e-01	-3.633567e-05	0.0	9.990000e-01	-1.456765e-04	0.0	9.977600e-01	-3.297389e-04	0.0	9.960200e-01	-6.019121e-04	0.0	9.937800e-01	-9.900441e-04	0.0	9.910500e-01	-1.539381e-03	0.0	9.878400e-01	-2.307603e-03	0.0	9.841300e-01	-3.355483e-03	0.0	9.799500e-01	-4.698699e-03	0.0	9.752800e-01	-6.310611e-03	0.0	9.701500e-01	-8.083327e-03	0.0	9.645400e-01	-9.880230e-03	0.0	9.584700e-01	-1.154751e-02	0.0	9.519400e-01	-1.298216e-02	0.0	9.449600e-01	-1.415448e-02	0.0	9.375400e-01	-1.511356e-02	0.0	9.296900e-01	-1.596149e-02	0.0	9.214000e-01	-1.681668e-02	0.0	9.127000e-01	-1.777289e-02	0.0	9.035800e-01	-1.888703e-02	0.0	8.940600e-01	-2.016714e-02	0.0	8.841500e-01	-2.158487e-02	0.0	8.738500e-01	-2.309018e-02	0.0	8.631800e-01	-2.462141e-02	0.0	8.521600e-01	-2.612012e-02	0.0	8.407700e-01	-2.754369e-02	0.0	8.290500e-01	-2.885576e-02	0.0	8.170100e-01	-3.003882e-02	0.0	8.046400e-01	-3.108975e-02	0.0	7.919700e-01	-3.201183e-02	0.0	7.790100e-01	-3.281717e-02	0.0	7.657800e-01	-3.352094e-02	0.0	7.522800e-01	-3.414039e-02	0.0	7.385200e-01	-3.469097e-02	0.0	7.245300e-01	-3.518516e-02	0.0	7.103200e-01	-3.563329e-02	0.0	6.958900e-01	-3.604292e-02	0.0	6.812700e-01	-3.641816e-02	0.0	6.664700e-01	-3.676180e-02	0.0	6.515000e-01	-3.707551e-02	0.0	6.363800e-01	-3.736042e-02	0.0	6.211300e-01	-3.761807e-02	0.0	6.057600e-01	-3.785096e-02	0.0	5.902800e-01	-3.806264e-02	0.0	5.747100e-01	-3.825765e-02	0.0	5.590600e-01	-3.844158e-02	0.0	5.433600e-01	-3.862050e-02	0.0	5.276100e-01	-3.880104e-02	0.0	5.118400e-01	-3.898936e-02	0.0	4.960500e-01	-3.919132e-02	0.0	4.802700e-01	-3.941142e-02	0.0	4.645100e-01	-3.965307e-02	0.0	4.487800e-01	-3.991817e-02	0.0	4.331100e-01	-4.020660e-02	0.0	4.175000e-01	-4.051703e-02	0.0	4.019700e-01	-4.084618e-02	0.0	3.865400e-01	-4.118920e-02	0.0	3.712300e-01	-4.153993e-02	0.0	3.560400e-01	-4.189161e-02	0.0	3.409900e-01	-4.223620e-02	0.0	3.261100e-01	-4.256488e-02	0.0	3.114000e-01	-4.286922e-02	0.0	2.968700e-01	-4.314044e-02	0.0	2.825500e-01	-4.336955e-02	0.0	2.684500e-01	-4.354826e-02	0.0	2.545700e-01	-4.366872e-02	0.0	2.409400e-01	-4.372331e-02	0.0	2.275700e-01	-4.370523e-02	0.0	2.144700e-01	-4.360825e-02	0.0	2.016600e-01	-4.342691e-02	0.0	1.891400e-01	-4.315606e-02	0.0	1.769300e-01	-4.279153e-02	0.0	1.650400e-01	-4.232963e-02	0.0	1.534900e-01	-4.176775e-02	0.0	1.422900e-01	-4.110371e-02	0.0	1.314400e-01	-4.033521e-02	0.0	1.209500e-01	-3.946102e-02	0.0	1.108500e-01	-3.848270e-02	0.0	1.011300e-01	-3.739899e-02	0.0	9.181000e-02	-3.621235e-02	0.0	8.290000e-02	-3.492532e-02	0.0	7.440000e-02	-3.353976e-02	0.0	6.633000e-02	-3.206172e-02	0.0	5.869000e-02	-3.049496e-02	0.0	5.149000e-02	-2.884596e-02	0.0	4.474000e-02	-2.712250e-02	0.0	3.844000e-02	-2.533065e-02	0.0	3.260000e-02	-2.347987e-02	0.0	2.723000e-02	-2.158082e-02	0.0	2.232000e-02	-1.963702e-02	0.0	1.790000e-02	-1.766804e-02	0.0	1.395000e-02	-1.567210e-02	0.0	1.049000e-02	-1.366470e-02	0.0	7.520000e-03	-1.165061e-02	0.0	5.040000e-03	-9.630819e-03	0.0	3.050000e-03	-7.599664e-03	0.0	1.560000e-03	-5.554961e-03	0.0	5.600000e-04	-3.449201e-03	0.0	6.000000e-05	-1.210007e-03	0.0	0.000000e+00	0.000000e+00	0.0	6.000000e-05	1.166039e-03	0.0	5.600000e-04	3.217826e-03	0.0	1.560000e-03	5.046638e-03	0.0	3.050000e-03	6.742583e-03	0.0	5.040000e-03	8.361691e-03	0.0	7.520000e-03	9.918498e-03	0.0	1.049000e-02	1.142868e-02	0.0	1.395000e-02	1.290151e-02	0.0	1.790000e-02	1.434254e-02	0.0	2.232000e-02	1.574908e-02	0.0	2.723000e-02	1.713024e-02	0.0	3.260000e-02	1.847938e-02	0.0	3.844000e-02	1.980072e-02	0.0	4.474000e-02	2.109290e-02	0.0	5.149000e-02	2.235482e-02	0.0	5.869000e-02	2.358728e-02	0.0	6.633000e-02	2.478924e-02	0.0	7.440000e-02	2.595998e-02	0.0	8.290000e-02	2.710031e-02	0.0	9.181000e-02	2.820850e-02	0.0	1.011300e-01	2.928563e-02	0.0	1.108500e-01	3.033159e-02	0.0	1.209500e-01	3.134549e-02	0.0	1.314400e-01	3.232953e-02	0.0	1.422900e-01	3.328213e-02	0.0	1.534900e-01	3.420380e-02	0.0	1.650400e-01	3.509582e-02	0.0	1.769300e-01	3.595853e-02	0.0	1.891400e-01	3.679155e-02	0.0	2.016600e-01	3.759516e-02	0.0	2.144700e-01	3.836891e-02	0.0	2.275700e-01	3.911335e-02	0.0	2.409400e-01	3.982758e-02	0.0	2.545700e-01	4.051098e-02	0.0	2.684500e-01	4.116258e-02	0.0	2.825500e-01	4.178012e-02	0.0	2.968700e-01	4.236229e-02	0.0	3.114000e-01	4.290684e-02	0.0	3.261100e-01	4.341034e-02	0.0	3.409900e-01	4.386974e-02	0.0	3.560400e-01	4.428174e-02	0.0	3.712300e-01	4.464183e-02	0.0	3.865400e-01	4.494557e-02	0.0	4.019700e-01	4.518863e-02	0.0	4.175000e-01	4.536609e-02	0.0	4.331100e-01	4.547301e-02	0.0	4.487800e-01	4.550453e-02	0.0	4.645100e-01	4.545587e-02	0.0	4.802700e-01	4.532237e-02	0.0	4.960500e-01	4.509954e-02	0.0	5.118400e-01	4.478304e-02	0.0	5.276100e-01	4.436927e-02	0.0	5.433600e-01	4.385430e-02	0.0	5.590600e-01	4.323557e-02	0.0	5.747100e-01	4.251003e-02	0.0	5.902800e-01	4.167676e-02	0.0	6.057600e-01	4.073503e-02	0.0	6.211300e-01	3.968610e-02	0.0	6.363800e-01	3.853230e-02	0.0	6.515000e-01	3.727793e-02	0.0	6.664700e-01	3.593039e-02	0.0	6.812700e-01	3.449976e-02	0.0	6.958900e-01	3.299767e-02	0.0	7.103200e-01	3.143773e-02	0.0	7.245300e-01	2.983734e-02	0.0	7.385200e-01	2.821123e-02	0.0	7.522800e-01	2.657470e-02	0.0	7.657800e-01	2.494383e-02	0.0	7.790100e-01	2.332962e-02	0.0	7.919700e-01	2.173827e-02	0.0	8.046400e-01	2.017457e-02	0.0	8.170100e-01	1.863830e-02	0.0	8.290500e-01	1.712871e-02	0.0	8.407700e-01	1.563781e-02	0.0	8.521600e-01	1.415878e-02	0.0	8.631800e-01	1.268814e-02	0.0	8.738500e-01	1.121446e-02	0.0	8.841500e-01	9.732277e-03	0.0	8.940600e-01	8.239157e-03	0.0	9.035800e-01	6.736698e-03	0.0	9.127000e-01	5.241430e-03	0.0	9.214000e-01	3.792431e-03	0.0	9.296900e-01	2.449032e-03	0.0	9.375400e-01	1.298375e-03	0.0	9.449600e-01	4.268908e-04	0.0	9.519400e-01	-9.670142e-05	0.0	9.584700e-01	-2.543421e-04	0.0	9.645400e-01	-9.680574e-05	0.0	9.701500e-01	2.628226e-04	0.0	9.752800e-01	6.784136e-04	0.0	9.799500e-01	1.018766e-03	0.0	9.841300e-01	1.197879e-03	0.0	9.878400e-01	1.196100e-03	0.0	9.910500e-01	1.046812e-03	0.0	9.937800e-01	8.108997e-04	0.0	9.960200e-01	5.521548e-04	0.0	9.977600e-01	3.205026e-04	0.0	9.990000e-01	1.448331e-04	0.0	9.997500e-01	3.632230e-05	0.0	1.000000e+00	0.000000e+00	0.0	
CELLS 200	600
2	199	0	2	0	1	2	1	2	2	2	3	2	3	4	2	4	5	2	5	6	2	6	7	2	7	8	2	8	9	2	9	10	2	10	11	2	11	12	2	12	13	2	13	14	2	14	15	2	15	16	2	16	17	2	17	18	2	18	19	2	19	20	2	20	21	2	21	22	2	22	23	2	23	24	2	24	25	2	25	26	2	26	27	2	27	28	2	28	29	2	29	30	2	30	31	2	31	32	2	32	33	2	33	34	2	34	35	2	35	36	2	36	37	2	37	38	2	38	39	2	39	40	2	40	41	2	41	42	2	42	43	2	43	44	2	44	45	2	45	46	2	46	47	2	47	48	2	48	49	2	49	50	2	50	51	2	51	52	2	52	53	2	53	54	2	54	55	2	55	56	2	56	57	2	57	58	2	58	59	2	59	60	2	60	61	2	61	62	2	62	63	2	63	64	2	64	65	2	65	66	2	66	67	2	67	68	2	68	69	2	69	70	2	70	71	2	71	72	2	72	73	2	73	74	2	74	75	2	75	76	2	76	77	2	77	78	2	78	79	2	79	80	2	80	81	2	81	82	2	82	83	2	83	84	2	84	85	2	85	86	2	86	87	2	87	88	2	88	89	2	89	90	2	90	91	2	91	92	2	92	93	2	93	94	2	94	95	2	95	96	2	96	97	2	97	98	2	98	99	2	99	100	2	100	101	2	101	102	2	102	103	2	103	104	2	104	105	2	105	106	2	106	107	2	107	108	2	108	109	2	109	110	2	110	111	2	111	112	2	112	113	2	113	114	2	114	115	2	115	116	2	116	117	2	117	118	2	118	119	2	119	120	2	120	121	2	121	122	2	122	123	2	123	124	2	124	125	2	125	126	2	126	127	2	127	128	2	128	129	2	129	130	2	130	131	2	131	132	2	132	133	2	133	134	2	134	135	2	135	136	2	136	137	2	137	138	2	138	139	2	139	140	2	140	141	2	141	142	2	142	143	2	143	144	2	144	145	2	145	146	2	146	147	2	147	148	2	148	149	2	149	150	2	150	151	2	151	152	2	152	153	2	153	154	2	154	155	2	155	156	2	156	157	2	157	158	2	158	159	2	159	160	2	160	161	2	161	162	2	162	163	2	163	164	2	164	165	2	165	166	2	166	167	2	167	168	2	168	169	2	169	170	2	170	171	2	171	172	2	172	173	2	173	174	2	174	175	2	175	176	2	176	177	2	177	178	2	178	179	2	179	180	2	180	181	2	181	182	2	182	183	2	183	184	2	184	185	2	185	186	2	186	187	2	187	188	2	188	189	2	189	190	2	190	191	2	191	192	2	192	193	2	193	194	2	194	195	2	195	196	2	196	197	2	197	198	2	198	199	
CELL_TYPES 200
3	3	3	3	3	3	3	3	3	3	3	3	3	3	3	3	3	3	3	3	3	3	3	3	3	3	3	3	3	3	3	3	3	3	3	3	3	3	3	3	3	3	3	3	3	3	3	3	3	3	3	3	3	3	3	3	3	3	3	3	3	3	3	3	3	3	3	3	3	3	3	3	3	3	3	3	3	3	3	3	3	3	3	3	3	3	3	3	3	3	3	3	3	3	3	3	3	3	3	3	3	3	3	3	3	3	3	3	3	3	3	3	3	3	3	3	3	3	3	3	3	3	3	3	3	3	3	3	3	3	3	3	3	3	3	3	3	3	3	3	3	3	3	3	3	3	3	3	3	3	3	3	3	3	3	3	3	3	3	3	3	3	3	3	3	3	3	3	3	3	3	3	3	3	3	3	3	3	3	3	3	3	3	3	3	3	3	3	3	3	3	3	3	3	3	3	3	3	3	3	
POINT_DATA 200

SCALARS Conservative_1 float 1
LOOKUP_TABLE default
1.194908e+00	1.179151e+00	1.172165e+00	1.169537e+00	1.168214e+00	1.165343e+00	1.157028e+00	1.140435e+00	1.113035e+00	1.074318e+00	1.024628e+00	9.627107e-01	9.066930e-01	8.845958e-01	8.955062e-01	9.233147e-01	9.534117e-01	9.754552e-01	9.862603e-01	9.866612e-01	9.783709e-01	9.635552e-01	9.446079e-01	9.233598e-01	8.996935e-01	8.736690e-01	8.503504e-01	8.363425e-01	8.333332e-01	8.385725e-01	8.482025e-01	8.591971e-01	8.698664e-01	8.793053e-01	8.873726e-01	8.941533e-01	8.998827e-01	9.048426e-01	9.092489e-01	9.133606e-01	9.173131e-01	9.212435e-01	9.251692e-01	9.290982e-01	9.329485e-01	9.366454e-01	9.400659e-01	9.431158e-01	9.456790e-01	9.476728e-01	9.490043e-01	9.496233e-01	9.494793e-01	9.485555e-01	9.468365e-01	9.443315e-01	9.410523e-01	9.370300e-01	9.323073e-01	9.269316e-01	9.209770e-01	9.144565e-01	9.073642e-01	8.996671e-01	8.915950e-01	8.835212e-01	8.756009e-01	8.670610e-01	8.565127e-01	8.432876e-01	8.295944e-01	8.191637e-01	8.141044e-01	8.139140e-01	8.171051e-01	8.223683e-01	8.292256e-01	8.375684e-01	8.472472e-01	8.581698e-01	8.703537e-01	8.837647e-01	8.984658e-01	9.144552e-01	9.317942e-01	9.505931e-01	9.708852e-01	9.928018e-01	1.016568e+00	1.042267e+00	1.070273e+00	1.101095e+00	1.135101e+00	1.173170e+00	1.215723e+00	1.262031e+00	1.307446e+00	1.347987e+00	1.347999e+00	1.321563e+00	1.296584e+00	1.222685e+00	1.088558e+00	9.925622e-01	9.285002e-01	8.888781e-01	8.650467e-01	8.499718e-01	8.396091e-01	8.321750e-01	8.267075e-01	8.225433e-01	8.194359e-01	8.170497e-01	8.153081e-01	8.142671e-01	8.137970e-01	8.137630e-01	8.141666e-01	8.151432e-01	8.169878e-01	8.198661e-01	8.236237e-01	8.278296e-01	8.320503e-01	8.360085e-01	8.395204e-01	8.424351e-01	8.447171e-01	8.464792e-01	8.478568e-01	8.489117e-01	8.496180e-01	8.499178e-01	8.497791e-01	8.491837e-01	8.481428e-01	8.466643e-01	8.447520e-01	8.424131e-01	8.396351e-01	8.364138e-01	8.328129e-01	8.289588e-01	8.249504e-01	8.208205e-01	8.165554e-01	8.124250e-01	8.092408e-01	8.087319e-01	8.129953e-01	8.231332e-01	8.372467e-01	8.509022e-01	8.609793e-01	8.682265e-01	8.749976e-01	8.830609e-01	8.928767e-01	9.038227e-01	9.151621e-01	9.266002e-01	9.380713e-01	9.494607e-01	9.605102e-01	9.710270e-01	9.808199e-01	9.898005e-01	9.978741e-01	1.005118e+00	1.011603e+00	1.017502e+00	1.023056e+00	1.028526e+00	1.034217e+00	1.040456e+00	1.047618e+00	1.056188e+00	1.066667e+00	1.079562e+00	1.094967e+00	1.112356e+00	1.130265e+00	1.146690e+00	1.159283e+00	1.165736e+00	1.164034e+00	1.152869e+00	1.132102e+00	1.104080e+00	1.075012e+00	1.052677e+00	1.044521e+00	1.053653e+00	1.075734e+00	1.102837e+00	1.129819e+00	1.156217e+00	1.184512e+00	1.174610e+00	
SCALARS Conservative_2 float 1
LOOKUP_TABLE default
7.156771e-01	7.377150e-01	7.504697e-01	7.550622e-01	7.547303e-01	7.548230e-01	7.588488e-01	7.711500e-01	7.942620e-01	8.280411e-01	8.691197e-01	9.104131e-01	9.416147e-01	9.619455e-01	9.712425e-01	9.690312e-01	9.607710e-01	9.517212e-01	9.449292e-01	9.425484e-01	9.446082e-01	9.499242e-01	9.567601e-01	9.637573e-01	9.700434e-01	9.746640e-01	9.768899e-01	9.778055e-01	9.784147e-01	9.789916e-01	9.794406e-01	9.795615e-01	9.794491e-01	9.789850e-01	9.783698e-01	9.776348e-01	9.768866e-01	9.761741e-01	9.754141e-01	9.746673e-01	9.738488e-01	9.729984e-01	9.720584e-01	9.710791e-01	9.700396e-01	9.690077e-01	9.679883e-01	9.670593e-01	9.662368e-01	9.655885e-01	9.651265e-01	9.649138e-01	9.649445e-01	9.652435e-01	9.657971e-01	9.666056e-01	9.676324e-01	9.688527e-01	9.702165e-01	9.716664e-01	9.731779e-01	9.746767e-01	9.761722e-01	9.775627e-01	9.787973e-01	9.797050e-01	9.803732e-01	9.808755e-01	9.813801e-01	9.814998e-01	9.808758e-01	9.796841e-01	9.786546e-01	9.779047e-01	9.774665e-01	9.769769e-01	9.764105e-01	9.755642e-01	9.741297e-01	9.719422e-01	9.688922e-01	9.646627e-01	9.590345e-01	9.516348e-01	9.420621e-01	9.297814e-01	9.141551e-01	8.945181e-01	8.698408e-01	8.386814e-01	7.993141e-01	7.492195e-01	6.845335e-01	6.008395e-01	4.920413e-01	3.542260e-01	1.976334e-01	5.391084e-02	-1.067133e-02	6.917204e-03	7.782838e-02	2.415847e-01	4.702678e-01	6.456566e-01	7.589121e-01	8.295495e-01	8.730737e-01	9.009056e-01	9.191423e-01	9.317079e-01	9.407224e-01	9.473057e-01	9.523547e-01	9.563067e-01	9.594562e-01	9.620656e-01	9.642089e-01	9.659999e-01	9.676023e-01	9.690465e-01	9.704009e-01	9.716747e-01	9.728216e-01	9.737782e-01	9.745801e-01	9.752580e-01	9.758304e-01	9.763062e-01	9.767119e-01	9.770687e-01	9.773903e-01	9.776727e-01	9.779274e-01	9.781501e-01	9.783590e-01	9.785455e-01	9.787196e-01	9.788699e-01	9.789840e-01	9.790701e-01	9.791151e-01	9.791010e-01	9.790191e-01	9.788745e-01	9.786441e-01	9.783481e-01	9.779744e-01	9.776489e-01	9.774497e-01	9.776613e-01	9.784494e-01	9.795995e-01	9.802267e-01	9.799892e-01	9.793389e-01	9.787190e-01	9.780719e-01	9.770739e-01	9.755278e-01	9.733630e-01	9.706335e-01	9.674084e-01	9.637136e-01	9.596151e-01	9.552163e-01	9.506638e-01	9.460940e-01	9.416639e-01	9.373810e-01	9.333822e-01	9.296016e-01	9.259407e-01	9.222976e-01	9.184795e-01	9.142477e-01	9.093178e-01	9.032764e-01	8.956264e-01	8.856419e-01	8.727100e-01	8.563983e-01	8.371391e-01	8.165139e-01	7.975353e-01	7.838666e-01	7.789947e-01	7.853279e-01	8.033775e-01	8.308810e-01	8.629561e-01	8.919561e-01	9.096732e-01	9.119278e-01	9.001747e-01	8.774610e-01	8.479174e-01	8.139924e-01	7.759195e-01	7.325726e-01	6.650215e-01	
SCALARS Conservative_3 float 1
LOOKUP_TABLE default
1.015223e-01	1.065209e-01	1.139305e-01	1.243796e-01	1.416139e-01	1.666992e-01	1.984261e-01	2.329656e-01	2.644184e-01	2.848127e-01	2.873919e-01	2.707428e-01	2.329110e-01	1.855498e-01	1.434138e-01	1.138614e-01	1.003447e-01	1.007720e-01	1.093205e-01	1.206991e-01	1.308640e-01	1.372010e-01	1.383553e-01	1.342534e-01	1.262564e-01	1.159975e-01	1.038433e-01	9.069148e-02	7.788840e-02	6.633103e-02	5.646759e-02	4.832100e-02	4.180564e-02	3.665010e-02	3.252687e-02	2.916052e-02	2.631316e-02	2.380290e-02	2.151306e-02	1.937882e-02	1.738993e-02	1.557673e-02	1.398891e-02	1.268759e-02	1.173052e-02	1.116043e-02	1.100027e-02	1.124583e-02	1.187469e-02	1.283238e-02	1.405580e-02	1.545551e-02	1.694341e-02	1.841730e-02	1.977967e-02	2.093489e-02	2.179533e-02	2.227802e-02	2.231688e-02	2.184536e-02	2.080948e-02	1.917208e-02	1.692464e-02	1.407414e-02	1.058830e-02	6.354451e-03	1.272699e-03	-4.567958e-03	-1.084202e-02	-1.732978e-02	-2.446638e-02	-3.268207e-02	-4.196783e-02	-5.212178e-02	-6.307992e-02	-7.485387e-02	-8.757008e-02	-1.012625e-01	-1.159664e-01	-1.317560e-01	-1.486682e-01	-1.667215e-01	-1.859657e-01	-2.064024e-01	-2.280259e-01	-2.508376e-01	-2.748312e-01	-2.999573e-01	-3.260449e-01	-3.529148e-01	-3.801793e-01	-4.067593e-01	-4.308003e-01	-4.481060e-01	-4.494992e-01	-4.181902e-01	-3.277596e-01	-1.512905e-01	9.104810e-02	2.866621e-01	4.675535e-01	6.546161e-01	6.963552e-01	6.345088e-01	5.475938e-01	4.683081e-01	4.040327e-01	3.526542e-01	3.112722e-01	2.771946e-01	2.488714e-01	2.248936e-01	2.043645e-01	1.865908e-01	1.710464e-01	1.573592e-01	1.452321e-01	1.343841e-01	1.246368e-01	1.158244e-01	1.078496e-01	1.006546e-01	9.414839e-02	8.821627e-02	8.275889e-02	7.770577e-02	7.303373e-02	6.868898e-02	6.463071e-02	6.082014e-02	5.723752e-02	5.384765e-02	5.060844e-02	4.746655e-02	4.438451e-02	4.131948e-02	3.823858e-02	3.510378e-02	3.187917e-02	2.853243e-02	2.502863e-02	2.133964e-02	1.743169e-02	1.329594e-02	8.929091e-03	4.318715e-03	-5.712160e-04	-5.798261e-03	-1.139511e-02	-1.736448e-02	-2.352492e-02	-2.963665e-02	-3.548159e-02	-4.155808e-02	-4.841592e-02	-5.584093e-02	-6.333618e-02	-7.061873e-02	-7.761430e-02	-8.431864e-02	-9.066678e-02	-9.652331e-02	-1.016572e-01	-1.059537e-01	-1.093205e-01	-1.117930e-01	-1.134040e-01	-1.143142e-01	-1.147235e-01	-1.148905e-01	-1.150810e-01	-1.155431e-01	-1.164886e-01	-1.180655e-01	-1.203691e-01	-1.234650e-01	-1.273361e-01	-1.318254e-01	-1.364560e-01	-1.401847e-01	-1.412374e-01	-1.372400e-01	-1.257440e-01	-1.052088e-01	-7.562848e-02	-3.910819e-02	1.193470e-05	3.546784e-02	5.983253e-02	6.638852e-02	5.200310e-02	2.021806e-02	-2.012696e-02	-5.861158e-02	-8.719664e-02	-1.032652e-01	-1.092854e-01	-1.071129e-01	-1.008165e-01	4.109790e-03	
SCALARS Conservative_4 float 1
LOOKUP_TABLE default
3.432121e+00	3.392528e+00	3.375741e+00	3.369638e+00	3.366488e+00	3.359533e+00	3.338795e+00	3.297330e+00	3.228716e+00	3.131551e+00	3.006296e+00	2.848727e+00	2.705130e+00	2.649568e+00	2.679103e+00	2.751052e+00	2.828454e+00	2.884935e+00	2.912330e+00	2.913136e+00	2.891806e+00	2.853812e+00	2.805139e+00	2.750378e+00	2.689091e+00	2.621291e+00	2.560133e+00	2.523215e+00	2.515158e+00	2.528809e+00	2.554048e+00	2.582876e+00	2.610869e+00	2.635579e+00	2.656672e+00	2.674361e+00	2.689287e+00	2.702204e+00	2.713651e+00	2.724331e+00	2.734577e+00	2.744764e+00	2.754922e+00	2.765087e+00	2.775034e+00	2.784583e+00	2.793407e+00	2.801276e+00	2.807882e+00	2.813023e+00	2.816451e+00	2.818050e+00	2.817681e+00	2.815307e+00	2.810883e+00	2.804436e+00	2.795989e+00	2.785620e+00	2.773432e+00	2.759541e+00	2.744139e+00	2.727245e+00	2.708852e+00	2.688847e+00	2.667831e+00	2.646742e+00	2.626017e+00	2.603645e+00	2.576032e+00	2.541327e+00	2.505247e+00	2.477618e+00	2.464160e+00	2.463572e+00	2.471985e+00	2.485870e+00	2.503993e+00	2.526030e+00	2.551517e+00	2.580196e+00	2.612120e+00	2.647144e+00	2.685424e+00	2.726905e+00	2.771706e+00	2.820058e+00	2.871985e+00	2.927798e+00	2.988000e+00	3.052686e+00	3.122753e+00	3.199395e+00	3.283330e+00	3.376765e+00	3.480545e+00	3.592943e+00	3.703020e+00	3.804073e+00	3.802263e+00	3.735712e+00	3.681137e+00	3.504875e+00	3.162406e+00	2.916983e+00	2.753132e+00	2.652491e+00	2.592283e+00	2.554246e+00	2.527938e+00	2.508955e+00	2.494951e+00	2.484222e+00	2.476220e+00	2.470078e+00	2.465604e+00	2.462972e+00	2.461823e+00	2.461809e+00	2.462965e+00	2.465638e+00	2.470610e+00	2.478311e+00	2.488316e+00	2.499469e+00	2.510643e+00	2.521115e+00	2.530404e+00	2.538113e+00	2.544152e+00	2.548821e+00	2.552478e+00	2.555281e+00	2.557166e+00	2.557976e+00	2.557632e+00	2.556083e+00	2.553362e+00	2.549486e+00	2.544461e+00	2.538310e+00	2.530997e+00	2.522508e+00	2.513008e+00	2.502833e+00	2.492237e+00	2.481314e+00	2.470025e+00	2.459122e+00	2.450752e+00	2.449527e+00	2.460979e+00	2.487942e+00	2.525207e+00	2.561081e+00	2.587500e+00	2.606533e+00	2.624343e+00	2.645492e+00	2.671149e+00	2.699665e+00	2.729118e+00	2.758748e+00	2.788383e+00	2.817734e+00	2.846136e+00	2.873108e+00	2.898168e+00	2.921117e+00	2.941695e+00	2.960145e+00	2.976638e+00	2.991616e+00	3.005705e+00	3.019565e+00	3.033962e+00	3.049721e+00	3.067767e+00	3.089309e+00	3.115556e+00	3.147762e+00	3.186110e+00	3.229279e+00	3.273625e+00	3.314302e+00	3.345614e+00	3.361944e+00	3.358279e+00	3.331238e+00	3.280108e+00	3.210447e+00	3.137631e+00	3.080917e+00	3.059357e+00	3.081646e+00	3.136839e+00	3.204528e+00	3.271392e+00	3.336352e+00	3.406287e+00	3.366204e+00	
SCALARS Pressure float 1
LOOKUP_TABLE default
1.285394e+00	1.262779e+00	1.251985e+00	1.247715e+00	1.245642e+00	1.241260e+00	1.229173e+00	1.205126e+00	1.165566e+00	1.109875e+00	1.038954e+00	9.520713e-01	8.745097e-01	8.428314e-01	8.563709e-01	8.942102e-01	9.356319e-01	9.661789e-01	9.814425e-01	9.822197e-01	9.708194e-01	9.503204e-01	9.241890e-01	8.950627e-01	8.629142e-01	8.279694e-01	7.970651e-01	7.786798e-01	7.748562e-01	7.818896e-01	7.946704e-01	8.092492e-01	8.233785e-01	8.359333e-01	8.466905e-01	8.557719e-01	8.634650e-01	8.701305e-01	8.760797e-01	8.816323e-01	8.869910e-01	8.923208e-01	8.976617e-01	9.030087e-01	9.082630e-01	9.133090e-01	9.179892e-01	9.221614e-01	9.256747e-01	9.284058e-01	9.302342e-01	9.310795e-01	9.308796e-01	9.296063e-01	9.272432e-01	9.238007e-01	9.193019e-01	9.137907e-01	9.073327e-01	9.000013e-01	8.918940e-01	8.830450e-01	8.734379e-01	8.630542e-01	8.522015e-01	8.414155e-01	8.308702e-01	8.195271e-01	8.054951e-01	7.879868e-01	7.700057e-01	7.564544e-01	7.499384e-01	7.497740e-01	7.539601e-01	7.608547e-01	7.698037e-01	7.807044e-01	7.934295e-01	8.078730e-01	8.240516e-01	8.419742e-01	8.617341e-01	8.833795e-01	9.070334e-01	9.329001e-01	9.610865e-01	9.918009e-01	1.025427e+00	1.062202e+00	1.102701e+00	1.147747e+00	1.198069e+00	1.254930e+00	1.319150e+00	1.389578e+00	1.458800e+00	1.517802e+00	1.519658e+00	1.481842e+00	1.437800e+00	1.322308e+00	1.135238e+00	1.001670e+00	9.126030e-01	8.568145e-01	8.229363e-01	8.014569e-01	7.868533e-01	7.764863e-01	7.689042e-01	7.631928e-01	7.589274e-01	7.556489e-01	7.532467e-01	7.517685e-01	7.510614e-01	7.509416e-01	7.513790e-01	7.525620e-01	7.548721e-01	7.585344e-01	7.633647e-01	7.688161e-01	7.743059e-01	7.794610e-01	7.840366e-01	7.878351e-01	7.908054e-01	7.930934e-01	7.948755e-01	7.962367e-01	7.971406e-01	7.975142e-01	7.973103e-01	7.965085e-01	7.951202e-01	7.931594e-01	7.906346e-01	7.875515e-01	7.838965e-01	7.796683e-01	7.749516e-01	7.699102e-01	7.646811e-01	7.592996e-01	7.537494e-01	7.483457e-01	7.441443e-01	7.433608e-01	7.487404e-01	7.618019e-01	7.802573e-01	7.982948e-01	8.116615e-01	8.212402e-01	8.301626e-01	8.408480e-01	8.539442e-01	8.686422e-01	8.839574e-01	8.994854e-01	9.151386e-01	9.307532e-01	9.459754e-01	9.605235e-01	9.741255e-01	9.866326e-01	9.979291e-01	1.008078e+00	1.017187e+00	1.025499e+00	1.033337e+00	1.041074e+00	1.049144e+00	1.058016e+00	1.068247e+00	1.080538e+00	1.095664e+00	1.114366e+00	1.136839e+00	1.162322e+00	1.188681e+00	1.212851e+00	1.231254e+00	1.240404e+00	1.237346e+00	1.220310e+00	1.189449e+00	1.148482e+00	1.106535e+00	1.075070e+00	1.064432e+00	1.078196e+00	1.110176e+00	1.149493e+00	1.189152e+00	1.228415e+00	1.270185e+00	1.271177e+00	
SCALARS Temperature float 1
LOOKUP_TABLE default
1.075727e+00	1.070923e+00	1.068097e+00	1.066845e+00	1.066279e+00	1.065146e+00	1.062353e+00	1.056725e+00	1.047196e+00	1.033097e+00	1.013981e+00	9.889485e-01	9.645047e-01	9.527870e-01	9.562981e-01	9.684783e-01	9.813514e-01	9.904903e-01	9.951151e-01	9.954984e-01	9.922815e-01	9.862646e-01	9.783837e-01	9.693541e-01	9.591201e-01	9.476923e-01	9.373372e-01	9.310537e-01	9.298275e-01	9.324054e-01	9.368875e-01	9.418668e-01	9.465574e-01	9.506746e-01	9.541545e-01	9.570752e-01	9.595307e-01	9.616374e-01	9.635202e-01	9.652621e-01	9.669447e-01	9.686048e-01	9.702677e-01	9.719196e-01	9.735403e-01	9.750852e-01	9.765157e-01	9.777818e-01	9.788467e-01	9.796691e-01	9.802213e-01	9.804724e-01	9.804106e-01	9.800231e-01	9.793067e-01	9.782589e-01	9.768871e-01	9.751990e-01	9.732121e-01	9.709468e-01	9.684216e-01	9.656502e-01	9.626100e-01	9.593039e-01	9.558168e-01	9.523433e-01	9.489142e-01	9.451781e-01	9.404356e-01	9.344223e-01	9.281713e-01	9.234472e-01	9.211821e-01	9.211956e-01	9.227211e-01	9.251994e-01	9.283405e-01	9.321082e-01	9.364793e-01	9.413907e-01	9.468008e-01	9.527130e-01	9.591174e-01	9.660172e-01	9.734268e-01	9.813874e-01	9.899075e-01	9.989918e-01	1.008715e+00	1.019127e+00	1.030300e+00	1.042369e+00	1.055473e+00	1.069692e+00	1.085074e+00	1.101065e+00	1.115763e+00	1.125977e+00	1.127344e+00	1.121279e+00	1.108914e+00	1.081479e+00	1.042883e+00	1.009176e+00	9.828786e-01	9.639280e-01	9.513201e-01	9.429217e-01	9.371663e-01	9.330806e-01	9.300801e-01	9.278451e-01	9.261584e-01	9.248506e-01	9.238797e-01	9.232456e-01	9.229100e-01	9.228014e-01	9.228812e-01	9.232267e-01	9.239699e-01	9.251931e-01	9.268367e-01	9.287130e-01	9.305998e-01	9.323602e-01	9.339101e-01	9.351878e-01	9.361779e-01	9.369320e-01	9.375115e-01	9.379499e-01	9.382341e-01	9.383428e-01	9.382560e-01	9.379696e-01	9.374839e-01	9.368051e-01	9.359369e-01	9.348757e-01	9.336158e-01	9.321562e-01	9.305231e-01	9.287678e-01	9.269420e-01	9.250494e-01	9.230842e-01	9.211259e-01	9.195586e-01	9.191683e-01	9.209652e-01	9.254904e-01	9.319324e-01	9.381746e-01	9.427189e-01	9.458825e-01	9.487599e-01	9.521971e-01	9.563965e-01	9.610759e-01	9.659026e-01	9.707374e-01	9.755533e-01	9.802967e-01	9.848676e-01	9.891831e-01	9.931747e-01	9.967995e-01	1.000055e+00	1.002945e+00	1.005520e+00	1.007859e+00	1.010049e+00	1.012200e+00	1.014433e+00	1.016878e+00	1.019691e+00	1.023055e+00	1.027184e+00	1.032239e+00	1.038240e+00	1.044919e+00	1.051683e+00	1.057697e+00	1.062083e+00	1.064052e+00	1.062981e+00	1.058498e+00	1.050656e+00	1.040216e+00	1.029323e+00	1.021272e+00	1.019062e+00	1.023293e+00	1.032017e+00	1.042305e+00	1.052516e+00	1.062443e+00	1.072328e+00	1.082212e+00	
SCALARS Pressure_Coefficient float 1
LOOKUP_TABLE default
6.370402e-01	5.865605e-01	5.624666e-01	5.529349e-01	5.483090e-01	5.385274e-01	5.115459e-01	4.578695e-01	3.695672e-01	2.452568e-01	8.695070e-02	-1.069837e-01	-2.801122e-01	-3.508228e-01	-3.206006e-01	-2.361379e-01	-1.436789e-01	-7.549356e-02	-4.142304e-02	-3.968809e-02	-6.513520e-02	-1.108919e-01	-1.692211e-01	-2.342351e-01	-3.059952e-01	-3.839969e-01	-4.529797e-01	-4.940182e-01	-5.025531e-01	-4.868537e-01	-4.583251e-01	-4.257831e-01	-3.942444e-01	-3.662204e-01	-3.422087e-01	-3.219377e-01	-3.047655e-01	-2.898873e-01	-2.766079e-01	-2.642136e-01	-2.522521e-01	-2.403553e-01	-2.284336e-01	-2.164984e-01	-2.047701e-01	-1.935067e-01	-1.830599e-01	-1.737468e-01	-1.659047e-01	-1.598084e-01	-1.557272e-01	-1.538404e-01	-1.542865e-01	-1.571288e-01	-1.624035e-01	-1.700877e-01	-1.801298e-01	-1.924314e-01	-2.068467e-01	-2.232114e-01	-2.413079e-01	-2.610602e-01	-2.825048e-01	-3.056826e-01	-3.299074e-01	-3.539832e-01	-3.775220e-01	-4.028414e-01	-4.341628e-01	-4.732438e-01	-5.133802e-01	-5.436286e-01	-5.581732e-01	-5.585403e-01	-5.491962e-01	-5.338065e-01	-5.138310e-01	-4.894992e-01	-4.610948e-01	-4.288549e-01	-3.927420e-01	-3.527363e-01	-3.086292e-01	-2.603137e-01	-2.075147e-01	-1.497766e-01	-8.686040e-02	-1.830165e-02	5.675726e-02	1.388445e-01	2.292442e-01	3.297923e-01	4.421185e-01	5.690402e-01	7.123874e-01	8.695931e-01	1.024107e+00	1.155808e+00	1.159952e+00	1.075539e+00	9.772324e-01	7.194377e-01	3.018708e-01	3.727989e-03	-1.950825e-01	-3.196105e-01	-3.952314e-01	-4.431767e-01	-4.757738e-01	-4.989144e-01	-5.158388e-01	-5.285874e-01	-5.381084e-01	-5.454266e-01	-5.507887e-01	-5.540881e-01	-5.556666e-01	-5.559339e-01	-5.549575e-01	-5.523170e-01	-5.471605e-01	-5.389857e-01	-5.282039e-01	-5.160355e-01	-5.037815e-01	-4.922745e-01	-4.820612e-01	-4.735824e-01	-4.669522e-01	-4.618450e-01	-4.578671e-01	-4.548288e-01	-4.528112e-01	-4.519772e-01	-4.524324e-01	-4.542221e-01	-4.573210e-01	-4.616977e-01	-4.673335e-01	-4.742154e-01	-4.823738e-01	-4.918118e-01	-5.023401e-01	-5.135933e-01	-5.252653e-01	-5.372778e-01	-5.496666e-01	-5.617284e-01	-5.711065e-01	-5.728554e-01	-5.608473e-01	-5.316923e-01	-4.904970e-01	-4.502349e-01	-4.203985e-01	-3.990173e-01	-3.791013e-01	-3.552499e-01	-3.260175e-01	-2.932095e-01	-2.590236e-01	-2.243629e-01	-1.894228e-01	-1.545688e-01	-1.205906e-01	-8.811713e-02	-5.775554e-02	-2.983791e-02	-4.622523e-03	1.803175e-02	3.836445e-02	5.691653e-02	7.441233e-02	9.168328e-02	1.096966e-01	1.295008e-01	1.523365e-01	1.797722e-01	2.135347e-01	2.552803e-01	3.054434e-01	3.623262e-01	4.211624e-01	4.751143e-01	5.161926e-01	5.366151e-01	5.297895e-01	4.917639e-01	4.228783e-01	3.314327e-01	2.378012e-01	1.675672e-01	1.438213e-01	1.745441e-01	2.459275e-01	3.336897e-01	4.222147e-01	5.098539e-01	6.030921e-01	6.053051e-01	
SCALARS Mach float 1
LOOKUP_TABLE default
4.929400e-01	5.162464e-01	5.295696e-01	5.353870e-01	5.380014e-01	5.432047e-01	5.558714e-01	5.807492e-01	6.211558e-01	6.777432e-01	7.498375e-01	8.384817e-01	9.206445e-01	9.589066e-01	9.475063e-01	9.075208e-01	8.644084e-01	8.331713e-01	8.171357e-01	8.157991e-01	8.269797e-01	8.476858e-01	8.744338e-01	9.046172e-01	9.383045e-01	9.753588e-01	1.008499e+00	1.028435e+00	1.032312e+00	1.024157e+00	1.009930e+00	9.940493e-01	9.790098e-01	9.657406e-01	9.544728e-01	9.449760e-01	9.369627e-01	9.300657e-01	9.238839e-01	9.181493e-01	9.125955e-01	9.071018e-01	9.015843e-01	8.960885e-01	8.906817e-01	8.855142e-01	8.807166e-01	8.764607e-01	8.728735e-01	8.700982e-01	8.682325e-01	8.673834e-01	8.675924e-01	8.689024e-01	8.713218e-01	8.748543e-01	8.794691e-01	8.851327e-01	8.917779e-01	8.993267e-01	9.077086e-01	9.168697e-01	9.268744e-01	9.377038e-01	9.490721e-01	9.603437e-01	9.714223e-01	9.834405e-01	9.986225e-01	1.017763e+00	1.037541e+00	1.052415e+00	1.059526e+00	1.059483e+00	1.054696e+00	1.046905e+00	1.037007e+00	1.025098e+00	1.011228e+00	9.955714e-01	9.782271e-01	9.591464e-01	9.383134e-01	9.156586e-01	8.910609e-01	8.642864e-01	8.351807e-01	8.035648e-01	7.689581e-01	7.308716e-01	6.885928e-01	6.409186e-01	5.861716e-01	5.220828e-01	4.447731e-01	3.497679e-01	2.342196e-01	9.489758e-02	5.413172e-02	1.731761e-01	2.933950e-01	4.637946e-01	6.388344e-01	7.672949e-01	8.592274e-01	9.225425e-01	9.636544e-01	9.906737e-01	1.009043e+00	1.022018e+00	1.031514e+00	1.038570e+00	1.043886e+00	1.048002e+00	1.051055e+00	1.053048e+00	1.054102e+00	1.054443e+00	1.054193e+00	1.053108e+00	1.050772e+00	1.046925e+00	1.041749e+00	1.035832e+00	1.029871e+00	1.024300e+00	1.019388e+00	1.015333e+00	1.012187e+00	1.009789e+00	1.007945e+00	1.006549e+00	1.005644e+00	1.005297e+00	1.005574e+00	1.006486e+00	1.008033e+00	1.010193e+00	1.012953e+00	1.016324e+00	1.020321e+00	1.024946e+00	1.030113e+00	1.035658e+00	1.041417e+00	1.047377e+00	1.053555e+00	1.059702e+00	1.064615e+00	1.065837e+00	1.060206e+00	1.045989e+00	1.025655e+00	1.005833e+00	9.913231e-01	9.811786e-01	9.719198e-01	9.608170e-01	9.471861e-01	9.319061e-01	9.160370e-01	9.000230e-01	8.839455e-01	8.679776e-01	8.524570e-01	8.376749e-01	8.238836e-01	8.112544e-01	7.998211e-01	7.895965e-01	7.804229e-01	7.720389e-01	7.641403e-01	7.563376e-01	7.481837e-01	7.391975e-01	7.287733e-01	7.161871e-01	7.005446e-01	6.810833e-01	6.574899e-01	6.305325e-01	6.023745e-01	5.765081e-01	5.570851e-01	5.481955e-01	5.530428e-01	5.729982e-01	6.067114e-01	6.495965e-01	6.923522e-01	7.228741e-01	7.311131e-01	7.152926e-01	6.819452e-01	6.411766e-01	5.988424e-01	5.554687e-01	5.095157e-01	4.599707e-01	