# vtk DataFile Version 3.0
vtk output
ASCII
DATASET UNSTRUCTURED_GRID
POINTS 5233 float
9.997500e-01	-3.632897e-05	0.0	9.990000e-01	-1.452538e-04	0.0	9.977600e-01	-3.251112e-04	0.0	9.960200e-01	-5.769984e-04	0.0	9.937800e-01	-9.004365e-04	0.0	9.910500e-01	-1.293364e-03	0.0	9.878400e-01	-1.753610e-03	0.0	9.841300e-01	-2.283177e-03	0.0	9.799500e-01	-2.876826e-03	0.0	9.752800e-01	-3.536324e-03	0.0	9.701500e-01	-4.256269e-03	0.0	9.645400e-01	-5.038225e-03	0.0	9.584700e-01	-5.878077e-03	0.0	9.519400e-01	-6.774429e-03	0.0	9.449600e-01	-7.724467e-03	0.0	9.375400e-01	-8.725349e-03	0.0	9.296900e-01	-9.774221e-03	0.0	9.214000e-01	-1.087086e-02	0.0	9.127000e-01	-1.200973e-02	0.0	9.035800e-01	-1.319056e-02	0.0	8.940600e-01	-1.440916e-02	0.0	8.841500e-01	-1.566269e-02	0.0	8.738500e-01	-1.694956e-02	0.0	8.631800e-01	-1.826569e-02	0.0	8.521600e-01	-1.960709e-02	0.0	8.407700e-01	-2.097463e-02	0.0	8.290500e-01	-2.236196e-02	0.0	8.170100e-01	-2.376642e-02	0.0	8.046400e-01	-2.518764e-02	0.0	7.919700e-01	-2.662063e-02	0.0	7.790100e-01	-2.806277e-02	0.0	7.657800e-01	-2.951034e-02	0.0	7.522800e-01	-3.096181e-02	0.0	7.385200e-01	-3.241453e-02	0.0	7.245300e-01	-3.386377e-02	0.0	7.103200e-01	-3.530689e-02	0.0	6.958900e-01	-3.674225e-02	0.0	6.812700e-01	-3.816515e-02	0.0	6.664700e-01	-3.957289e-02	0.0	6.515000e-01	-4.096270e-02	0.0	6.363800e-01	-4.233084e-02	0.0	6.211300e-01	-4.367359e-02	0.0	6.057600e-01	-4.498807e-02	0.0	5.902800e-01	-4.627133e-02	0.0	5.747100e-01	-4.751951e-02	0.0	5.590600e-01	-4.872956e-02	0.0	5.433600e-01	-4.989684e-02	0.0	5.276100e-01	-5.101898e-02	0.0	5.118400e-01	-5.209138e-02	0.0	4.960500e-01	-5.311154e-02	0.0	4.802700e-01	-5.407492e-02	0.0	4.645100e-01	-5.497836e-02	0.0	4.487800e-01	-5.581860e-02	0.0	4.331100e-01	-5.659142e-02	0.0	4.175000e-01	-5.729417e-02	0.0	4.019700e-01	-5.792324e-02	0.0	3.865400e-01	-5.847521e-02	0.0	3.712300e-01	-5.894684e-02	0.0	3.560400e-01	-5.933562e-02	0.0	3.409900e-01	-5.963848e-02	0.0	3.261100e-01	-5.985254e-02	0.0	3.114000e-01	-5.997565e-02	0.0	2.968700e-01	-6.000550e-02	0.0	2.825500e-01	-5.994005e-02	0.0	2.684500e-01	-5.977766e-02	0.0	2.545700e-01	-5.951658e-02	0.0	2.409400e-01	-5.915586e-02	0.0	2.275700e-01	-5.869457e-02	0.0	2.144700e-01	-5.813197e-02	0.0	2.016600e-01	-5.746811e-02	0.0	1.891400e-01	-5.670228e-02	0.0	1.769300e-01	-5.583514e-02	0.0	1.650400e-01	-5.486709e-02	0.0	1.534900e-01	-5.379978e-02	0.0	1.422900e-01	-5.263443e-02	0.0	1.314400e-01	-5.137134e-02	0.0	1.209500e-01	-5.001187e-02	0.0	1.108500e-01	-4.856067e-02	0.0	1.011300e-01	-4.701715e-02	0.0	9.181000e-02	-4.538527e-02	0.0	8.290000e-02	-4.366791e-02	0.0	7.440000e-02	-4.186608e-02	0.0	6.633000e-02	-3.998514e-02	0.0	5.869000e-02	-3.802636e-02	0.0	5.149000e-02	-3.599338e-02	0.0	4.474000e-02	-3.389028e-02	0.0	3.844000e-02	-3.171811e-02	0.0	3.260000e-02	-2.948109e-02	0.0	2.723000e-02	-2.718420e-02	0.0	2.232000e-02	-2.482329e-02	0.0	1.790000e-02	-2.241365e-02	0.0	1.395000e-02	-1.994492e-02	0.0	1.049000e-02	-1.742916e-02	0.0	7.520000e-03	-1.486756e-02	0.0	5.040000e-03	-1.226032e-02	0.0	3.050000e-03	-9.605565e-03	0.0	1.560000e-03	-6.917518e-03	0.0	5.600000e-04	-4.173160e-03	0.0	6.000000e-05	-1.375330e-03	0.0	0.000000e+00	0.000000e+00	0.0	6.000000e-05	1.690937e-03	0.0	5.600000e-04	6.510108e-03	0.0	1.560000e-03	1.267190e-02	0.0	3.050000e-03	1.984714e-02	0.0	5.040000e-03	2.786280e-02	0.0	7.520000e-03	3.648497e-02	0.0	1.049000e-02	4.555051e-02	0.0	1.395000e-02	5.491251e-02	0.0	1.790000e-02	6.443882e-02	0.0	2.232000e-02	7.396988e-02	0.0	2.723000e-02	8.344859e-02	0.0	3.260000e-02	9.272944e-02	0.0	3.844000e-02	1.017571e-01	0.0	4.474000e-02	1.104510e-01	0.0	5.149000e-02	1.187444e-01	0.0	5.869000e-02	1.265929e-01	0.0	6.633000e-02	1.339488e-01	0.0	7.440000e-02	1.407749e-01	0.0	8.290000e-02	1.470498e-01	0.0	9.181000e-02	1.527443e-01	0.0	1.011300e-01	1.578504e-01	0.0	1.108500e-01	1.623589e-01	0.0	1.209500e-01	1.662628e-01	0.0	1.314400e-01	1.695715e-01	0.0	1.422900e-01	1.722846e-01	0.0	1.534900e-01	1.744141e-01	0.0	1.650400e-01	1.759760e-01	0.0	1.769300e-01	1.769870e-01	0.0	1.891400e-01	1.774666e-01	0.0	2.016600e-01	1.774387e-01	0.0	2.144700e-01	1.769303e-01	0.0	2.275700e-01	1.759709e-01	0.0	2.409400e-01	1.745937e-01	0.0	2.545700e-01	1.728349e-01	0.0	2.684500e-01	1.707334e-01	0.0	2.825500e-01	1.683353e-01	0.0	2.968700e-01	1.656854e-01	0.0	3.114000e-01	1.628330e-01	0.0	3.261100e-01	1.598346e-01	0.0	3.409900e-01	1.567456e-01	0.0	3.560400e-01	1.536210e-01	0.0	3.712300e-01	1.505231e-01	0.0	3.865400e-01	1.475114e-01	0.0	4.019700e-01	1.446396e-01	0.0	4.175000e-01	1.419614e-01	0.0	4.331100e-01	1.395244e-01	0.0	4.487800e-01	1.373670e-01	0.0	4.645100e-01	1.355143e-01	0.0	4.802700e-01	1.339819e-01	0.0	4.960500e-01	1.327671e-01	0.0	5.118400e-01	1.318501e-01	0.0	5.276100e-01	1.311931e-01	0.0	5.433600e-01	1.307376e-01	0.0	5.590600e-01	1.304073e-01	0.0	5.747100e-01	1.301074e-01	0.0	5.902800e-01	1.297288e-01	0.0	6.057600e-01	1.291512e-01	0.0	6.211300e-01	1.282479e-01	0.0	6.363800e-01	1.268910e-01	0.0	6.515000e-01	1.249564e-01	0.0	6.664700e-01	1.223312e-01	0.0	6.812700e-01	1.189186e-01	0.0	6.958900e-01	1.146387e-01	0.0	7.103200e-01	1.094320e-01	0.0	7.245300e-01	1.032696e-01	0.0	7.385200e-01	9.613312e-02	0.0	7.522800e-01	8.802806e-02	0.0	7.657800e-01	7.899438e-02	0.0	7.790100e-01	6.908494e-02	0.0	7.919700e-01	5.837108e-02	0.0	8.046400e-01	4.697559e-02	0.0	8.170100e-01	3.506162e-02	0.0	8.290500e-01	2.287403e-02	0.0	8.407700e-01	1.068950e-02	0.0	8.521600e-01	-1.120656e-03	0.0	8.631800e-01	-1.208929e-02	0.0	8.738500e-01	-2.177272e-02	0.0	8.841500e-01	-2.969444e-02	0.0	8.940600e-01	-3.545199e-02	0.0	9.035800e-01	-3.879180e-02	0.0	9.127000e-01	-3.964234e-02	0.0	9.214000e-01	-3.815758e-02	0.0	9.296900e-01	-3.470324e-02	0.0	9.375400e-01	-2.983163e-02	0.0	9.449600e-01	-2.418035e-02	0.0	9.519400e-01	-1.843831e-02	0.0	9.584700e-01	-1.335092e-02	0.0	9.645400e-01	-9.928586e-03	0.0	9.701500e-01	-9.988624e-03	0.0	9.752800e-01	-1.682299e-02	0.0	9.799500e-01	-3.464420e-02	0.0	9.841300e-01	-6.354284e-02	0.0	9.878400e-01	-9.164118e-02	0.0	9.910500e-01	-9.654350e-02	0.0	9.937800e-01	-6.957215e-02	0.0	9.960200e-01	-3.155340e-02	0.0	9.977600e-01	-7.886513e-03	0.0	9.990000e-01	-7.508014e-04	0.0	9.997500e-01	2.091346e-05	0.0	1.000000e+00	0.000000e+00	0.0	1.984229e+01	2.506660e+00	0.0	1.937166e+01	4.973800e+00	0.0	1.859553e+01	7.362490e+00	0.0	1.752613e+01	9.635070e+00	0.0	1.618034e+01	1.175571e+01	0.0	1.457937e+01	1.369094e+01	0.0	1.274848e+01	1.541027e+01	0.0	1.071654e+01	1.688656e+01	0.0	8.515590e+00	1.809654e+01	0.0	6.180340e+00	1.902113e+01	0.0	3.747630e+00	1.964575e+01	0.0	1.255810e+00	1.996053e+01	0.0	-1.255810e+00	1.996053e+01	0.0	-3.747630e+00	1.964574e+01	0.0	-6.180340e+00	1.902113e+01	0.0	-8.515590e+00	1.809654e+01	0.0	-1.071654e+01	1.688656e+01	0.0	-1.274848e+01	1.541026e+01	0.0	-1.457937e+01	1.369094e+01	0.0	-1.618034e+01	1.175570e+01	0.0	-1.752613e+01	9.635070e+00	0.0	-1.859553e+01	7.362490e+00	0.0	-1.937166e+01	4.973800e+00	0.0	-1.984229e+01	2.506660e+00	0.0	-2.000000e+01	0.000000e+00	0.0	-1.984229e+01	-2.506670e+00	0.0	-1.937166e+01	-4.973800e+00	0.0	-1.859553e+01	-7.362490e+00	0.0	-1.752613e+01	-9.635080e+00	0.0	-1.618034e+01	-1.175571e+01	0.0	-1.457937e+01	-1.369094e+01	0.0	-1.274848e+01	-1.541027e+01	0.0	-1.071653e+01	-1.688656e+01	0.0	-8.515580e+00	-1.809654e+01	0.0	-6.180340e+00	-1.902113e+01	0.0	-3.747620e+00	-1.964575e+01	0.0	-1.255810e+00	-1.996053e+01	0.0	1.255810e+00	-1.996053e+01	0.0	3.747630e+00	-1.964574e+01	0.0	6.180340e+00	-1.902113e+01	0.0	8.515590e+00	-1.809654e+01	0.0	1.071654e+01	-1.688656e+01	0.0	1.274848e+01	-1.541026e+01	0.0	1.457937e+01	-1.369094e+01	0.0	1.618034e+01	-1.175570e+01	0.0	1.752614e+01	-9.635070e+00	0.0	1.859553e+01	-7.362490e+00	0.0	1.937166e+01	-4.973790e+00	0.0	1.984229e+01	-2.506660e+00	0.0	2.000000e+01	0.000000e+00	0.0	6.093893e-02	-4.650985e-02	0.0	6.605248e-01	-5.398056e-02	0.0	4.272664e-01	1.562671e-01	0.0	6.931581e-01	1.270411e-01	0.0	3.795355e-01	-7.279093e-02	0.0	9.992686e-01	3.256829e-04	0.0	9.986336e-01	1.345555e-04	0.0	7.741387e-01	-4.086205e-02	0.0	6.901856e-01	-5.084546e-02	0.0	-3.645779e-03	1.159141e-02	0.0	7.470999e-01	-4.426056e-02	0.0	5.849564e-01	1.435572e-01	0.0	9.933871e-01	-1.942220e-03	0.0	9.905829e-01	-2.893594e-03	0.0	6.006695e-01	1.426192e-01	0.0	7.190851e-01	-4.759385e-02	0.0	-2.401735e-03	1.557583e-03	0.0	9.872498e-01	-3.929077e-03	0.0	9.834191e-01	-5.031217e-03	0.0	-2.454603e-03	-6.744505e-03	0.0	6.454489e-01	-5.549786e-02	0.0	8.248518e-01	-3.398438e-02	0.0	8.000859e-01	-3.743824e-02	0.0	3.500839e-01	1.697779e-01	0.0	8.483022e-01	-3.055132e-02	0.0	2.476436e-01	1.861685e-01	0.0	8.703818e-01	-2.715129e-02	0.0	5.766738e-03	5.321648e-02	0.0	8.909849e-01	-2.380305e-02	0.0	7.727236e-02	-5.099484e-02	0.0	9.100279e-01	-2.052510e-02	0.0	-3.054337e-03	-3.333865e-03	0.0	9.430647e-01	-1.428768e-02	0.0	9.274167e-01	-1.734175e-02	0.0	1.774910e-02	-2.834338e-02	0.0	4.261729e-01	-7.127187e-02	0.0	8.595220e-01	-2.884381e-02	0.0	9.569297e-01	-1.140088e-02	0.0	9.790816e-01	-6.205238e-03	0.0	9.689572e-01	-8.697677e-03	0.0	1.585969e-01	-6.511113e-02	0.0	9.007094e-01	-2.215420e-02	0.0	7.607509e-01	-4.256699e-02	0.0	9.974382e-01	-3.708842e-04	0.0	5.994200e-01	-5.980929e-02	0.0	4.418785e-01	-7.058657e-02	0.0	5.367276e-01	-6.487080e-02	0.0	4.734500e-01	-6.897099e-02	0.0	5.051012e-01	-6.705543e-02	0.0	4.892648e-01	-6.804798e-02	0.0	1.252693e-01	-6.057191e-02	0.0	2.780153e-02	-3.391771e-02	0.0	3.949888e-01	-7.237813e-02	0.0	4.634349e-02	-4.170791e-02	0.0	4.105361e-01	-7.187138e-02	0.0	3.190927e-01	-7.345525e-02	0.0	3.490079e-01	-7.332931e-02	0.0	3.352838e-02	-3.657646e-02	0.0	2.898727e-01	-7.316342e-02	0.0	9.354624e-01	-1.579494e-02	0.0	1.471357e-01	-6.369967e-02	0.0	1.949783e-01	-6.869096e-02	0.0	8.606698e-02	-5.310361e-02	0.0	1.048882e-01	-5.704276e-02	0.0	5.682114e-01	-6.245409e-02	0.0	1.704004e-01	-6.641666e-02	0.0	6.148882e-01	-5.841247e-02	0.0	8.808771e-01	-2.547109e-02	0.0	2.255241e-02	-3.117197e-02	0.0	9.956857e-01	-1.094549e-03	0.0	6.218849e-03	-1.949839e-02	0.0	1.326690e-02	7.246181e-02	0.0	9.189331e-01	-1.
[...]
POINT_DATA 5233

SCALARS Conservative_1 float 1
LOOKUP_TABLE default
1.463817e+87	3.287513e+86	6.885922e+84	2.587002e+87	3.054625e+87	1.516293e+87	7.248313e+86	3.063457e+86	4.913602e+85	2.589167e+85	1.295127e+85	7.590055e+84	4.680123e+84	3.203467e+84	1.964910e+84	1.483108e+84	9.716492e+83	8.014200e+83	5.836278e+83	4.783698e+83	3.867299e+83	3.200206e+83	2.636819e+83	2.327765e+83	1.844259e+83	1.759262e+83	1.312486e+83	1.398997e+83	9.482912e+82	1.072832e+83	6.249950e+82	2.028640e+82	1.006007e+83	2.890320e+82	6.794636e+82	3.155653e+82	4.181797e+82	3.375177e+82	3.026886e+82	2.016906e+82	2.444725e+82	1.839902e+82	1.598224e+82	1.461781e+82	1.496807e+82	1.221265e+82	1.179720e+82	4.141496e+81	6.619745e+81	3.419227e+81	8.881979e+81	6.851364e+81	7.027607e+81	5.662697e+81	3.133685e+81	2.634237e+81	1.720683e+81	1.412452e+81	2.604138e+81	2.422938e+81	2.109084e+81	2.099511e+81	1.780586e+81	1.524187e+81	1.190256e+81	7.559736e+80	5.730609e+80	4.514037e+80	3.412428e+80	1.066272e+80	3.209583e+80	1.277991e+80	5.885932e+79	4.317593e+79	3.130357e+79	1.101227e+79	8.882048e+78	9.225764e+78	7.206542e+78	2.518728e+78	2.516232e+78	1.735897e+78	4.861431e+77	8.285885e+76	7.175124e+76	1.074206e+77	1.767243e+77	6.433193e+76	1.863396e+76	3.909646e+76	8.518775e+75	6.611328e+75	8.558153e+75	1.491220e+76	1.241305e+76	7.133193e+75	6.072575e+75	3.420497e+75	3.100234e+75	1.178714e+75	1.412535e+74	7.784080e+72	9.967548e+72	2.612430e+72	2.814585e+73	5.487875e+73	2.155988e+73	2.385564e+74	1.686739e+75	3.960476e+75	5.075697e+75	1.954277e+76	1.001510e+77	6.550996e+76	4.162225e+76	3.829719e+78	7.174101e+77	1.458918e+79	3.675363e+79	8.700234e+79	2.024915e+80	3.295030e+80	5.782501e+80	8.838832e+80	1.633117e+81	2.109860e+81	2.163875e+81	2.301839e+81	4.621522e+81	7.650506e+81	9.638648e+81	1.342175e+82	1.582977e+82	1.914634e+82	2.084186e+82	2.756663e+82	1.824174e+82	4.261469e+82	1.330934e+82	3.781686e+82	1.849170e+82	2.990351e+82	1.722507e+82	2.744616e+82	1.814184e+82	2.057900e+82	2.136085e+82	2.220013e+82	1.587404e+82	1.949800e+82	1.759259e+82	2.507308e+82	9.270564e+81	2.976280e+82	1.127165e+82	4.109425e+82	3.053035e+82	8.781807e+82	1.599231e+83	2.958672e+83	4.083140e+83	6.211642e+83	1.240919e+84	2.032210e+84	3.331098e+84	5.129855e+84	7.865523e+84	1.173709e+85	1.725596e+85	2.461421e+85	3.459824e+85	4.848571e+85	6.969696e+85	1.086947e+86	1.710184e+86	2.830183e+86	4.337212e+86	4.633132e+86	4.109886e+86	2.612125e+86	1.276105e+86	9.276269e+85	6.264780e+85	3.952886e+85	3.592666e+85	2.485747e+85	5.431335e+85	4.740843e+85	4.070380e+84	1.352913e+85	5.742956e+84	2.035378e+85	2.705762e+86	1.389950e+86	2.026150e+85	5.612503e+84	4.970886e+84	1.213474e+86	1.818095e+86	4.727305e+86	3.702197e+77	1.363638e+77	5.595366e+76	5.188859e+76	8.506615e+76	3.619255e+77	3.192689e+78	2.536270e+79	6.097126e+79	2.050978e+80	3.701512e+80	8.501137e+80	6.197839e+81	1.373183e+83	4.808017e+83	7.518851e+83	3.921034e+83	1.139408e+83	4.021657e+82	4.385782e+82	6.276623e+82	4.577496e+82	2.646049e+82	4.713000e+81	5.863338e+81	3.311685e+82	9.689917e+82	1.405404e+83	8.209520e+82	7.684690e+81	1.139842e+82	4.323557e+80	4.025437e+80	2.615431e+80	3.113218e+80	1.969098e+80	2.990901e+80	4.474035e+80	1.229222e+81	2.368085e+81	2.383199e+81	1.513594e+81	6.649957e+80	2.845568e+80	1.331642e+80	6.382098e+79	2.688695e+79	1.501312e+79	5.948488e+78	1.819835e+78	3.159327e+78	3.507101e+82	2.021231e+82	2.440184e+84	7.984586e+81	1.117707e+87	1.161486e+85	6.381954e+82	4.386088e+82	5.391149e+73	6.611613e+82	1.077590e+83	5.863701e+86	4.235102e+86	2.032721e+83	5.804749e+82	4.721888e+74	1.364044e+86	4.451798e+85	1.444923e+76	3.409639e+82	1.675172e+83	1.299485e+83	2.929283e+82	2.303043e+83	2.285735e+82	3.245067e+83	6.373842e+74	4.825896e+83	5.460752e+77	7.790015e+83	1.511240e+76	2.577579e+84	1.356574e+84	3.517172e+76	9.248086e+81	2.699929e+83	5.257024e+84	2.920399e+85	1.255487e+85	2.254519e+80	6.111804e+83	1.112011e+83	8.877769e+83	2.738255e+82	1.110867e+82	1.713472e+82	1.372312e+82	1.650897e+82	1.557490e+82	5.606481e+79	2.545144e+77	8.469197e+81	2.094961e+78	9.733825e+81	4.322779e+81	5.599564e+81	5.493968e+77	2.903301e+81	1.819969e+84	1.184373e+80	8.290899e+80	1.917676e+78	2.545642e+78	1.818914e+82	4.051403e+80	2.760443e+82	3.952153e+83	1.222291e+77	1.393776e+87	9.022643e+76	5.039341e+75	1.004407e+84	3.659520e+84	2.051171e+85	5.544359e+73	1.952360e+83	1.512927e+81	1.779909e+82	8.906182e+82	1.053066e+83	3.851977e+79	1.000650e+81	2.119450e+82	3.948556e+82	2.523893e+78	5.277383e+76	1.946480e+76	6.713905e+81	5.767152e+80	5.867261e+87	1.208744e+81	5.762231e+78	3.407124e+81	1.886561e+81	1.266302e+82	6.919246e+82	1.154001e+74	1.227310e+76	6.842856e+82	2.163334e+75	4.979889e+76	6.317845e+78	4.389759e+77	1.647851e+81	2.316378e+82	8.662892e+84	3.658833e+82	2.658548e+82	3.715670e+85	7.170154e+85	1.357802e+86	2.639637e+82	2.459541e+82	2.600263e+82	1.344338e+86	1.149048e+86	1.181628e+80	3.781649e+85	2.602309e+86	1.741237e+86	5.670856e+80	1.662407e+79	2.376486e+82	2.261806e+82	1.072695e+82	2.388052e+82	2.012855e+82	1.473363e+82	4.700121e+81	2.413271e+81	4.647416e+83	1.484569e+82	1.839487e+82	1.191693e+84	1.022899e+83	9.584658e+84	4.802935e+84	3.224595e+85	1.838327e+85	1.060366e+86	5.476281e+85	7.948740e+85	1.689388e+86	2.197301e+86	1.102743e+86	3.800194e+85	1.439760e+86	1.481737e+86	4.329709e+85	7.408980e+85	1.342930e+85	2.413674e+85	3.152576e+84	6.735696e+84	7.076758e+83	1.323573e+84	5.316561e+82	2.836651e+83	1.674668e+82	2.007250e+82	6.740979e+81	1.342189e+82	2.444733e+78	3.435845e+81	1.043460e+75	1.601684e+77	6.528830e+80	1.902942e+74	7.840565e+84	1.466551e+83	5.300671e+81	1.682221e+82	7.346873e+73	1.751476e+76	2.934523e+74	2.730668e+80	6.718409e+78	2.291547e+82	1.002445e+81	7.006367e+85	4.616527e+85	2.076224e+82	1.055987e+87	1.137424e+86	1.657593e+82	1.202960e+82	1.508373e+86	8.470571e+85	2.023349e+85	4.286368e+85	2.971387e+82	1.311911e+78	2.966263e+85	3.857301e+82	1.223440e+76	1.147865e+76	2.331048e+78	8.370778e+79	2.270738e+81	1.948024e+80	1.309782e+74	2.622043e+74	3.210166e+81	5.650980e+82	9.164479e+83	3.245823e+77	3.452094e+83	6.076442e+82	9.716071e+82	7.438569e+85	4.290718e+81	2.650223e+83	1.917216e+83	8.607670e+79	9.704714e+76	1.320721e+81	4.380033e+77	4.614139e+84	6.156248e+80	7.012599e+82	4.228427e+82	1.804388e+82	3.479459e+79	1.109472e+82	5.691355e+83	1.188813e+83	3.192111e+75	4.594927e+76	2.120464e+84	5.115744e+85	3.219017e+81	2.441606e+84	8.424707e+81	5.739761e+85	2.013583e+87	1.608790e+82	7.857800e+82	7.153890e+86	6.631147e+85	9.627636e+85	1.216333e+87	3.253888e+86	1.705742e+82	2.356665e+82	1.774801e+82	2.335107e+81	4.994530e+82	1.349506e+81	6.182599e+75	6.551346e+81	8.872379e+78	2.469462e+86	1.189402e+86	9.085956e+85	9.290223e+80	4.755107e+84	1.532579e+85	1.465905e+85	2.437692e+75	1.607862e+73	1.596396e+77	4.014885e+75	1.338695e+75	9.057955e+77	5.646970e+87	2.851089e+79	6.773178e+87	5.187486e+86	2.930580e+82	1.973271e+82	1.415421e+85	3.778464e+83	4.108060e+83	1.834206e+86	7.050732e+75	1.504750e+82	1.930907e+82	2.229581e+83	1.856912e+82	3.140634e+83	4.659712e+83	3.463108e+79	7.127712e+83	1.159069e+84	2.687232e+84	4.300209e+78	3.450601e+84	6.560607e+84	1.204940e+85	2.784027e+80	7.931397e+82	1.102092e+83	2.090093e+87	2.270824e+82	2.001219e+82	2.392830e+82	2.180458e+78	1.159818e+82	1.441293e+82	6.151696e+81	1.527826e+79	1.540411e+84	2.000942e+84	3.694149e+80	8.414127e+79	2.373835e+82	3.330729e+82	9.043921e+84	1.102329e+85	6.974904e+82	8.760140e+82	1.308266e+80	2.035484e+80	2.617987e+82	2.484827e+82	1.066853e+79	5.146912e+79	3.560921e+77	7.227104e+81	8.037409e+81	1.128086e+81	1.161614e+81	1.684411e+81	1.925439e+81	4.557338e+81	4.314152e+81	2.255677e+81	3.028061e+74	3.962999e+76	8.686893e+78	4.767547e+86	9.231517e+82	7.558709e+82	4.362188e+82	3.579008e+82	5.843082e+85	2.692202e+87	1.890872e+86	3.958179e+82	2.805743e+82	2.685347e+82	1.759198e+86	4.342525e+86	4.534047e+79	1.555958e+79	1.777642e+82	1.694482e+82	7.286461e+81	5.707162e+81	4.571172e+81	2.296033e+85	8.508304e+84	6.409864e+84	1.951684e+85	4.208442e+85	1.234736e+86	7.131483e+85	6.053028e+85	3.604396e+85	3.239266e+85	1.400737e+85	1.059548e+85	4.953329e+84	3.586531e+84	1.687975e+84	1.282295e+84	1.991946e+83	1.913342e+83	8.900354e+83	6.427234e+83	1.615412e+82	1.484067e+82	1.237516e+82	1.008368e+82	1.365943e+76	4.868840e+77	3.871815e+77	1.377410e+83	1.597634e+83	1.996300e+82	2.274891e+82	8.551395e+74	1.042034e+77	1.461712e+81	5.947446e+80	1.833553e+82	2.232048e+82	1.816479e+82	2.479240e+82	3.236688e+86	2.347512e+86	3.616260e+82	4.173330e+82	7.842698e+78	3.759535e+77	2.702325e+81	4.685810e+76	1.925736e+82	2.326147e+81	1.075229e+83	2.648673e+82	9.485501e+83	7.775221e+85	7.747033e+86	4.038878e+86	1.007377e+75	4.939737e+84	1.347171e+85	2.766602e+84	7.082230e+87	5.309493e+87	4.315763e+78	3.136794e+74	2.780932e+80	1.175523e+84	1.856672e+85	6.786888e+83	6.792979e+87	9.599190e+77	6.457668e+82	3.514690e+77	6.752034e+82	2.469153e+78	3.341116e+83	1.095163e+78	5.297361e+81	2.873333e+83	6.206646e+82	1.554707e+86	1.493053e+78	1.777330e+87	3.594187e+83	1.002701e+86	2.538499e+84	1.454974e+85	1.740366e+83	1.607561e+82	2.624233e+82	1.519132e+82	8.485835e+80	1.327881e+85	1.070522e+77	1.085788e+74	8.982378e+76	2.646588e+74	3.121684e+84	2.535000e+80	1.883940e+75	1.142611e+81	1.658198e+82	7.015248e+78	9.520281e+75	2.986652e+85	2.225626e+85	3.125129e+84	2.288644e+87	6.533674e+85	3.269311e+85	2.462326e+85	2.387215e+82	1.467973e+82	1.362828e+82	4.477944e+81	5.058972e+82	4.914376e+82	1.319119e+81	2.335062e+76	1.187038e+82	2.244831e+87	1.559794e+85	2.936727e+75	2.082647e+73	5.630062e+77	1.225241e+76	1.371616e+79	2.025385e+85	1.554246e+87	3.817558e+84	4.412814e+84	8.599367e+83	2.404226e+82	3.379636e+82	2.080403e+83	2.424788e+83	3.983935e+83	4.969398e+83	1.391534e+80	1.746854e+80	6.094076e+83	7.531070e+83	2.070923e+84	2.376766e+84	3.307167e+84	9.503468e+82	9.516435e+82	1.131426e+87	3.142332e+82	1.525780e+82	1.493721e+82	1.564039e+82	2.296965e+79	1.472077e+84	1.786010e+84	5.092700e+80	8.110454e+80	2.161971e+82	2.998769e+82	4.303387e+84	4.738177e+84	7.200402e+82	8.925854e+82	3.290299e+80	2.592429e+80	3.707742e+80	3.830234e+82	3.786354e+82	6.164791e+78	6.334094e+79	2.999129e+79	3.906804e+81	8.786767e+81	6.630244e+81	1.525068e+81	1.646662e+81	1.454029e+81	1.018330e+81	1.215310e+81	6.032612e+81	8.126692e+81	1.323150e+81	5.326925e+79	1.131590e+83	6.875299e+82	3.079556e+86	6.903838e+82	5.428487e+82	5.331747e+82	3.778609e+82	1.222480e+86	3.715650e+80	1.354528e+80	1.577204e+82	1.512949e+82	8.711044e+81	6.789291e+81	5.902068e+81	7.075548e+84	6.967091e+85	4.989797e+85	2.255112e+85	2.891912e+85	3.567156e+85	2.708177e+85	2.843145e+85	2.704434e+85	1.901457e+85	1.260193e+85	1.034083e+85	5.406936e+84	4.360816e+84	3.028848e+84	1.975659e+84	5.626040e+83	3.520713e+83	1.558829e+84	1.336256e+84	1.092468e+84	1.556847e+82	1.531815e+82	1.787358e+82	1.681880e+82	1.728994e+82	1.276776e+79	4.489117e+78	1.259361e+83	1.431983e+83	1.690691e+83	2.873829e+82	1.825495e+82	1.350830e+78	3.603945e+77	3.257494e+81	2.493555e+81	1.652356e+81	1.765999e+82	2.636697e+82	2.844320e+82	2.160657e+82	1.501611e+86	1.247034e+86	9.788116e+85	3.481137e+82	3.508432e+82	4.920040e+82	1.694819e+81	2.542856e+81	3.767727e+76	2.172159e+78	9.555768e+84	4.351352e+86	2.854022e+82	8.116999e+74	6.815516e+87	8.894844e+83	1.042486e+84	2.061745e+79	5.970647e+84	2.048130e+83	7.942688e+76	2.324326e+77	1.600120e+78	1.809352e+86	1.442760e+85	1.192001e+75	2.706783e+84	2.402101e+75	6.646113e+84	5.503239e+87	1.043197e+83	5.030551e+80	2.015354e+79	8.199821e+81	3.642507e+77	3.444546e+82	3.266536e+81	2.304765e+86	1.254202e+84	1.207778e+86	8.525108e+85	2.455318e+85	7.648755e+81	1.948607e+82	7.553015e+83	5.461227e+80	3.128743e+83	9.932904e+84	1.707647e+86	2.284710e+86	1.822362e+84	1.094309e+79	6.109913e+82	7.079755e+77	7.021881e+82	7.834625e+82	6.031961e+78	2.159934e+85	4.106060e+78	1.836940e+85	3.004353e+83	2.635272e+82	4.747558e+74	1.427107e+77	3.457015e+84	9.870063e+84	3.609031e+82	2.449334e+82	2.294768e+82	5.381421e+82	5.727393e+82	4.307954e+86	4.578819e+76	9.007856e+75	2.305113e+77	2.121730e+76	2.342905e+79	1.820244e+84	6.267287e+83	1.442663e+84	2.209312e+83	2.533963e+83	3.720455e+83	4.529801e+83	2.026520e+78	9.188058e+77	5.130297e+83	6.274071e+83	7.510038e+83	1.251300e+84	1.605046e+84	8.589806e+82	8.862927e+82	8.715080e+84	1.321228e+82	3.153718e+82	1.542012e+82	8.053827e+81	1.171451e+84	1.211369e+84	2.086931e+78	1.963154e+78	3.442965e+82	1.983253e+84	1.530837e+84	8.016713e+82	9.308983e+82	1.387395e+78	2.382344e+78	1.859968e+78	3.633650e+82	3.987576e+82	3.151104e+79	7.983920e+77	9.870671e+79	1.107116e+80	7.094004e+81	9.227073e+81	1.141894e+82	1.395621e+82	5.925595e+80	1.093997e+81	1.140683e+81	1.228902e+81	9.068406e+80	3.825382e+81	5.250319e+81	1.075653e+81	1.670681e+83	3.845772e+86	2.478593e+86	1.037913e+83	1.044741e+83	9.295420e+82	7.738677e+82	6.737661e+82	4.200126e+80	1.781081e+80	1.612283e+82	1.951046e+82	7.092986e+81	6.664581e+81	6.461000e+81	5.167640e+81	2.874579e+85	2.062502e+85	1.249310e+85	7.877090e+84	6.664805e+84	1.347521e+85	1.460313e+85	1.901989e+85	2.640899e+85	2.654198e+85	1.865212e+85	1.429359e+85	1.211183e+85	8.756420e+84	6.366182e+84	5.312058e+84	4.008957e+84	7.862579e+83	9.101829e+83	2.225443e+84	1.894264e+84	1.660791e+84	1.385065e+84	1.643897e+82	1.722290e+82	1.299748e+82	1.249998e+82	1.067747e+82	8.685624e+81	3.987609e+79	1.160423e+79	1.193455e+83	1.538448e+83	1.876948e+83	2.044923e+82	2.320319e+82	2.916304e+82	2.765938e+78	9.041744e+77	5.139258e+77	3.750824e+81	2.831519e+81	1.619008e+81	9.385932e+80	5.419949e+82	4.636004e+82	4.629558e+82	3.903638e+82	4.679987e+85	6.177548e+85	5.016608e+85	3.547926e+82	4.028109e+82	2.625336e+82	3.966264e+82	9.256189e+80	1.490774e+81	4.630715e+81	5.124732e+78	6.992008e+84	7.940254e+83	2.533346e+85	5.073876e+78	8.071379e+82	3.582854e+78	5.250711e+78	7.953079e+85	3.222817e+78	1.442139e+79	1.457735e+81	1.863285e+82	1.647524e+77	2.399553e+75	5.078231e+74	1.271352e+75	2.389242e+75	6.042379e+74	1.382174e+78	4.569445e+82	4.141132e+82	9.669922e+83	1.180000e+84	7.085383e+83	1.257771e+83	1.061783e+82	1.482246e+85	1.764275e+85	3.196438e+85	1.310499e+84	4.069212e+83	4.477013e+84	2.158534e+85	2.264158e+83	5.424380e+82	4.557079e+82	2.742899e+85	1.298925e+80	1.106931e+85	5.551962e+85	8.584128e+74	2.012305e+85	4.408824e+86	7.552103e+83	2.115929e+79	5.086458e+77	6.011144e+77	4.197886e+78	4.044824e+85	1.701610e+75	1.186853e+85	2.083938e+87	8.692156e+78	1.154360e+82	2.562818e+82	4.358300e+85	1.646490e+84	4.200010e+85	4.260304e+83	7.255728e+82	1.151536e+75	3.224091e+82	2.976875e+82	1.471157e+82	4.977887e+82	3.860449e+76	1.566582e+76	1.021882e+77	1.509654e+79	2.575030e+83	2.778437e+83	3.623320e+83	4.331695e+83	1.149263e+80	1.124490e+80	5.018903e+83	5.450498e+83	6.409807e+83	7.247503e+83	8.175762e+83	8.363556e+83	8.290636e+82	2.044078e+85	1.761229e+82	2.579085e+82	1.254363e+82	1.541805e+82	6.717366e+83	5.715491e+83	4.226527e+78	1.558159e+79	5.326485e+83	5.014290e+83	8.306465e+82	2.597654e+78	2.958007e+78	4.320120e+78	3.630378e+82	5.306047e+79	7.727605e+79	9.700219e+79	9.810457e+79	2.174130e+82	1.552342e+82	1.595083e+82	2.550523e+82	3.529936e+81	1.008305e+81	2.904266e+81	3.497589e+81	3.150910e+81	3.912839e+81	1.067395e+86	5.654489e+85	6.480361e+85	1.744135e+83	1.163436e+83	1.056733e+83	9.875741e+82	9.161047e+82	6.597473e+80	2.680287e+80	3.131483e+82	1.739378e+82	1.649997e+82	1.363003e+82	1.098897e+82	1.312169e+85	1.198134e+85	9.028208e+84	7.748872e+84	5.744235e+84	7.465015e+84	5.800943e+84	1.159107e+85	1.335725e+85	2.270168e+85	1.447810e+85	1.004356e+85	6.796596e+84	2.901269e+84	1.952413e+84	1.582896e+82	2.201921e+82	1.471208e+82	9.675504e+81	1.608383e+82	1.674851e+82	2.040130e+82	1.151387e+80	8.220595e+79	1.629761e+83	1.727460e+83	2.297058e+83	3.351041e+82	4.468260e+82	2.864598e+79	6.913054e+78	8.170650e+77	8.812426e+81	8.221502e+81	5.470857e+81	2.739763e+81	1.214056e+81	8.613443e+82	7.250202e+82	6.500796e+82	5.287970e+82	2.102866e+85	2.071656e+85	6.230786e+82	6.889395e+82	7.269818e+81	9.253031e+81	1.513727e+82	2.231963e+82	6.785072e+87	1.630119e+85	8.112081e+78	6.191990e+74	2.308276e+87	2.590494e+83	1.812094e+85	1.896780e+75	1.786688e+85	8.782479e+84	1.219052e+83	1.450093e+77	1.594532e+79	1.099431e+79	6.067109e+82	6.129453e+83	3.958650e+77	5.932654e+75	1.833142e+79	4.733679e+83	6.585653e+82	2.796624e+85	9.660445e+82	3.539104e+83	5.019870e+83	7.163232e+82	7.735212e+79	2.723591e+81	1.216936e+78	2.139700e+82	7.036069e+79	1.838426e+80	1.618972e+82	2.035135e+85	8.945852e+84	7.817443e+74	1.256285e+78	4.014954e+83	9.523588e+84	1.584431e+85	2.624679e+75	4.241882e+77	2.123771e+83	8.230198e+82	3.397271e+83	1.843992e+83	1.810666e+85	2.493274e+87	3.262674e+84	7.556040e+75	9.125287e+85	1.174045e+79	1.729610e+78	3.611225e+78	1.739827e+84	2.533290e+79	1.393055e+85	9.680047e+84	1.398866e+84	2.739615e+82	3.570665e+82	7.343794e+82	7.721203e+76	1.977747e+76	2.723521e+79	3.442937e+83	4.052707e+83	8.276359e+79	5.018282e+83	5.327357e+83	3.656169e+83	2.553317e+83	3.255069e+82	2.671401e+83	4.398348e+83	2.066439e+79	1.835690e+83	9.417392e+82	1.557747e+83	1.325417e+80	7.914708e+78	7.129726e+82	2.287149e+79	3.946165e+79	7.214795e+79	8.788058e+79	3.396052e+82	3.266845e+82	1.284559e+82	9.442718e+79	6.357463e+79	1.552603e+85	1.825280e+85	1.308752e+83	1.040214e+83	1.085660e+81	9.603250e+82	1.107117e+82	8.260456e+84	7.047449e+84	3.851844e+84	4.596420e+84	3.729887e+84	7.882541e+84	1.039525e+85	1.081560e+85	9.140241e+84	7.526645e+84	1.488949e+84	3.152121e+84	2.516094e+84	2.350281e+84	5.966265e+82	5.516001e+82	1.524939e+82	1.620235e+82	1.074384e+82	5.930540e+80	2.950068e+80	1.910485e+83	2.457172e+83	2.908123e+83	4.454276e+82	4.839856e+82	1.124576e+80	3.203214e+79	1.168336e+79	3.819509e+78	7.651029e+81	6.872663e+81	7.477220e+81	6.920099e+81	4.322223e+81	1.881749e+81	9.969877e+82	6.377747e+82	1.124423e+85	1.134310e+85	6.370862e+82	5.056217e+82	6.062106e+82	3.661032e+82	2.135012e+81	2.148372e+85	1.551943e+89	1.224353e+88	1.040544e+85	3.401482e+79	1.220846e+85	5.772206e+83	4.120385e+82	8.695611e+78	1.188870e+79	1.950784e+86	1.060080e+85	1.026787e+77	1.180718e+75	6.375728e+77	1.386384e+85	7.704590e+82	7.522710e+82	7.387203e+84	3.811286e+83	9.462833e+78	3.701729e+81	3.345928e+77	1.037283e+79	4.805601e+82	1.177443e+83	4.539929e+82	7.982987e+82	1.503847e+83	9.088485e+82	1.659007e+79	3.139476e+79	3.889446e+85	5.703087e+84	9.607148e+84	8.852648e+84	5.016968e+82	2.447370e+84	6.564633e+82	3.284788e+80	8.618752e+84	1.082938e+85	2.292831e+75	2.499862e+83	9.207260e+84	2.587917e+87	7.777126e+82	3.641065e+75	9.852816e+78	7.290630e+82	1.898158e+78	4.977566e+80	2.974613e+80	1.262416e+85	1.192091e+75	2.177314e+83	5.607648e+82	7.814805e+82	3.492645e+76	1.245143e+86	3.812362e+79	4.472964e+78	8.962069e+78	9.028155e+83	9.991150e+78	9.329816e+84	1.639062e+84	3.944701e+82	2.835711e+84	4.090572e+76	1.161658e+76	3.714316e+83	3.912735e+83	2.954029e+83	2.144812e+83	1.833944e+83	4.814948e+82	2.378905e+83	1.719081e+83	4.331723e+82	2.518969e+83	2.986177e+83	1.699617e+83	1.207560e+81	7.041993e+80	2.064781e+81	2.958324e+79	2.561299e+83	2.962793e+82	4.254159e+81	1.182680e+82	6.050988e+82	1.039170e+85	2.183755e+83	1.409942e+83	8.950325e+81	4.399383e+84	3.595581e+84	6.554143e+84	5.900152e+84	5.651539e+84	5.819388e+84	6.251804e+84	6.446888e+84	5.392446e+84	4.065045e+84	2.857419e+84	3.988939e+84	3.488055e+84	1.795822e+83	1.555839e+83	1.336308e+83	1.167901e+83	8.206611e+81	6.407040e+81	1.199490e+81	6.402333e+80	2.047606e+83	3.306704e+83	4.093829e+82	4.917729e+82	2.363777e+80	8.169594e+79	1.969769e+79	5.075705e+78	8.197312e+77	1.483092e+82	1.145691e+82	6.376941e+81	7.080458e+81	6.914906e+81	1.126611e+83	9.149366e+82	7.817795e+82	3.773209e+84	7.790886e+84	8.225195e+82	5.954623e+82	4.413203e+82	1.006735e+83	1.546441e+83	1.004233e+83	7.071554e+84	6.582720e+87	2.015872e+86	7.952111e+84	1.460465e+76	2.252049e+85	1.175740e+77	1.168806e+83	1.006154e+87	1.337159e+83	3.001172e+82	1.321089e+83	1.307363e+85	8.715534e+84	3.778874e+82	8.240352e+84	5.900561e+82	2.342374e+79	1.857432e+85	2.250532e+78	7.873597e+81	3.843279e+79	1.888716e+83	1.754698e+83	1.073637e+85	6.625986e+85	6.356525e+85	3.884706e+86	9.122167e+78	3.626850e+83	5.