# vtk DataFile Version 3.0
vtk output
ASCII
DATASET UNSTRUCTURED_GRID
POINTS 200 float
9.997500e-01	-3.632897e-05	0.0	9.990000e-01	-1.452538e-04	0.0	9.977600e-01	-3.251112e-04	0.0	9.960200e-01	-5.769984e-04	0.0	9.937800e-01	-9.004365e-04	0.0	9.910500e-01	-1.293364e-03	0.0	9.878400e-01	-1.753610e-03	0.0	9.841300e-01	-2.283177e-03	0.0	9.799500e-01	-2.876826e-03	0.0	9.752800e-01	-3.536324e-03	0.0	9.701500e-01	-4.256269e-03	0.0	9.645400e-01	-5.038225e-03	0.0	9.584700e-01	-5.878077e-03	0.0	9.519400e-01	-6.774429e-03	0.0	9.449600e-01	-7.724467e-03	0.0	9.375400e-01	-8.725349e-03	0.0	9.296900e-01	-9.774221e-03	0.0	9.214000e-01	-1.087086e-02	0.0	9.127000e-01	-1.200973e-02	0.0	9.035800e-01	-1.319056e-02	0.0	8.940600e-01	-1.440916e-02	0.0	8.841500e-01	-1.566269e-02	0.0	8.738500e-01	-1.694956e-02	0.0	8.631800e-01	-1.826569e-02	0.0	8.521600e-01	-1.960709e-02	0.0	8.407700e-01	-2.097463e-02	0.0	8.290500e-01	-2.236196e-02	0.0	8.170100e-01	-2.376642e-02	0.0	8.046400e-01	-2.518764e-02	0.0	7.919700e-01	-2.662063e-02	0.0	7.790100e-01	-2.806277e-02	0.0	7.657800e-01	-2.951034e-02	0.0	7.522800e-01	-3.096181e-02	0.0	7.385200e-01	-3.241453e-02	0.0	7.245300e-01	-3.386377e-02	0.0	7.103200e-01	-3.530689e-02	0.0	6.958900e-01	-3.674225e-02	0.0	6.812700e-01	-3.816515e-02	0.0	6.664700e-01	-3.957289e-02	0.0	6.515000e-01	-4.096270e-02	0.0	6.363800e-01	-4.233084e-02	0.0	6.211300e-01	-4.367359e-02	0.0	6.057600e-01	-4.498807e-02	0.0	5.902800e-01	-4.627133e-02	0.0	5.747100e-01	-4.751951e-02	0.0	5.590600e-01	-4.872956e-02	0.0	5.433600e-01	-4.989684e-02	0.0	5.276100e-01	-5.101898e-02	0.0	5.118400e-01	-5.209138e-02	0.0	4.960500e-01	-5.311154e-02	0.0	4.802700e-01	-5.407492e-02	0.0	4.645100e-01	-5.497836e-02	0.0	4.487800e-01	-5.581860e-02	0.0	4.331100e-01	-5.659142e-02	0.0	4.175000e-01	-5.729417e-02	0.0	4.019700e-01	-5.792324e-02	0.0	3.865400e-01	-5.847521e-02	0.0	3.712300e-01	-5.894684e-02	0.0	3.560400e-01	-5.933562e-02	0.0	3.409900e-01	-5.963848e-02	0.0	3.261100e-01	-5.985254e-02	0.0	3.114000e-01	-5.997565e-02	0.0	2.968700e-01	-6.000550e-02	0.0	2.825500e-01	-5.994005e-02	0.0	2.684500e-01	-5.977766e-02	0.0	2.545700e-01	-5.951658e-02	0.0	2.409400e-01	-5.915586e-02	0.0	2.275700e-01	-5.869457e-02	0.0	2.144700e-01	-5.813197e-02	0.0	2.016600e-01	-5.746811e-02	0.0	1.891400e-01	-5.670228e-02	0.0	1.769300e-01	-5.583514e-02	0.0	1.650400e-01	-5.486709e-02	0.0	1.534900e-01	-5.379978e-02	0.0	1.422900e-01	-5.263443e-02	0.0	1.314400e-01	-5.137134e-02	0.0	1.209500e-01	-5.001187e-02	0.0	1.108500e-01	-4.856067e-02	0.0	1.011300e-01	-4.701715e-02	0.0	9.181000e-02	-4.538527e-02	0.0	8.290000e-02	-4.366791e-02	0.0	7.440000e-02	-4.186608e-02	0.0	6.633000e-02	-3.998514e-02	0.0	5.869000e-02	-3.802636e-02	0.0	5.149000e-02	-3.599338e-02	0.0	4.474000e-02	-3.389028e-02	0.0	3.844000e-02	-3.171811e-02	0.0	3.260000e-02	-2.948109e-02	0.0	2.723000e-02	-2.718420e-02	0.0	2.232000e-02	-2.482329e-02	0.0	1.790000e-02	-2.241365e-02	0.0	1.395000e-02	-1.994492e-02	0.0	1.049000e-02	-1.742916e-02	0.0	7.520000e-03	-1.486756e-02	0.0	5.040000e-03	-1.226032e-02	0.0	3.050000e-03	-9.605565e-03	0.0	1.560000e-03	-6.917518e-03	0.0	5.600000e-04	-4.173160e-03	0.0	6.000000e-05	-1.375330e-03	0.0	0.000000e+00	0.000000e+00	0.0	6.000000e-05	1.690937e-03	0.0	5.600000e-04	6.510108e-03	0.0	1.560000e-03	1.267190e-02	0.0	3.050000e-03	1.984714e-02	0.0	5.040000e-03	2.786280e-02	0.0	7.520000e-03	3.648497e-02	0.0	1.049000e-02	4.555051e-02	0.0	1.395000e-02	5.491251e-02	0.0	1.790000e-02	6.443882e-02	0.0	2.232000e-02	7.396988e-02	0.0	2.723000e-02	8.344859e-02	0.0	3.260000e-02	9.272944e-02	0.0	3.844000e-02	1.017571e-01	0.0	4.474000e-02	1.104510e-01	0.0	5.149000e-02	1.187444e-01	0.0	5.869000e-02	1.265929e-01	0.0	6.633000e-02	1.339488e-01	0.0	7.440000e-02	1.407749e-01	0.0	8.290000e-02	1.470498e-01	0.0	9.181000e-02	1.527443e-01	0.0	1.011300e-01	1.578504e-01	0.0	1.108500e-01	1.623589e-01	0.0	1.209500e-01	1.662628e-01	0.0	1.314400e-01	1.695715e-01	0.0	1.422900e-01	1.722846e-01	0.0	1.534900e-01	1.744141e-01	0.0	1.650400e-01	1.759760e-01	0.0	1.769300e-01	1.769870e-01	0.0	1.891400e-01	1.774666e-01	0.0	2.016600e-01	1.774387e-01	0.0	2.144700e-01	1.769303e-01	0.0	2.275700e-01	1.759709e-01	0.0	2.409400e-01	1.745937e-01	0.0	2.545700e-01	1.728349e-01	0.0	2.684500e-01	1.707334e-01	0.0	2.825500e-01	1.683353e-01	0.0	2.968700e-01	1.656854e-01	0.0	3.114000e-01	1.628330e-01	0.0	3.261100e-01	1.598346e-01	0.0	3.409900e-01	1.567456e-01	0.0	3.560400e-01	1.536210e-01	0.0	3.712300e-01	1.505231e-01	0.0	3.865400e-01	1.475114e-01	0.0	4.019700e-01	1.446396e-01	0.0	4.175000e-01	1.419614e-01	0.0	4.331100e-01	1.395244e-01	0.0	4.487800e-01	1.373670e-01	0.0	4.645100e-01	1.355143e-01	0.0	4.802700e-01	1.339819e-01	0.0	4.960500e-01	1.327671e-01	0.0	5.118400e-01	1.318501e-01	0.0	5.276100e-01	1.311931e-01	0.0	5.433600e-01	1.307376e-01	0.0	5.590600e-01	1.304073e-01	0.0	5.747100e-01	1.301074e-01	0.0	5.902800e-01	1.297288e-01	0.0	6.057600e-01	1.291512e-01	0.0	6.211300e-01	1.282479e-01	0.0	6.363800e-01	1.268910e-01	0.0	6.515000e-01	1.249564e-01	0.0	6.664700e-01	1.223312e-01	0.0	6.812700e-01	1.189186e-01	0.0	6.958900e-01	1.146387e-01	0.0	7.103200e-01	1.094320e-01	0.0	7.245300e-01	1.032696e-01	0.0	7.385200e-01	9.613312e-02	0.0	7.522800e-01	8.802806e-02	0.0	7.657800e-01	7.899438e-02	0.0	7.790100e-01	6.908494e-02	0.0	7.919700e-01	5.837108e-02	0.0	8.046400e-01	4.697559e-02	0.0	8.170100e-01	3.506162e-02	0.0	8.290500e-01	2.287403e-02	0.0	8.407700e-01	1.068950e-02	0.0	8.521600e-01	-1.120656e-03	0.0	8.631800e-01	-1.208929e-02	0.0	8.738500e-01	-2.177272e-02	0.0	8.841500e-01	-2.969444e-02	0.0	8.940600e-01	-3.545199e-02	0.0	9.035800e-01	-3.879180e-02	0.0	9.127000e-01	-3.964234e-02	0.0	9.214000e-01	-3.815758e-02	0.0	9.296900e-01	-3.470324e-02	0.0	9.375400e-01	-2.983163e-02	0.0	9.449600e-01	-2.418035e-02	0.0	9.519400e-01	-1.843831e-02	0.0	9.584700e-01	-1.335092e-02	0.0	9.645400e-01	-9.928586e-03	0.0	9.701500e-01	-9.988624e-03	0.0	9.752800e-01	-1.682299e-02	0.0	9.799500e-01	-3.464420e-02	0.0	9.841300e-01	-6.354284e-02	0.0	9.878400e-01	-9.164118e-02	0.0	9.910500e-01	-9.654350e-02	0.0	9.937800e-01	-6.957215e-02	0.0	9.960200e-01	-3.155340e-02	0.0	9.977600e-01	-7.886513e-03	0.0	9.990000e-01	-7.508014e-04	0.0	9.997500e-01	2.091346e-05	0.0	1.000000e+00	0.000000e+00	0.0	
CELLS 200	600
2	149	150	2	150	151	2	151	152	2	152	153	2	153	154	2	154	155	2	155	156	2	156	157	2	157	158	2	158	159	2	159	160	2	160	161	2	161	162	2	162	163	2	163	164	2	164	165	2	165	166	2	166	167	2	167	168	2	168	169	2	169	170	2	170	171	2	171	172	2	172	173	2	173	174	2	174	175	2	175	176	2	176	177	2	177	178	2	178	179	2	179	180	2	180	181	2	181	182	2	31	32	2	32	33	2	33	34	2	34	35	2	35	36	2	36	37	2	37	38	2	38	39	2	39	40	2	40	41	2	41	42	2	42	43	2	43	44	2	44	45	2	45	46	2	46	47	2	47	48	2	48	49	2	49	50	2	50	51	2	51	52	2	52	53	2	53	54	2	54	55	2	55	56	2	56	57	2	57	58	2	58	59	2	59	60	2	60	61	2	61	62	2	62	63	2	63	64	2	64	65	2	65	66	2	66	67	2	67	68	2	68	69	2	69	70	2	70	71	2	71	72	2	72	73	2	73	74	2	74	75	2	75	76	2	76	77	2	77	78	2	78	79	2	79	80	2	80	81	2	81	82	2	82	83	2	83	84	2	113	114	2	114	115	2	115	116	2	116	117	2	117	118	2	118	119	2	119	120	2	120	121	2	121	122	2	122	123	2	123	124	2	124	125	2	125	126	2	126	127	2	127	128	2	128	129	2	129	130	2	130	131	2	131	132	2	132	133	2	133	134	2	134	135	2	135	136	2	136	137	2	137	138	2	138	139	2	139	140	2	140	141	2	141	142	2	142	143	2	143	144	2	144	145	2	145	146	2	146	147	2	147	148	2	148	149	2	84	85	2	85	86	2	86	87	2	87	88	2	88	89	2	89	90	2	90	91	2	91	92	2	92	93	2	93	94	2	94	95	2	95	96	2	96	97	2	97	98	2	98	99	2	99	100	2	100	101	2	101	102	2	102	103	2	103	104	2	104	105	2	105	106	2	106	107	2	107	108	2	108	109	2	109	110	2	110	111	2	111	112	2	112	113	2	199	0	2	0	1	2	1	2	2	2	3	2	3	4	2	4	5	2	5	6	2	6	7	2	182	183	2	183	184	2	184	185	2	185	186	2	186	187	2	187	188	2	188	189	2	189	190	2	190	191	2	191	192	2	192	193	2	193	194	2	194	195	2	195	196	2	196	197	2	197	198	2	198	199	2	7	8	2	8	9	2	9	10	2	10	11	2	11	12	2	12	13	2	13	14	2	14	15	2	15	16	2	16	17	2	17	18	2	18	19	2	19	20	2	20	21	2	21	22	2	22	23	2	23	24	2	24	25	2	25	26	2	26	27	2	27	28	2	28	29	2	29	30	2	30	31	
CELL_TYPES 200
3	3	3	3	3	3	3	3	3	3	3	3	3	3	3	3	3	3	3	3	3	3	3	3	3	3	3	3	3	3	3	3	3	3	3	3	3	3	3	3	3	3	3	3	3	3	3	3	3	3	3	3	3	3	3	3	3	3	3	3	3	3	3	3	3	3	3	3	3	3	3	3	3	3	3	3	3	3	3	3	3	3	3	3	3	3	3	3	3	3	3	3	3	3	3	3	3	3	3	3	3	3	3	3	3	3	3	3	3	3	3	3	3	3	3	3	3	3	3	3	3	3	3	3	3	3	3	3	3	3	3	3	3	3	3	3	3	3	3	3	3	3	3	3	3	3	3	3	3	3	3	3	3	3	3	3	3	3	3	3	3	3	3	3	3	3	3	3	3	3	3	3	3	3	3	3	3	3	3	3	3	3	3	3	3	3	3	3	3	3	3	3	3	3	3	3	3	3	3	3	
POINT_DATA 200

SCALARS Conservative_1 float 1
LOOKUP_TABLE default
1.463817e+87	3.287513e+86	6.885922e+84	2.587002e+87	3.054625e+87	1.516293e+87	7.248313e+86	3.063457e+86	4.913602e+85	2.589167e+85	1.295127e+85	7.590055e+84	4.680123e+84	3.203467e+84	1.964910e+84	1.483108e+84	9.716492e+83	8.014200e+83	5.836278e+83	4.783698e+83	3.867299e+83	3.200206e+83	2.636819e+83	2.327765e+83	1.844259e+83	1.759262e+83	1.312486e+83	1.398997e+83	9.482912e+82	1.072832e+83	6.249950e+82	2.028640e+82	1.006007e+83	2.890320e+82	6.794636e+82	3.155653e+82	4.181797e+82	3.375177e+82	3.026886e+82	2.016906e+82	2.444725e+82	1.839902e+82	1.598224e+82	1.461781e+82	1.496807e+82	1.221265e+82	1.179720e+82	4.141496e+81	6.619745e+81	3.419227e+81	8.881979e+81	6.851364e+81	7.027607e+81	5.662697e+81	3.133685e+81	2.634237e+81	1.720683e+81	1.412452e+81	2.604138e+81	2.422938e+81	2.109084e+81	2.099511e+81	1.780586e+81	1.524187e+81	1.190256e+81	7.559736e+80	5.730609e+80	4.514037e+80	3.412428e+80	1.066272e+80	3.209583e+80	1.277991e+80	5.885932e+79	4.317593e+79	3.130357e+79	1.101227e+79	8.882048e+78	9.225764e+78	7.206542e+78	2.518728e+78	2.516232e+78	1.735897e+78	4.861431e+77	8.285885e+76	7.175124e+76	1.074206e+77	1.767243e+77	6.433193e+76	1.863396e+76	3.909646e+76	8.518775e+75	6.611328e+75	8.558153e+75	1.491220e+76	1.241305e+76	7.133193e+75	6.072575e+75	3.420497e+75	3.100234e+75	1.178714e+75	1.412535e+74	7.784080e+72	9.967548e+72	2.612430e+72	2.814585e+73	5.487875e+73	2.155988e+73	2.385564e+74	1.686739e+75	3.960476e+75	5.075697e+75	1.954277e+76	1.001510e+77	6.550996e+76	4.162225e+76	3.829719e+78	7.174101e+77	1.458918e+79	3.675363e+79	8.700234e+79	2.024915e+80	3.295030e+80	5.782501e+80	8.838832e+80	1.633117e+81	2.109860e+81	2.163875e+81	2.301839e+81	4.621522e+81	7.650506e+81	9.638648e+81	1.342175e+82	1.582977e+82	1.914634e+82	2.084186e+82	2.756663e+82	1.824174e+82	4.261469e+82	1.330934e+82	3.781686e+82	1.849170e+82	2.990351e+82	1.722507e+82	2.744616e+82	1.814184e+82	2.057900e+82	2.136085e+82	2.220013e+82	1.587404e+82	1.949800e+82	1.759259e+82	2.507308e+82	9.270564e+81	2.976280e+82	1.127165e+82	4.109425e+82	3.053035e+82	8.781807e+82	1.599231e+83	2.958672e+83	4.083140e+83	6.211642e+83	1.240919e+84	2.032210e+84	3.331098e+84	5.129855e+84	7.865523e+84	1.173709e+85	1.725596e+85	2.461421e+85	3.459824e+85	4.848571e+85	6.969696e+85	1.086947e+86	1.710184e+86	2.830183e+86	4.337212e+86	4.633132e+86	4.109886e+86	2.612125e+86	1.276105e+86	9.276269e+85	6.264780e+85	3.952886e+85	3.592666e+85	2.485747e+85	5.431335e+85	4.740843e+85	4.070380e+84	1.352913e+85	5.742956e+84	2.035378e+85	2.705762e+86	1.389950e+86	2.026150e+85	5.612503e+84	4.970886e+84	1.213474e+86	1.818095e+86	4.727305e+86	
SCALARS Conservative_2 float 1
LOOKUP_TABLE default
-5.859187e+90	-1.037274e+90	-2.532267e+88	-9.849066e+90	-8.920218e+90	-4.393645e+90	-1.870946e+90	-7.764582e+89	-1.158176e+89	-6.407005e+88	-3.562490e+88	-2.236716e+88	-1.485031e+88	-1.084214e+88	-7.072144e+87	-5.761000e+87	-3.898091e+87	-3.405623e+87	-2.546978e+87	-2.163261e+87	-1.794592e+87	-1.526004e+87	-1.278976e+87	-1.163936e+87	-9.250706e+86	-9.152824e+86	-6.754695e+86	-7.541662e+86	-4.932739e+86	-5.995108e+86	-3.312551e+86	-7.748603e+85	-6.022684e+86	-1.561257e+86	-4.085250e+86	-1.824308e+86	-2.513073e+86	-2.038569e+86	-1.849226e+86	-1.245812e+86	-1.520950e+86	-1.147703e+86	-1.004893e+86	-9.195176e+85	-9.400715e+85	-7.726243e+85	-7.444239e+85	-2.649081e+85	-4.206113e+85	-2.218470e+85	-5.751137e+85	-4.444386e+85	-4.574768e+85	-3.672286e+85	-2.030036e+85	-1.735095e+85	-1.116503e+85	-9.144632e+84	-1.707674e+85	-1.590282e+85	-1.390097e+85	-1.387272e+85	-1.177286e+85	-1.010343e+85	-7.901978e+84	-5.024293e+84	-3.823095e+84	-3.005676e+84	-2.331876e+84	-6.439493e+83	-2.238600e+84	-8.372678e+83	-4.051106e+83	-2.929703e+83	-2.106184e+83	-7.431619e+82	-5.992989e+82	-6.089641e+82	-4.300259e+82	-1.688024e+82	-1.632679e+82	-1.057452e+82	-3.245108e+81	-3.578260e+80	-3.074466e+80	-6.802107e+80	-9.901421e+80	-3.436666e+80	-1.027725e+80	-2.125325e+80	-4.320386e+79	-3.914113e+79	-3.367832e+79	-6.542147e+79	-6.988566e+79	-3.214033e+79	-2.768779e+79	-1.678412e+79	-1.421254e+79	-5.562755e+78	-7.068248e+77	-2.612269e+76	-3.044621e+76	-8.847455e+75	-6.497625e+76	-1.021454e+77	-3.144065e+76	-4.252681e+77	-3.227236e+78	-7.653115e+78	-8.218989e+78	-3.211792e+79	-1.751658e+80	-9.255759e+79	-5.538284e+79	-8.526496e+81	-1.034163e+81	-3.023769e+82	-6.886836e+82	-1.600288e+83	-3.709989e+83	-5.909973e+83	-1.014603e+84	-1.556080e+84	-2.881796e+84	-3.702950e+84	-3.690611e+84	-3.789596e+84	-7.700738e+84	-1.287868e+85	-1.629285e+85	-2.278249e+85	-2.611820e+85	-3.124673e+85	-3.331627e+85	-4.470359e+85	-2.625314e+85	-7.135065e+85	-1.648039e+85	-6.142614e+85	-2.655725e+85	-4.595300e+85	-2.376644e+85	-3.966467e+85	-2.402347e+85	-2.784384e+85	-2.982796e+85	-2.934337e+85	-1.966877e+85	-2.425840e+85	-2.175022e+85	-3.051726e+85	-9.409793e+84	-3.717448e+85	-1.079086e+85	-4.995535e+85	-3.461398e+85	-1.042399e+86	-1.816840e+86	-3.344648e+86	-4.444629e+86	-6.793804e+86	-1.275299e+87	-2.022076e+87	-3.173696e+87	-4.667471e+87	-6.836122e+87	-9.648327e+87	-1.327497e+88	-1.762041e+88	-2.319549e+88	-3.036289e+88	-4.066303e+88	-5.894597e+88	-8.669584e+88	-1.283384e+89	-1.951811e+89	-2.642813e+89	-2.866085e+89	-2.272928e+89	-1.103232e+89	-8.511156e+88	-5.791752e+88	-3.420510e+88	-3.197669e+88	-1.902166e+88	-4.859701e+88	-4.060309e+88	-2.581027e+87	-1.320220e+88	-5.038095e+87	-2.206183e+88	-3.185028e+89	-1.536374e+89	-2.327019e+88	-7.210463e+87	-1.420010e+88	-4.227955e+89	-5.598646e+89	-1.578073e+90	
SCALARS Conservative_3 float 1
LOOKUP_TABLE default
7.349657e+90	1.456560e+90	2.988988e+88	1.134287e+91	1.018748e+91	4.250446e+90	1.371991e+90	1.153587e+89	-4.227300e+88	-2.238591e+88	-1.041203e+88	-5.888529e+87	-3.592515e+87	-2.567574e+87	-1.442475e+87	-1.278215e+87	-6.724682e+86	-6.680921e+86	-4.051017e+86	-3.557458e+86	-2.766122e+86	-2.226329e+86	-1.822732e+86	-1.685346e+86	-1.198831e+86	-1.325331e+86	-7.937161e+85	-1.106470e+86	-5.424229e+85	-8.858068e+85	-2.767312e+85	2.214266e+85	-1.051672e+86	-1.331707e+85	-6.319002e+85	-2.188135e+85	-3.921581e+85	-3.279170e+85	-2.780213e+85	-3.003574e+85	-1.800751e+85	-2.489430e+85	-8.981871e+84	-1.787472e+85	-1.396686e+85	-2.022073e+85	-1.555746e+85	-2.112080e+84	-1.180969e+85	-1.567483e+84	-1.434278e+85	-1.175715e+85	-9.684228e+84	-7.260641e+84	-5.075147e+84	-3.219558e+84	-1.500175e+84	-1.176754e+84	-2.525891e+84	-2.142502e+84	-1.670125e+84	-1.716613e+84	-1.369605e+84	-1.283222e+84	-9.756307e+83	-5.660272e+83	-4.306835e+83	-3.594175e+83	-2.754455e+83	-4.973021e+82	-3.339611e+83	-1.061420e+83	-6.489943e+82	-4.752047e+82	-3.586236e+82	-1.252445e+82	-1.147953e+82	-1.302253e+82	-1.121110e+82	-5.285820e+81	-5.897799e+81	-2.861342e+81	-1.759470e+81	-2.800526e+79	-2.701452e+79	-1.663925e+80	-1.960426e+80	-6.910263e+79	-6.486583e+78	-4.134608e+79	7.880474e+78	8.842689e+78	-3.398370e+78	-6.466362e+78	-6.083939e+78	-3.893101e+78	-2.848188e+78	-1.742221e+78	-1.444637e+78	-5.778657e+77	-5.972591e+76	-6.325074e+75	-4.977083e+75	-2.532528e+75	-6.386769e+75	-1.386786e+76	-1.057381e+76	-5.597613e+76	-2.590896e+77	-5.662744e+77	-2.659256e+77	8.148130e+77	4.474882e+78	6.022606e+78	-4.456595e+77	-2.641758e+80	-1.140937e+80	-2.211965e+80	-2.901901e+81	-7.666660e+81	-9.474654e+81	-5.242527e+81	1.704956e+81	3.556227e+82	1.234253e+83	1.227336e+83	-7.907473e+82	-1.861423e+83	4.876889e+83	1.569751e+84	2.270027e+84	3.472793e+84	4.569932e+84	5.625047e+84	6.384570e+84	8.516748e+84	5.230594e+84	1.324311e+85	2.481277e+84	1.070461e+85	4.378410e+84	7.557899e+84	3.874097e+84	6.195703e+84	3.206085e+84	4.279413e+84	4.182703e+84	3.369195e+84	1.057611e+84	2.749254e+84	8.962555e+83	7.224405e+84	-2.566016e+84	1.137155e+85	-9.533742e+83	1.696268e+85	7.603314e+84	3.578497e+85	6.482888e+85	1.215780e+86	1.677367e+86	2.716445e+86	6.420995e+86	1.146366e+87	2.007715e+87	3.231664e+87	5.194348e+87	7.909745e+87	1.184724e+88	1.702407e+88	2.377714e+88	3.209526e+88	4.371086e+88	6.338877e+88	8.653185e+88	1.071475e+89	9.109262e+88	8.332914e+87	-5.822101e+88	-7.638988e+88	-4.412322e+88	-3.366468e+88	-2.296579e+88	-1.691326e+88	-1.573077e+88	-1.323521e+88	-1.564759e+88	-5.605592e+87	3.966095e+86	-3.122476e+87	-1.439833e+87	-6.643765e+87	-8.907874e+88	-4.172377e+88	-7.206811e+87	2.097453e+87	2.114128e+88	5.527457e+89	8.433609e+89	2.066373e+90	
SCALARS Conservative_4 float 1
LOOKUP_TABLE default
3.034725e+94	4.986606e+93	1.155194e+92	4.485964e+94	4.120705e+94	2.047472e+94	8.500143e+93	3.245819e+93	3.836369e+92	1.840108e+92	9.676518e+91	6.046991e+91	4.023720e+91	2.921309e+91	1.925038e+91	1.621810e+91	1.089299e+91	9.800341e+90	7.303469e+90	6.317734e+90	5.268657e+90	4.532798e+90	3.823569e+90	3.531535e+90	2.802857e+90	2.828742e+90	2.066052e+90	2.368647e+90	1.504527e+90	1.928999e+90	1.031970e+90	1.810352e+89	2.000763e+90	4.992498e+89	1.355828e+90	5.988228e+89	8.370483e+89	6.749839e+89	6.177200e+89	4.356410e+89	5.083013e+89	3.985380e+89	3.367580e+89	3.156611e+89	3.213833e+89	2.688080e+89	2.565247e+89	9.039550e+88	1.495253e+89	7.590928e+88	2.044605e+89	1.565844e+89	1.611403e+89	1.286039e+89	7.135609e+88	6.088521e+88	3.843646e+88	3.186271e+88	5.974939e+88	5.537872e+88	4.831608e+88	4.819936e+88	4.081922e+88	3.512570e+88	2.746997e+88	1.742703e+88	1.331353e+88	1.046201e+88	8.298862e+87	2.048212e+87	8.128019e+87	2.842837e+87	1.461004e+87	1.043832e+87	7.453338e+86	2.642329e+86	2.140805e+86	2.169059e+86	1.385156e+86	6.417596e+85	6.368560e+85	3.466966e+85	1.546908e+85	8.297813e+83	7.167690e+83	2.288745e+84	3.012243e+84	1.013354e+84	2.894141e+83	6.353993e+83	1.213556e+83	1.222640e+83	7.430769e+82	1.485929e+83	2.002414e+83	7.410116e+82	6.520351e+82	4.227402e+82	3.353160e+82	1.355225e+82	1.783006e+81	5.172389e+79	5.536388e+79	1.921378e+79	8.582222e+79	1.108418e+80	3.644508e+79	4.439447e+80	3.298011e+81	7.910452e+81	7.805408e+81	2.885707e+82	1.637175e+83	7.112845e+82	4.681602e+82	9.529021e+84	7.787996e+83	3.246939e+85	6.941275e+85	1.602185e+86	3.686443e+86	5.766186e+86	9.741259e+86	1.478687e+87	2.773052e+87	3.558359e+87	3.445357e+87	3.436424e+87	7.131807e+87	1.214419e+88	1.553884e+88	2.194503e+88	2.486800e+88	2.977090e+88	3.144978e+88	4.264742e+88	2.339122e+88	6.920267e+88	1.307543e+88	5.797778e+88	2.392973e+88	4.181064e+88	2.081926e+88	3.426320e+88	1.992701e+88	2.211136e+88	2.513255e+88	2.309358e+88	1.453975e+88	1.854524e+88	1.640224e+88	2.278437e+88	5.911852e+87	2.823882e+88	6.480139e+87	3.741192e+88	2.440921e+88	7.784363e+88	1.344687e+89	2.497775e+89	3.352900e+89	5.153112e+89	1.009199e+90	1.647554e+90	2.670523e+90	4.046532e+90	6.187426e+90	9.093405e+90	1.312043e+91	1.830501e+91	2.533271e+91	3.443397e+91	4.774228e+91	7.200855e+91	1.072225e+92	1.633250e+92	2.290017e+92	2.340794e+92	2.119888e+92	1.428218e+92	6.683408e+91	5.221581e+91	3.616784e+91	2.185826e+91	2.086629e+91	1.308921e+91	3.140631e+91	2.555941e+91	1.776221e+90	7.754827e+90	3.345750e+90	1.654951e+91	2.180707e+92	1.089142e+92	1.644932e+91	9.750043e+90	7.816324e+91	2.090779e+93	2.968603e+93	7.257239e+93	
SCALARS Pressure float 1
LOOKUP_TABLE default
6.805428e+91	4.940128e+91	1.634414e+90	4.978105e+92	4.477743e+93	3.260708e+93	1.914802e+93	8.960405e+92	9.158275e+91	3.802453e+91	1.743336e+91	1.009151e+91	6.119156e+90	3.934607e+90	2.397521e+90	1.791296e+90	1.136417e+90	9.143185e+89	6.421252e+89	5.176643e+89	4.023584e+89	3.268055e+89	2.635068e+89	2.242199e+89	1.775363e+89	1.591496e+89	1.215616e+89	1.168502e+89	8.243185e+88	8.694485e+88	5.919877e+88	8.387127e+87	5.719459e+88	2.980469e+88	3.932946e+88	2.556516e+88	2.541526e+88	1.736720e+88	1.602988e+88	1.140677e+88	1.142039e+88	9.494776e+87	7.327280e+87	6.210464e+87	7.864164e+87	3.068241e+87	4.557719e+87	2.053433e+87	2.146055e+87	1.432162e+87	2.674071e+87	9.383845e+86	2.226299e+87	1.949765e+87	5.969454e+86	7.099598e+86	6.236530e+86	7.079948e+86	1.013477e+87	8.971232e+86	7.376853e+86	6.659856e+86	5.490502e+86	4.396159e+86	3.359741e+86	2.076360e+86	1.596274e+86	1.249015e+86	8.811050e+85	3.685055e+85	5.898057e+85	2.244202e+85	1.243944e+85	9.482449e+84	6.497625e+84	2.539927e+84	1.791819e+84	2.694322e+84	5.973700e+83	8.259217e+83	1.521905e+84	4.126898e+82	5.816839e+83	2.096498e+82	2.119807e+82	2.502027e+81	5.189938e+82	2.331705e+82	1.949148e+81	1.434474e+82	3.261659e+81	1.946342e+80	2.946775e+81	1.474096e+81	8.087393e+80	2.523042e+80	5.658424e+80	2.604450e+80	2.469679e+80	1.137310e+80	7.691616e+77	2.128562e+78	3.048722e+78	1.201806e+78	4.038786e+78	5.611360e+78	4.370929e+78	2.332814e+79	7.631140e+79	1.902538e+80	4.576031e+80	9.790792e+80	4.173452e+81	2.186123e+81	3.986902e+81	1.128091e+82	9.737040e+81	4.528907e+83	1.910387e+84	5.082118e+84	1.142239e+85	1.862801e+85	3.360308e+85	4.329160e+85	9.031268e+85	1.221289e+86	1.186557e+86	1.237707e+86	2.761167e+86	4.573219e+86	6.004324e+86	8.639580e+86	1.064639e+87	1.378943e+87	1.537359e+87	2.033941e+87	1.499928e+87	2.965200e+87	1.056260e+87	2.630124e+87	1.736398e+87	2.218936e+87	1.595048e+87	1.961031e+87	1.495099e+87	1.131900e+87	1.558961e+87	1.378158e+87	9.276774e+86	1.304358e+87	1.173677e+87	1.268724e+87	3.124676e+86	1.140205e+87	5.098105e+86	1.418981e+87	1.536213e+87	3.474538e+87	7.250257e+87	1.429964e+88	2.357226e+88	3.375511e+88	7.510407e+88	1.272905e+89	2.214453e+89	3.620889e+89	6.006176e+89	9.850122e+89	1.578920e+90	2.444349e+90	3.754823e+90	5.721685e+90	8.869431e+90	1.501661e+91	2.534245e+91	4.557769e+91	7.020743e+91	6.345172e+91	4.317193e+91	1.310526e+91	4.606827e+90	2.824559e+90	2.074469e+90	1.376295e+90	1.276749e+90	9.150991e+89	2.964456e+90	3.136275e+90	3.754336e+89	3.811666e+89	3.821539e+89	1.403437e+90	6.379330e+90	7.096256e+90	7.219192e+89	1.890572e+90	5.169494e+90	3.813411e+91	6.021075e+91	4.282648e+91	
SCALARS Temperature float 1
LOOKUP_TABLE default
4.649098e+04	1.502695e+05	2.373559e+05	1.924276e+05	1.465889e+06	2.150447e+06	2.641720e+06	2.924932e+06	1.863862e+06	1.468601e+06	1.346073e+06	1.329569e+06	1.307478e+06	1.228234e+06	1.220168e+06	1.207799e+06	1.169575e+06	1.140873e+06	1.100231e+06	1.082142e+06	1.040412e+06	1.021202e+06	9.993359e+05	9.632415e+05	9.626431e+05	9.046383e+05	9.261932e+05	8.352429e+05	8.692672e+05	8.104237e+05	9.471879e+05	4.134360e+05	5.685304e+05	1.031190e+06	5.788311e+05	8.101385e+05	6.077593e+05	5.145568e+05	5.295831e+05	5.655578e+05	4.671443e+05	5.160479e+05	4.584638e+05	4.248560e+05	5.253961e+05	2.512346e+05	3.863391e+05	4.958191e+05	3.241900e+05	4.188554e+05	3.010670e+05	1.369632e+05	3.167933e+05	3.443173e+05	1.904931e+05	2.695125e+05	3.624451e+05	5.012524e+05	3.891794e+05	3.702626e+05	3.497657e+05	3.172098e+05	3.083537e+05	2.884265e+05	2.822705e+05	2.746604e+05	2.785522e+05	2.766957e+05	2.582047e+05	3.456018e+05	1.837640e+05	1.756040e+05	2.113418e+05	2.196235e+05	2.075682e+05	2.306451e+05	2.017349e+05	2.920432e+05	8.289274e+04	3.279121e+05	6.048348e+05	2.377386e+04	1.196528e+06	2.530204e+05	2.954383e+05	2.329186e+04	2.936742e+05	3.624490e+05	1.046019e+05	3.669064e+05	3.828789e+05	2.943950e+04	3.443237e+05	9.885167e+04	6.515232e+04	3.537045e+04	9.317997e+04	7.614247e+04	7.966103e+04	9.648732e+04	5.445257e+03	2.734507e+05	3.058648e+05	4.600336e+05	1.434949e+05	1.022501e+05	2.027344e+05	9.778880e+04	4.524196e+04	4.803812e+04	9.015571e+04	5.009931e+04	4.167158e+04	3.337085e+04	9.578776e+04	2.945624e+03	1.357249e+04	3.104292e+04	5.197818e+04	5.841358e+04	5.640923e+04	5.653366e+04	5.811167e+04	4.897887e+04	5.530079e+04	5.788486e+04	5.483483e+04	5.377036e+04	5.974584e+04	5.977669e+04	6.229426e+04	6.436999e+04	6.725552e+04	7.202124e+04	7.376303e+04	7.378274e+04	8.222506e+04	6.958164e+04	7.936238e+04	6.954898e+04	9.390152e+04	7.420320e+04	9.260042e+04	7.145009e+04	8.241164e+04	5.500266e+04	7.298214e+04	6.207881e+04	5.843989e+04	6.689702e+04	6.671431e+04	5.060105e+04	3.370535e+04	3.830975e+04	4.522946e+04	3.452992e+04	5.031756e+04	3.956518e+04	4.533590e+04	4.833128e+04	5.773071e+04	5.434169e+04	6.052294e+04	6.263651e+04	6.647816e+04	7.058462e+04	7.636080e+04	8.392306e+04	9.150000e+04	9.930645e+04	1.085264e+05	1.180077e+05	1.272571e+05	1.381541e+05	1.481855e+05	1.610415e+05	1.618723e+05	1.369521e+05	1.050441e+05	5.017086e+04	3.610070e+04	3.044930e+04	3.311319e+04	3.481746e+04	3.553765e+04	3.681384e+04	5.458061e+04	6.615438e+04	9.223553e+04	2.817377e+04	6.654308e+04	6.895213e+04	2.357683e+04	5.105403e+04	3.563010e+04	3.368501e+05	1.039954e+06	3.142557e+05	3.311749e+05	9.059387e+04	
SCALARS Pressure_Coefficient float 1
LOOKUP_TABLE default
1.519069e+92	1.102707e+92	3.648246e+90	1.111184e+93	9.994962e+93	7.278366e+93	4.274111e+93	2.000090e+93	2.044258e+92	8.487619e+91	3.891375e+91	2.252568e+91	1.365883e+91	8.782604e+90	5.351610e+90	3.998428e+90	2.536644e+90	2.040890e+90	1.433315e+90	1.155501e+90	8.981215e+89	7.294767e+89	5.881848e+89	5.004909e+89	3.962864e+89	3.552446e+89	2.713429e+89	2.608264e+89	1.839997e+89	1.940733e+89	1.321401e+89	1.872127e+88	1.276665e+89	6.652833e+88	8.778898e+88	5.706509e+88	5.673050e+88	3.876608e+88	3.578098e+88	2.546153e+88	2.549194e+88	2.119370e+88	1.635554e+88	1.386264e+88	1.755394e+88	6.848752e+87	1.017348e+88	4.583555e+87	4.790301e+87	3.196790e+87	5.968907e+87	2.094608e+87	4.969417e+87	4.352153e+87	1.332467e+87	1.584732e+87	1.392083e+87	1.580346e+87	2.262226e+87	2.002507e+87	1.646619e+87	1.486575e+87	1.225559e+87	9.812854e+86	7.499422e+86	4.634733e+86	3.563111e+86	2.787979e+86	1.966752e+86	8.225569e+85	1.316531e+86	5.009380e+85	2.776660e+85	2.116618e+85	1.450363e+85	5.669480e+84	3.999596e+84	6.014111e+84	1.333415e+84	1.843575e+84	3.397109e+84	9.211826e+82	1.298401e+84	4.679683e+82	4.731711e+82	5.584881e+81	1.158468e+83	5.204698e+82	4.350777e+81	3.201951e+82	7.280489e+81	4.344513e+80	6.577623e+81	3.290392e+81	1.805222e+81	5.631790e+80	1.263041e+81	5.813505e+80	5.512676e+80	2.538638e+80	1.716879e+78	4.751254e+78	6.805184e+78	2.682602e+78	9.015147e+78	1.252536e+79	9.756538e+78	5.207174e+79	1.703380e+80	4.246736e+80	1.021435e+81	2.185445e+81	9.315741e+81	4.879739e+81	8.899335e+81	2.518061e+82	2.173446e+82	1.010917e+84	4.264256e+84	1.134401e+85	2.549640e+85	4.158038e+85	7.500686e+85	9.663303e+85	2.015908e+86	2.726092e+86	2.648566e+86	2.762740e+86	6.163319e+86	1.020808e+87	1.340251e+87	1.928478e+87	2.376427e+87	3.077999e+87	3.431604e+87	4.540047e+87	3.348054e+87	6.618749e+87	2.357724e+87	5.870813e+87	3.875889e+87	4.952983e+87	3.560376e+87	4.377301e+87	3.337274e+87	2.526562e+87	3.479824e+87	3.076244e+87	2.070709e+87	2.911514e+87	2.619815e+87	2.831974e+87	6.974723e+86	2.545101e+87	1.137970e+87	3.167369e+87	3.429046e+87	7.755665e+87	1.618361e+88	3.191883e+88	5.261665e+88	7.534623e+88	1.676430e+89	2.841307e+89	4.942975e+89	8.082341e+89	1.340664e+90	2.198688e+90	3.524375e+90	5.456137e+90	8.381302e+90	1.277162e+91	1.979784e+91	3.351922e+91	5.656796e+91	1.017359e+92	1.567130e+92	1.416333e+92	9.636591e+91	2.925280e+91	1.028310e+91	6.304818e+90	4.630511e+90	3.072087e+90	2.849886e+90	2.042632e+90	6.617089e+90	7.000615e+90	8.380215e+89	8.508184e+89	8.530222e+89	3.132672e+90	1.423958e+91	1.583986e+91	1.611427e+90	4.220027e+90	1.153905e+91	8.512077e+91	1.343990e+92	9.559483e+91	
SCALARS Mach float 1
LOOKUP_TABLE default
2.516878e+01	1.185874e+01	9.869099e+00	1.118761e+01	3.094382e+00	2.323552e+00	1.664408e+00	1.266267e+00	1.553321e+00	1.828061e+00	2.087574e+00	2.233562e+00	2.412945e+00	2.652399e+00	2.810512e+00	3.059840e+00	3.181504e+00	3.426522e+00	3.560478e+00	3.723345e+00	3.890361e+00	4.030246e+00	4.142174e+00	4.350750e+00	4.356853e+00	4.671205e+00	4.550655e+00	5.038536e+00	4.743684e+00	5.303161e+00	4.618640e+00	5.221507e+00	6.811931e+00	4.512002e+00	6.758443e+00	5.467226e+00	6.593814e+00	7.207678e+00	7.174910e+00	7.140573e+00	7.746725e+00	7.509466e+00	7.879402e+00	8.308971e+00	7.403359e+00	1.102658e+01	8.765483e+00	7.701730e+00	9.796101e+00	8.493971e+00	1.027899e+01	1.532346e+01	9.991451e+00	9.521306e+00	1.293033e+01	1.090601e+01	9.190924e+00	7.792319e+00	8.980523e+00	9.198542e+00	9.486597e+00	9.990923e+00	1.013094e+01	1.051535e+01	1.064104e+01	1.078562e+01	1.075067e+01	1.077445e+01	1.144471e+01	8.708090e+00	1.390316e+01	1.331888e+01	1.281458e+01	1.239703e+01	1.266089e+01	1.204347e+01	1.292708e+01	1.055630e+01	1.810192e+01	1.036493e+01	7.497236e+00	3.459129e+01	5.866809e+00	7.278088e+00	6.688257e+00	3.610018e+01	8.907466e+00	7.649444e+00	1.444113e+01	7.727034e+00	7.041379e+00	2.989681e+01	5.696693e+00	1.185042e+01	1.871199e+01	2.039600e+01	1.269042e+01	1.510981e+01	1.379819e+01	1.290961e+01	5.751542e+01	5.580569e+00	4.729799e+00	4.389505e+00	5.175424e+00	4.964604e+00	2.887921e+00	4.859517e+00	7.626813e+00	7.471701e+00	4.560257e+00	6.207563e+00	7.243551e+00	6.550501e+00	3.633663e+00	3.468641e+01	1.052095e+01	9.942238e+00	6.952327e+00	6.439381e+00	6.521814e+00	6.375666e+00	6.151561e+00	6.724841e+00	6.347667e+00	6.168593e+00	6.157061e+00	6.007665e+00	5.772962e+00	5.862107e+00	5.779201e+00	5.719712e+00	5.458695e+00	5.222157e+00	5.064868e+00	5.136406e+00	4.325158e+00	5.456095e+00	3.756706e+00	5.283903e+00	4.014482e+00	4.831836e+00	3.882642e+00	4.624783e+00	3.933051e+00	4.933085e+00	4.411244e+00	4.512974e+00	4.338083e+00	4.091439e+00	4.048824e+00	4.699315e+00	4.843241e+00	5.639963e+00	3.819289e+00	5.838950e+00	4.373493e+00	5.332384e+00	4.787894e+00	4.624067e+00	4.092489e+00	4.270525e+00	3.952818e+00	3.862504e+00	3.695463e+00	3.520455e+00	3.338471e+00	3.101099e+00	2.880909e+00	2.669592e+00	2.463074e+00	2.241859e+00	2.029352e+00	1.810785e+00	1.572508e+00	1.244096e+00	1.043201e+00	1.303344e+00	1.855625e+00	3.463701e+00	4.141707e+00	4.778876e+00	4.619021e+00	4.372309e+00	4.447038e+00	4.106372e+00	3.400481e+00	2.840927e+00	1.785305e+00	5.049042e+00	2.989262e+00	3.643415e+00	6.727762e+00	4.284209e+00	5.383246e+00	1.948330e+00	4.246022e+00	8.645975e+00	8.176930e+00	1.544376e+01	