# vtk DataFile Version 3.0
vtk output
ASCII
DATASET UNSTRUCTURED_GRID
POINTS 5233 float
9.997500e-01	-3.633243e-05	0.0	9.990000e-01	-1.454723e-04	0.0	9.977600e-01	-3.275073e-04	0.0	9.960200e-01	-5.899270e-04	0.0	9.937800e-01	-9.470942e-04	0.0	9.910500e-01	-1.422095e-03	0.0	9.878400e-01	-2.045514e-03	0.0	9.841300e-01	-2.853669e-03	0.0	9.799500e-01	-3.858874e-03	0.0	9.752800e-01	-5.058290e-03	0.0	9.701500e-01	-6.405099e-03	0.0	9.645400e-01	-7.840828e-03	0.0	9.584700e-01	-9.290140e-03	0.0	9.519400e-01	-1.069768e-02	0.0	9.449600e-01	-1.203550e-02	0.0	9.375400e-01	-1.330799e-02	0.0	9.296900e-01	-1.454248e-02	0.0	9.214000e-01	-1.577722e-02	0.0	9.127000e-01	-1.703949e-02	0.0	9.035800e-01	-1.835031e-02	0.0	8.940600e-01	-1.971332e-02	0.0	8.841500e-01	-2.112392e-02	0.0	8.738500e-01	-2.257390e-02	0.0	8.631800e-01	-2.405116e-02	0.0	8.521600e-01	-2.554505e-02	0.0	8.407700e-01	-2.705239e-02	0.0	8.290500e-01	-2.856396e-02	0.0	8.170100e-01	-3.007590e-02	0.0	8.046400e-01	-3.158739e-02	0.0	7.919700e-01	-3.309279e-02	0.0	7.790100e-01	-3.458882e-02	0.0	7.657800e-01	-3.607087e-02	0.0	7.522800e-01	-3.753639e-02	0.0	7.385200e-01	-3.898152e-02	0.0	7.245300e-01	-4.040040e-02	0.0	7.103200e-01	-4.178939e-02	0.0	6.958900e-01	-4.314594e-02	0.0	6.812700e-01	-4.446485e-02	0.0	6.664700e-01	-4.574311e-02	0.0	6.515000e-01	-4.697796e-02	0.0	6.363800e-01	-4.816608e-02	0.0	6.211300e-01	-4.930456e-02	0.0	6.057600e-01	-5.039154e-02	0.0	5.902800e-01	-5.142539e-02	0.0	5.747100e-01	-5.240406e-02	0.0	5.590600e-01	-5.332638e-02	0.0	5.433600e-01	-5.419027e-02	0.0	5.276100e-01	-5.499552e-02	0.0	5.118400e-01	-5.574050e-02	0.0	4.960500e-01	-5.642515e-02	0.0	4.802700e-01	-5.704812e-02	0.0	4.645100e-01	-5.760903e-02	0.0	4.487800e-01	-5.810740e-02	0.0	4.331100e-01	-5.854215e-02	0.0	4.175000e-01	-5.891305e-02	0.0	4.019700e-01	-5.921922e-02	0.0	3.865400e-01	-5.945976e-02	0.0	3.712300e-01	-5.963378e-02	0.0	3.560400e-01	-5.974050e-02	0.0	3.409900e-01	-5.977875e-02	0.0	3.261100e-01	-5.974744e-02	0.0	3.114000e-01	-5.964541e-02	0.0	2.968700e-01	-5.947130e-02	0.0	2.825500e-01	-5.922401e-02	0.0	2.684500e-01	-5.890227e-02	0.0	2.545700e-01	-5.850439e-02	0.0	2.409400e-01	-5.802951e-02	0.0	2.275700e-01	-5.747634e-02	0.0	2.144700e-01	-5.684361e-02	0.0	2.016600e-01	-5.613062e-02	0.0	1.891400e-01	-5.533570e-02	0.0	1.769300e-01	-5.445842e-02	0.0	1.650400e-01	-5.349796e-02	0.0	1.534900e-01	-5.245453e-02	0.0	1.422900e-01	-5.132786e-02	0.0	1.314400e-01	-5.011669e-02	0.0	1.209500e-01	-4.882076e-02	0.0	1.108500e-01	-4.744286e-02	0.0	1.011300e-01	-4.598083e-02	0.0	9.181000e-02	-4.443677e-02	0.0	8.290000e-02	-4.281181e-02	0.0	7.440000e-02	-4.110530e-02	0.0	6.633000e-02	-3.932078e-02	0.0	5.869000e-02	-3.745796e-02	0.0	5.149000e-02	-3.551885e-02	0.0	4.474000e-02	-3.350598e-02	0.0	3.844000e-02	-3.141903e-02	0.0	3.260000e-02	-2.926086e-02	0.0	2.723000e-02	-2.703515e-02	0.0	2.232000e-02	-2.473687e-02	0.0	1.790000e-02	-2.238001e-02	0.0	1.395000e-02	-1.995376e-02	0.0	1.049000e-02	-1.746938e-02	0.0	7.520000e-03	-1.492778e-02	0.0	5.040000e-03	-1.232913e-02	0.0	3.050000e-03	-9.671895e-03	0.0	1.560000e-03	-6.971319e-03	0.0	5.600000e-04	-4.206243e-03	0.0	6.000000e-05	-1.384014e-03	0.0	0.000000e+00	0.000000e+00	0.0	6.000000e-05	1.263715e-03	0.0	5.600000e-04	3.624949e-03	0.0	1.560000e-03	5.788668e-03	0.0	3.050000e-03	7.806632e-03	0.0	5.040000e-03	9.723865e-03	0.0	7.520000e-03	1.154812e-02	0.0	1.049000e-02	1.329439e-02	0.0	1.395000e-02	1.497318e-02	0.0	1.790000e-02	1.659241e-02	0.0	2.232000e-02	1.815170e-02	0.0	2.723000e-02	1.966419e-02	0.0	3.260000e-02	2.112576e-02	0.0	3.844000e-02	2.254411e-02	0.0	4.474000e-02	2.392058e-02	0.0	5.149000e-02	2.525657e-02	0.0	5.869000e-02	2.655508e-02	0.0	6.633000e-02	2.781686e-02	0.0	7.440000e-02	2.904256e-02	0.0	8.290000e-02	3.023409e-02	0.0	9.181000e-02	3.139036e-02	0.0	1.011300e-01	3.251287e-02	0.0	1.108500e-01	3.360159e-02	0.0	1.209500e-01	3.465539e-02	0.0	1.314400e-01	3.567613e-02	0.0	1.422900e-01	3.666151e-02	0.0	1.534900e-01	3.761128e-02	0.0	1.650400e-01	3.852579e-02	0.0	1.769300e-01	3.940436e-02	0.0	1.891400e-01	4.024553e-02	0.0	2.016600e-01	4.104850e-02	0.0	2.144700e-01	4.181178e-02	0.0	2.275700e-01	4.253494e-02	0.0	2.409400e-01	4.321630e-02	0.0	2.545700e-01	4.385459e-02	0.0	2.684500e-01	4.444842e-02	0.0	2.825500e-01	4.499547e-02	0.0	2.968700e-01	4.549457e-02	0.0	3.114000e-01	4.594395e-02	0.0	3.261100e-01	4.634114e-02	0.0	3.409900e-01	4.668426e-02	0.0	3.560400e-01	4.697146e-02	0.0	3.712300e-01	4.720014e-02	0.0	3.865400e-01	4.736803e-02	0.0	4.019700e-01	4.747296e-02	0.0	4.175000e-01	4.751249e-02	0.0	4.331100e-01	4.748426e-02	0.0	4.487800e-01	4.738604e-02	0.0	4.645100e-01	4.721548e-02	0.0	4.802700e-01	4.697062e-02	0.0	4.960500e-01	4.664941e-02	0.0	5.118400e-01	4.624996e-02	0.0	5.276100e-01	4.577110e-02	0.0	5.433600e-01	4.521116e-02	0.0	5.590600e-01	4.456977e-02	0.0	5.747100e-01	4.384581e-02	0.0	5.902800e-01	4.303992e-02	0.0	6.057600e-01	4.215238e-02	0.0	6.211300e-01	4.118455e-02	0.0	6.363800e-01	4.013785e-02	0.0	6.515000e-01	3.901421e-02	0.0	6.664700e-01	3.781699e-02	0.0	6.812700e-01	3.655041e-02	0.0	6.958900e-01	3.521861e-02	0.0	7.103200e-01	3.382640e-02	0.0	7.245300e-01	3.238135e-02	0.0	7.385200e-01	3.088879e-02	0.0	7.522800e-01	2.935567e-02	0.0	7.657800e-01	2.779190e-02	0.0	7.790100e-01	2.620584e-02	0.0	7.919700e-01	2.460514e-02	0.0	8.046400e-01	2.300032e-02	0.0	8.170100e-01	2.140104e-02	0.0	8.290500e-01	1.981962e-02	0.0	8.407700e-01	1.826288e-02	0.0	8.521600e-01	1.673924e-02	0.0	8.631800e-01	1.525956e-02	0.0	8.738500e-01	1.382431e-02	0.0	8.841500e-01	1.243671e-02	0.0	8.940600e-01	1.109797e-02	0.0	9.035800e-01	9.806396e-03	0.0	9.127000e-01	8.564698e-03	0.0	9.214000e-01	7.383819e-03	0.0	9.296900e-01	6.280321e-03	0.0	9.375400e-01	5.285166e-03	0.0	9.449600e-01	4.427495e-03	0.0	9.519400e-01	3.732223e-03	0.0	9.584700e-01	3.205467e-03	0.0	9.645400e-01	2.827052e-03	0.0	9.701500e-01	2.552121e-03	0.0	9.752800e-01	2.324878e-03	0.0	9.799500e-01	2.093088e-03	0.0	9.841300e-01	1.827039e-03	0.0	9.878400e-01	1.519907e-03	0.0	9.910500e-01	1.190204e-03	0.0	9.937800e-01	8.630226e-04	0.0	9.960200e-01	5.666265e-04	0.0	9.977600e-01	3.231883e-04	0.0	9.990000e-01	1.450783e-04	0.0	9.997500e-01	3.632619e-05	0.0	1.000000e+00	0.000000e+00	0.0	1.984229e+01	2.506660e+00	0.0	1.937166e+01	4.973800e+00	0.0	1.859553e+01	7.362490e+00	0.0	1.752613e+01	9.635070e+00	0.0	1.618034e+01	1.175571e+01	0.0	1.457937e+01	1.369094e+01	0.0	1.274848e+01	1.541027e+01	0.0	1.071654e+01	1.688656e+01	0.0	8.515590e+00	1.809654e+01	0.0	6.180340e+00	1.902113e+01	0.0	3.747630e+00	1.964575e+01	0.0	1.255810e+00	1.996053e+01	0.0	-1.255810e+00	1.996053e+01	0.0	-3.747630e+00	1.964574e+01	0.0	-6.180340e+00	1.902113e+01	0.0	-8.515590e+00	1.809654e+01	0.0	-1.071654e+01	1.688656e+01	0.0	-1.274848e+01	1.541026e+01	0.0	-1.457937e+01	1.369094e+01	0.0	-1.618034e+01	1.175570e+01	0.0	-1.752613e+01	9.635070e+00	0.0	-1.859553e+01	7.362490e+00	0.0	-1.937166e+01	4.973800e+00	0.0	-1.984229e+01	2.506660e+00	0.0	-2.000000e+01	0.000000e+00	0.0	-1.984229e+01	-2.506670e+00	0.0	-1.937166e+01	-4.973800e+00	0.0	-1.859553e+01	-7.362490e+00	0.0	-1.752613e+01	-9.635080e+00	0.0	-1.618034e+01	-1.175571e+01	0.0	-1.457937e+01	-1.369094e+01	0.0	-1.274848e+01	-1.541027e+01	0.0	-1.071653e+01	-1.688656e+01	0.0	-8.515580e+00	-1.809654e+01	0.0	-6.180340e+00	-1.902113e+01	0.0	-3.747620e+00	-1.964575e+01	0.0	-1.255810e+00	-1.996053e+01	0.0	1.255810e+00	-1.996053e+01	0.0	3.747630e+00	-1.964574e+01	0.0	6.180340e+00	-1.902113e+01	0.0	8.515590e+00	-1.809654e+01	0.0	1.071654e+01	-1.688656e+01	0.0	1.274848e+01	-1.541026e+01	0.0	1.457937e+01	-1.369094e+01	0.0	1.618034e+01	-1.175570e+01	0.0	1.752614e+01	-9.635070e+00	0.0	1.859553e+01	-7.362490e+00	0.0	1.937166e+01	-4.973790e+00	0.0	1.984229e+01	-2.506660e+00	0.0	2.000000e+01	0.000000e+00	0.0	6.074237e-02	-4.532104e-02	0.0	6.601883e-01	-6.002177e-02	0.0	4.255533e-01	6.172253e-02	0.0	6.897642e-01	4.910626e-02	0.0	3.791232e-01	-7.360567e-02	0.0	9.994675e-01	-7.275896e-04	0.0	9.985544e-01	-1.331421e-03	0.0	7.738131e-01	-4.739991e-02	0.0	6.898600e-01	-5.714797e-02	0.0	-1.127136e-03	5.516549e-03	0.0	7.467800e-01	-5.080731e-02	0.0	5.833311e-01	5.753408e-02	0.0	9.928160e-01	-3.736231e-03	0.0	9.899359e-01	-4.744179e-03	0.0	5.989072e-01	5.659924e-02	0.0	7.187646e-01	-5.406343e-02	0.0	-1.468661e-03	5.997925e-04	0.0	9.865725e-01	-5.906474e-03	0.0	9.827328e-01	-7.226368e-03	0.0	-1.302025e-03	-6.473015e-03	0.0	6.451051e-01	-6.137237e-02	0.0	8.244819e-01	-4.029774e-02	0.0	7.997421e-01	-4.389405e-02	0.0	3.484809e-01	6.060782e-02	0.0	8.479020e-01	-3.666733e-02	0.0	2.473656e-01	5.609748e-02	0.0	8.699420e-01	-3.302705e-02	0.0	1.046401e-02	1.734314e-02	0.0	8.904957e-01	-2.943304e-02	0.0	7.702148e-02	-4.969903e-02	0.0	9.094909e-01	-2.594008e-02	0.0	-1.766743e-03	-3.206969e-03	0.0	9.424825e-01	-1.916817e-02	0.0	9.268474e-01	-2.255006e-02	0.0	1.794784e-02	-2.749670e-02	0.0	4.257416e-01	-7.303650e-02	0.0	8.591035e-01	-3.484298e-02	0.0	9.563355e-01	-1.566687e-02	0.0	9.784088e-01	-8.725320e-03	0.0	9.683300e-01	-1.208062e-02	0.0	1.582632e-01	-6.357364e-02	0.0	9.001950e-01	-2.767196e-02	0.0	7.604294e-01	-4.911943e-02	0.0	9.971359e-01	-2.087281e-03	0.0	5.990500e-01	-6.504503e-02	0.0	4.414441e-01	-7.268665e-02	0.0	5.363196e-01	-6.898008e-02	0.0	4.730157e-01	-7.175418e-02	0.0	5.046766e-01	-7.051674e-02	0.0	4.888342e-01	-7.117240e-02	0.0	1.249493e-01	-5.906518e-02	0.0	2.784418e-02	-3.297636e-02	0.0	3.945689e-01	-7.349769e-02	0.0	4.621902e-02	-4.062296e-02	0.0	4.101097e-01	-7.330829e-02	0.0	3.187146e-01	-7.321361e-02	0.0	3.486125e-01	-7.358036e-02	0.0	3.350773e-02	-3.558968e-02	0.0	2.895104e-01	-7.250815e-02	0.0	9.348849e-01	-2.086598e-02	0.0	1.468045e-01	-6.216151e-02	0.0	1.946434e-01	-6.723359e-02	0.0	8.579568e-02	-5.175672e-02	0.0	1.045869e-01	-5.560398e-02	0.0	5.678223e-01	-6.716030e-02	0.0	1.700658e-01	-6.489197e-02	0.0	6.145275e-01	-6.388332e-02	0.0	8.804131e-01	-3.122161e-02	0.0	2.266816e-02	-3.027702e-02	0.0	9.952218e-01	-2.870135e-03	0.0	6.736394e-03	-1.882141e-02	0.0	1.849218e-02	2.151176e-02	0.0	9.183775e-01	-2.423559e-02	0.0	9.49640
[...]
POINT_DATA 5233

SCALARS Conservative_1 float 1
LOOKUP_TABLE default
-1.709281e-01	-2.155513e-01	-2.125633e-01	-2.103582e-01	-2.104163e-01	-2.078085e-01	-2.010062e-01	-1.877192e-01	-1.662500e-01	-1.361057e-01	-9.886980e-02	-5.842344e-02	-2.097377e-02	6.948776e-03	2.166527e-02	2.466059e-02	2.140122e-02	1.744120e-02	1.624526e-02	1.873209e-02	2.455740e-02	3.274705e-02	4.220249e-02	5.214779e-02	6.199293e-02	7.155568e-02	8.078207e-02	8.975905e-02	9.868215e-02	1.076139e-01	1.166775e-01	1.258650e-01	1.351385e-01	1.444298e-01	1.536759e-01	1.628327e-01	1.719235e-01	1.809878e-01	1.899791e-01	1.988280e-01	2.074602e-01	2.158472e-01	2.239623e-01	2.318168e-01	2.394100e-01	2.467590e-01	2.538758e-01	2.607868e-01	2.675858e-01	2.743287e-01	2.810401e-01	2.876284e-01	2.938115e-01	2.993513e-01	3.043981e-01	3.094222e-01	3.148915e-01	3.210054e-01	3.277534e-01	3.350022e-01	3.427754e-01	3.510801e-01	3.598545e-01	3.685808e-01	3.761888e-01	3.810323e-01	3.814556e-01	3.764029e-01	3.663351e-01	3.531760e-01	3.396335e-01	3.276694e-01	3.175448e-01	3.078853e-01	2.968833e-01	2.837669e-01	2.688049e-01	2.525282e-01	2.349488e-01	2.159178e-01	1.953054e-01	1.729957e-01	1.488196e-01	1.225463e-01	9.389853e-02	6.264541e-02	2.839884e-02	-9.109390e-03	-5.036758e-02	-9.559453e-02	-1.451868e-01	-1.989046e-01	-2.567294e-01	-3.162685e-01	-3.758905e-01	-4.279443e-01	-4.693411e-01	-4.965449e-01	-4.931306e-01	-4.650665e-01	-4.267565e-01	-3.397339e-01	-1.988956e-01	-4.694664e-02	9.235109e-02	2.073244e-01	2.936253e-01	3.555155e-01	3.984882e-01	4.277789e-01	4.470627e-01	4.586432e-01	4.647838e-01	4.672404e-01	4.673804e-01	4.664257e-01	4.649377e-01	4.630298e-01	4.608387e-01	4.584741e-01	4.558264e-01	4.524867e-01	4.483730e-01	4.439533e-01	4.397227e-01	4.358226e-01	4.320050e-01	4.280002e-01	4.237784e-01	4.194158e-01	4.150094e-01	4.105415e-01	4.059353e-01	4.011576e-01	3.960594e-01	3.905022e-01	3.843172e-01	3.776284e-01	3.707475e-01	3.641100e-01	3.578135e-01	3.516465e-01	3.453271e-01	3.386985e-01	3.316301e-01	3.239533e-01	3.155250e-01	3.064986e-01	2.973455e-01	2.883337e-01	2.791911e-01	2.693996e-01	2.584884e-01	2.465217e-01	2.338667e-01	2.207351e-01	2.072109e-01	1.932769e-01	1.789614e-01	1.642537e-01	1.492317e-01	1.339463e-01	1.184237e-01	1.027540e-01	8.694923e-02	7.111474e-02	5.529332e-02	3.961850e-02	2.412583e-02	8.914745e-03	-5.990891e-03	-2.047233e-02	-3.444311e-02	-4.777256e-02	-6.045914e-02	-7.234255e-02	-8.366361e-02	-9.464937e-02	-1.057634e-01	-1.175446e-01	-1.304467e-01	-1.444997e-01	-1.591264e-01	-1.729856e-01	-1.843502e-01	-1.914362e-01	-1.929514e-01	-1.885894e-01	-1.795192e-01	-1.687137e-01	-1.605742e-01	-1.595543e-01	-1.678740e-01	-1.847310e-01	-2.076045e-01	-2.346506e-01	-2.600036e-01	-2.846900e-01	-3.865803e-01	-2.907981e-01	-1.375619e-04	-1.352408e-04	-1.317091e-04	-1.282725e-04	-1.226499e-04	-1.139867e-04	-9.647684e-05	-7.304101e-05	-3.420041e-05	2.166274e-05	1.193284e-04	2.486071e-04	3.791813e-04	4.328913e-04	4.222742e-04	3.902042e-04	3.443181e-04	2.975308e-04	2.474484e-04	1.969958e-04	1.489727e-04	1.153205e-04	1.076007e-04	3.474134e-05	-3.380071e-05	1.623107e-05	7.671728e-06	-3.039284e-05	-6.315482e-05	-7.844611e-05	-8.970201e-05	-9.451605e-05	-9.259816e-05	-8.285199e-05	-6.776179e-05	-4.869077e-05	-3.282385e-05	-4.257419e-05	-7.156647e-05	-1.040069e-04	-1.326178e-04	-1.489677e-04	-1.562821e-04	-1.579240e-04	-1.559393e-04	-1.522131e-04	-1.490978e-04	-1.462251e-04	-1.414584e-04	-1.400425e-04	1.051729e-01	1.842813e-01	3.221614e-01	1.225976e-01	3.061316e-01	-2.117084e-01	-2.187059e-01	1.123239e-01	1.665882e-01	-3.078229e-01	1.305116e-01	2.216121e-01	-2.074429e-01	-2.008590e-01	2.085066e-01	1.486928e-01	-4.342982e-01	-1.902112e-01	-1.741139e-01	-4.697056e-01	1.929014e-01	7.665042e-02	9.442280e-02	3.554509e-01	5.842430e-02	3.971498e-01	3.945810e-02	2.070442e-01	2.173197e-02	1.557327e-01	1.004121e-02	-4.823319e-01	3.768101e-03	7.556601e-03	-1.508411e-01	2.906493e-01	4.897803e-02	-2.840167e-02	-1.516968e-01	-9.080814e-02	2.919469e-01	1.479511e-02	1.213827e-01	-2.145823e-01	2.173573e-01	2.854861e-01	2.465671e-01	2.732938e-01	2.600485e-01	2.666732e-01	2.528212e-01	-6.301576e-02	3.005654e-01	4.585903e-02	2.955134e-01	3.334928e-01	3.188514e-01	-2.373111e-02	3.499727e-01	7.419515e-03	2.809483e-01	3.271391e-01	1.782225e-01	2.183763e-01	2.324150e-01	3.022574e-01	2.094570e-01	3.018019e-02	-1.053786e-01	-2.115601e-01	-3.019737e-01	3.228762e-01	7.810453e-03	-7.452882e-03	-1.233132e-01	-2.004312e-01	6.763748e-02	3.655735e-01	2.395931e-01	1.396479e-01	1.033430e-01	2.362490e-01	3.539973e-01	2.250057e-01	1.754842e-01	7.667752e-02	-3.535421e-01	-1.992856e-01	3.122614e-01	3.137269e-01	-1.979619e-01	3.624900e-01	1.990696e-01	3.416198e-01	3.635177e-01	2.796829e-01	1.576537e-01	-3.883682e-01	-4.394277e-01	2.581629e-01	-4.641086e-01	3.875860e-01	4.318619e-01	4.188341e-01	4.358060e-01	3.295764e-01	-2.535485e-01	2.684189e-01	2.959709e-01	-1.693864e-01	-1.797473e-01	-9.635917e-02	2.867641e-01	3.140685e-01	3.430189e-01	-1.447821e-01	-1.193887e-01	4.386356e-01	-1.639797e-01	-1.800714e-01	-1.680864e-01	4.387602e-01	4.352765e-01	3.817216e-01	3.924833e-01	4.207473e-01	3.686870e-01	3.052438e-01	3.364898e-01	4.267468e-01	4.329671e-01	1.811135e-01	4.135931e-01	4.056922e-01	1.523636e-01	2.343732e-01	6.165055e-02	9.221346e-02	2.286929e-03	3.149704e-02	-5.108887e-02	-2.546707e-02	-1.075748e-01	-7.441685e-02	-1.760415e-01	-1.319007e-01	-1.756088e-01	-6.303589e-02	-8.543268e-02	-1.181342e-02	-3.858815e-02	4.648108e-02	1.674425e-02	1.074516e-01	7.691900e-02	1.668860e-01	1.375820e-01	2.467124e-01	1.950097e-01	4.096990e-01	4.015384e-01	4.238131e-01	4.173218e-01	4.267982e-01	4.298070e-01	2.725332e-01	4.063304e-01	3.413750e-01	2.583781e-02	-5.761609e-02	8.555612e-02	3.259108e-01	2.533754e-01	-8.443715e-02	3.604797e-01	1.246257e-01	4.390132e-01	4.374880e-01	3.873873e-01	4.377752e-01	-1.627513e-01	-1.682569e-01	3.754185e-01	-1.810894e-01	-2.000901e-01	3.619125e-01	3.492592e-01	-1.572446e-01	-3.902266e-01	-2.880099e-01	-3.439986e-01	2.013039e-01	1.248178e-02	-2.243657e-01	2.777549e-01	-4.004987e-01	-2.501650e-01	1.314486e-01	2.679272e-01	3.577492e-01	4.126952e-01	-2.875764e-01	-3.567326e-01	3.391756e-01	1.528823e-01	1.984389e-03	-2.894243e-01	2.215530e-01	1.616225e-01	9.961117e-02	-1.896581e-01	3.164859e-01	4.641391e-02	6.446405e-02	1.620757e-01	-4.378268e-01	3.297852e-01	-1.990088e-01	-5.885941e-02	2.651723e-01	1.441311e-01	1.788885e-01	2.718978e-01	1.395678e-01	2.918971e-01	1.245745e-02	9.084322e-02	6.534240e-02	2.629952e-01	1.399845e-01	-4.299067e-02	4.206159e-01	1.254786e-01	4.121290e-01	-7.711306e-02	-1.779890e-01	3.527584e-01	2.665332e-01	-1.672347e-01	-8.792706e-02	-1.921475e-01	-1.695659e-01	-1.644129e-01	3.924526e-01	3.594340e-01	3.963659e-01	4.201557e-01	1.703201e-01	3.155685e-01	1.429923e-01	4.164111e-01	3.911709e-01	-1.668142e-01	-2.099409e-01	-9.876281e-02	2.764790e-01	-3.105847e-01	-2.582165e-01	-2.321459e-01	-2.209842e-02	-2.039072e-01	-3.339438e-01	-4.560577e-01	-4.369488e-01	-1.551903e-01	-2.686695e-01	8.935375e-02	-2.172905e-01	-2.057334e-01	3.197972e-01	2.327062e-01	-1.766062e-01	2.834017e-02	2.087407e-01	-1.990253e-01	-4.600483e-01	2.772162e-01	3.270623e-01	5.549123e-02	3.782960e-01	3.727807e-02	1.990292e-02	1.153744e-01	6.435452e-03	-1.173453e-03	-1.964484e-02	-7.353436e-02	-3.619292e-02	-8.536503e-02	-1.594409e-01	2.372843e-01	1.174065e-01	1.084503e-01	-2.116975e-01	2.658636e-01	2.593029e-01	2.526929e-01	-1.133643e-01	2.867897e-01	2.820345e-01	3.097087e-01	-1.474356e-03	-4.315882e-03	-9.568873e-03	2.522994e-01	1.830492e-01	2.256913e-01	2.033552e-01	-1.125077e-01	-1.377665e-01	1.353631e-01	1.264622e-01	2.025752e-01	2.206641e-01	2.184773e-01	2.110300e-01	3.091784e-02	6.124958e-02	-2.442923e-01	3.033936e-01	2.974722e-01	2.879352e-01	3.009898e-01	3.411299e-01	3.476120e-01	3.315879e-01	3.238509e-01	3.487770e-01	-4.062470e-01	-3.745907e-01	3.787543e-01	-1.684958e-01	2.568576e-01	2.756721e-01	2.849892e-01	2.944720e-01	-1.645064e-01	-1.690879e-01	-1.327514e-01	3.035630e-01	3.119994e-01	3.338631e-01	-1.212386e-01	-1.618702e-01	4.074418e-01	4.003790e-01	3.881722e-01	3.835089e-01	4.143158e-01	4.184542e-01	4.200356e-01	9.179510e-03	6.656159e-02	8.133380e-02	2.316779e-02	-3.066770e-02	-1.098620e-01	-6.612416e-02	-5.474060e-02	-1.779165e-02	-4.480250e-03	3.740962e-02	5.189186e-02	9.609730e-02	1.108390e-01	1.542919e-01	1.683760e-01	2.342205e-01	2.461653e-01	1.821959e-01	1.956437e-01	4.000431e-01	4.035101e-01	4.067775e-01	4.096886e-01	2.091320e-01	3.615332e-01	3.375435e-01	8.209325e-02	7.332250e-02	2.461563e-01	2.395225e-01	-1.135393e-01	3.052483e-01	4.187654e-01	4.163511e-01	3.661241e-01	3.725020e-01	3.402481e-01	3.464142e-01	-1.538462e-01	-1.438546e-01	1.954339e-01	1.872748e-01	-3.616863e-02	-4.094473e-01	3.454187e-01	-4.328017e-01	2.786673e-01	3.208062e-01	8.855720e-02	2.267598e-01	-5.646011e-03	-1.860081e-01	-1.751667e-01	-1.624783e-01	-1.326334e-01	-1.992103e-01	-2.923169e-01	-3.080149e-01	-2.122542e-01	-2.735817e-01	-1.581539e-01	-3.889705e-01	1.455815e-01	-1.086539e-02	-1.873550e-01	2.201729e-01	-2.216685e-01	-3.173001e-01	1.407536e-01	-3.843905e-01	1.322115e-01	-1.976223e-01	2.799555e-02	-2.783411e-01	3.005144e-01	3.663186e-02	1.492621e-01	-1.960203e-01	-2.382083e-01	-1.645281e-01	2.536256e-01	-1.564401e-01	1.403176e-01	-2.181944e-01	2.632440e-01	3.733783e-01	3.492061e-01	4.014799e-01	3.798535e-01	-3.101399e-01	-4.089007e-01	-2.771033e-01	1.552860e-01	-3.369586e-01	-8.019070e-02	1.232351e-01	-4.251056e-01	2.491087e-01	2.593176e-01	-1.194716e-01	2.153549e-02	-3.707905e-02	1.356673e-02	1.261844e-01	-1.681290e-01	-1.604422e-01	-9.190192e-02	-8.139055e-02	3.558525e-01	3.680406e-01	3.862409e-01	4.009820e-01	1.662868e-01	1.578562e-01	3.033645e-01	9.203040e-02	4.027107e-01	-1.632768e-01	-2.370547e-01	-5.461344e-02	-2.080571e-01	-3.531569e-01	-4.376511e-01	-8.224661e-02	-2.328995e-01	-2.277927e-01	-1.027981e-01	-1.760431e-01	2.073599e-01	2.646102e-01	3.160520e-01	5.430228e-02	4.544101e-02	1.974571e-02	1.210250e-02	7.386721e-02	9.935592e-02	5.307075e-03	-4.166979e-04	-4.072772e-02	-5.889619e-02	-1.620573e-01	1.061312e-01	9.733207e-02	-2.046259e-01	2.532217e-01	2.465198e-01	2.738951e-01	2.693560e-01	-4.729522e-02	-1.734304e-02	-2.688055e-02	2.209924e-01	2.360305e-01	2.199857e-01	2.129544e-01	-1.247879e-01	-1.449382e-01	1.238743e-01	1.150869e-01	1.666166e-01	1.863463e-01	2.044983e-01	2.057634e-01	1.982938e-01	-1.434754e-02	1.706647e-02	4.659922e-02	2.946312e-01	2.890971e-01	2.838021e-01	2.611978e-01	2.740912e-01	2.884193e-01	3.167586e-01	3.264021e-01	3.138250e-01	3.069618e-01	3.310433e-01	3.394866e-01	2.728011e-01	2.825969e-01	-1.630687e-01	2.917882e-01	3.003426e-01	3.084176e-01	3.231882e-01	-1.232464e-01	3.695167e-01	3.563230e-01	3.781372e-01	3.824384e-01	4.037403e-01	4.041068e-01	4.030786e-01	6.916053e-02	-1.128689e-01	-1.023574e-01	-7.077747e-02	-5.987602e-02	-4.873299e-02	-2.495307e-02	-1.227644e-02	5.714674e-04	2.718371e-02	4.088105e-02	5.501644e-02	8.351731e-02	9.772667e-02	1.120663e-01	1.541548e-01	2.326191e-01	2.435340e-01	1.678798e-01	1.812177e-01	1.944017e-01	3.896809e-01	3.927488e-01	3.955822e-01	3.980094e-01	3.998771e-01	3.180015e-01	2.899664e-01	8.009145e-02	7.152279e-02	6.296564e-02	2.399634e-01	2.333973e-01	2.536945e-01	2.090119e-01	3.979835e-01	3.938260e-01	3.879207e-01	3.622027e-01	3.298368e-01	3.361259e-01	3.424969e-01	-1.503902e-01	-1.425249e-01	-1.333553e-01	1.906585e-01	1.827292e-01	1.746422e-01	3.308720e-01	3.269103e-01	-4.014380e-01	1.291723e-01	-2.200132e-01	-1.668391e-01	2.161696e-01	-3.592263e-01	-2.165453e-01	-1.512185e-02	-2.270707e-02	-8.948262e-02	-1.923257e-01	2.580302e-01	-3.803505e-01	5.176567e-02	-2.997319e-01	-1.556036e-01	-2.055781e-01	-2.617704e-01	1.401260e-01	-2.037393e-01	-2.783925e-01	-2.555673e-01	7.940650e-02	2.332322e-01	-1.589693e-01	2.662673e-01	1.071249e-01	2.526470e-01	3.033101e-01	-1.727799e-01	2.178071e-01	-1.520613e-01	-1.471848e-01	1.616474e-02	3.882868e-01	3.667215e-01	-1.758338e-01	3.382732e-01	2.821524e-02	-2.495784e-01	-1.812212e-01	-2.035465e-01	-1.150917e-01	-1.944731e-01	1.388855e-01	-3.311622e-01	1.295554e-01	1.224213e-01	-2.300789e-01	-1.863413e-01	-2.658755e-01	-3.244779e-02	2.504249e-01	3.505451e-01	-3.137612e-01	-1.072516e-02	1.251738e-01	-8.607880e-02	3.442807e-01	3.564055e-01	3.617934e-01	1.558473e-01	1.464242e-01	-1.628319e-01	-7.526877e-02	-1.405973e-01	-3.589302e-01	-4.158369e-01	-1.232550e-01	-9.612810e-02	-1.637456e-01	2.038504e-01	4.535450e-02	3.665926e-02	1.986901e-02	1.209678e-02	5.882956e-02	8.368381e-02	4.723009e-03	-1.706094e-03	-8.048589e-03	-5.950422e-02	-7.719260e-02	9.690179e-02	8.728121e-02	-1.951031e-01	2.475853e-01	2.414153e-01	2.618031e-01	2.572773e-01	-3.211361e-02	-4.423916e-02	2.042505e-01	2.198085e-01	2.082068e-01	-1.332132e-01	-1.496755e-01	1.140762e-01	1.044276e-01	1.501405e-01	1.700848e-01	1.880208e-01	2.023463e-01	1.940155e-01	-5.736532e-02	-2.602509e-02	4.367398e-03	3.250511e-02	2.858683e-01	2.808265e-01	2.759884e-01	2.712179e-01	2.463549e-01	2.605843e-01	2.756110e-01	2.901842e-01	3.023267e-01	2.913552e-01	2.972017e-01	3.102976e-01	2.687001e-01	-1.602306e-01	-1.581324e-01	2.781131e-01	2.866660e-01	2.949340e-01	3.028638e-01	3.104514e-01	3.216362e-01	3.004160e-01	3.711022e-01	3.749760e-01	3.882283e-01	3.876528e-01	3.849556e-01	3.810606e-01	-1.154380e-01	-1.058256e-01	-9.608537e-02	-7.597582e-02	-6.549631e-02	-5.490964e-02	-4.341831e-02	-2.132219e-02	-7.720580e-03	3.991885e-03	3.003651e-02	4.285555e-02	5.733203e-02	7.018420e-02	8.492961e-02	9.766734e-02	1.126384e-01	2.386895e-01	2.300631e-01	1.521969e-01	1.669523e-01	1.786785e-01	1.932790e-01	3.782548e-01	3.810721e-01	3.835025e-01	3.856975e-01	3.868930e-01	3.879648e-01	2.749062e-01	2.442374e-01	7.085670e-02	6.200319e-02	5.385386e-02	2.344414e-01	2.294617e-01	2.216872e-01	2.062400e-01	1.605741e-01	1.092456e-01	3.762918e-01	3.704630e-01	3.625274e-01	3.516470e-01	3.175197e-01	3.242843e-01	3.306883e-01	3.376268e-01	-1.246684e-01	-1.407712e-01	-1.332884e-01	1.876936e-01	1.789775e-01	1.721850e-01	1.630897e-01	3.136077e-01	3.127607e-01	3.087978e-01	-2.216936e-01	-2.107162e-01	-1.084728e-01	-3.017443e-01	-2.531960e-01	1.159932e-01	1.134951e-01	-2.830674e-01	-1.635377e-01	-3.355609e-01	-1.259918e-01	2.179719e-01	3.717177e-01	-3.582764e-02	-1.978268e-01	-3.350141e-01	-4.076491e-01	-4.177419e-01	-3.873370e-01	-3.553898e-01	-1.974820e-01	3.375110e-01	-1.242971e-01	-1.761702e-01	-3.607580e-02	7.417548e-02	2.539429e-01	-1.950784e-01	-1.175349e-01	-1.384553e-01	2.189122e-01	2.375369e-01	1.302681e-01	2.499537e-02	2.518745e-01	2.073486e-01	3.329721e-01	-1.853866e-01	9.197746e-02	-2.783866e-01	-1.693483e-01	-4.049472e-01	-2.446829e-01	-2.291101e-01	-2.600340e-02	-9.607542e-02	-3.729114e-01	1.843299e-02	-3.105833e-01	-1.483881e-01	-2.473059e-01	-2.759488e-01	-2.613657e-01	-1.907228e-01	2.835015e-01	2.868502e-01	-1.764873e-01	1.998717e-01	-1.440167e-01	-1.651124e-01	1.312930e-01	-2.930364e-01	3.450156e-01	3.488635e-01	3.556779e-01	1.479732e-01	-9.076306e-02	-1.447608e-01	-3.895970e-01	-1.581964e-01	3.576660e-02	2.864885e-02	1.954555e-02	1.199810e-02	6.899377e-02	4.454328e-02	3.442302e-03	-2.960579e-03	-9.971443e-03	-1.891090e-02	-7.613659e-02	-9.220431e-02	8.995331e-02	-1.854329e-01	2.421355e-01	2.358403e-01	2.511730e-01	2.451844e-01	-4.792511e-02	-6.105952e-02	1.893575e-01	2.073555e-01	-1.392870e-01	-1.530064e-01	1.028329e-01	1.359742e-01	1.582462e-01	1.712072e-01	1.936144e-01	-6.635067e-02	-3.639011e-02	-7.697897e-03	1.907926e-02	2.767613e-01	2.736784e-01	2.677354e-01	2.649842e-01	2.591867e-01	2.351633e-01	2.472968e-01	2.656339e-01	2.763673e-01	2.903702e-01	-1.590752e-01	-1.554761e-01	-1.521024e-01	2.640964e-01	2.711708e-01	2.813726e-01	2.878647e-01	2.975819e-01	2.863168e-01	2.611679e-01	3.584961e-01	3.642282e-01	3.731258e-01	3.665435e-01	3.602446e-01	-1.083375e-01	-9.957001e-02	-8.993505e-02	-8.051545e-02	-7.049406e-02	-6.038038e-02	-4.978550e-02	-3.384416e-02	-1.698075e-02	1.330793e-03	5.111417e-02	7.741041e-02	1.038646e-01	1.563884e-01	1.812185e-01	3.656960e-01	3.702704e-01	3.705962e-01	3.744938e-01	3.730793e-01	3.733695e-01	3.734078e-01	2.321104e-01	1.996837e-01	6.064451e-02	5.323370e-02	4.506423e-02	2.286820e-01	2.199899e-01	1.622656e-01	1.177388e-01	6.907433e-02	3.535314e-01	3.458518e-01	3.359529e-01	3.221046e-01	3.056580e-01	3.035388e-01	3.124718e-01	3.172270e-01	3.249256e-01	-1.320901e-01	-1.246481e-01	1.792242e-01	1.640501e-01	2.937767e-01	2.991180e-01	2.951256e-01	2.938384e-01	-2.216364e-01	-2.672982e-01	-2.668075e-01	-3.605948e-01	-2.510235e-01	-1.309627e-01	-1.787767e-01	-2.723270e-01	-1.456052e-01	-2.012679e-01	-1.553935e-01	-3.615356e-01	-1.280170e-01	-2.404420e-01	3.217238e-01	-2.786215e-01	-1.019516e-01	-2.330924e-01	-2.133736e-01	-1.176387e-01	2.032818e-01	-1.709110e-01	2.700396e-01	-5.007785e-02	-3.459422e-02	1.620595e-01	1.003662e-01	2.125165e-01	-3.315444e-01	2.399431e-01	5.516838e-02	7.696853e-02	3.507284e-01	-1.586931e-01	-1.132232e-01	-3.094477e-01	-5.517309e-02	-1.037079e-01	-2.864802e-01	-1.642156e-01	-4.035127e-01	-3.462293e-01	-1.666170e-01	1.015469e-01	2.322206e-01	2.512079e-01	-1.874055e-01	-2.615606e-01	-2.162587e-01	-3.906993e-01	-2.378862e-01	-1.011401e-01	-3.130651e-01	-2.909616e-01	1.971981e-01	-1.561217e-01	-1.412342e-01	-1.359800e-01	2.150038e-01	3.328361e-01	3.430927e-01	1.150276e-01	-1.471057e-01	-1.913311e-01	-1.858464e-01	2.230833e-02	6.399350e-03	3.131229e-02	-8.492278e-03	-2.142763e-02	-8.961096e-02	-1.768838e-01	2.318584e-01	-6.272637e-02	-7.570494e-02	1.837391e-01	-1.435286e-01	8.869136e-02	7.454263e-02	1.328547e-01	1.561699e-01	1.904073e-01	-7.320705e-02	-4.386393e-02	-1.530942e-02	5.995065e-03	2.616397e-01	2.541276e-01	2.459695e-01	2.427809e-01	2.678305e-01	-1.540284e-01	-1.498017e-01	2.686431e-01	2.851326e-01	2.240752e-01	3.511897e-01	3.387860e-01	-1.088844e-02	-9.728428e-02	-7.925308e-02	-6.054003e-02	-4.328373e-02	-2.728427e-02	8.546665e-03	3.199103e-02	5.687907e-02	8.190744e-02	1.070975e-01	1.323240e-01	1.567812e-01	1.783729e-01	3.565264e-01	3.590352e-01	3.571409e-01	3.596983e-01	3.545427e-01	1.909537e-01	1.579660e-01	5.997252e-02	4.710594e-02	3.463021e-02	2.228857e-01	2.141503e-01	1.222681e-01	8.120390e-02	3.572989e-02	-9.194665e-03	3.290090e-01	3.190329e-01	3.071652e-01	2.912295e-01	2.703809e-01	2.571959e-01	2.998153e-01	3.098282e-01	-1.310644e-01	-1.239388e-01	1.765595e-01	1.467232e-01	1.305781e-01	2.793083e-01	2.777505e-01	-1.941114e-01	-2.249893e-01	-2.199741e-01	-2.249880e-01	-3.713202e-02	-1.810939e-01	-2.632987e-01	-1.954041e-01	-2.725550e-01	-2.049729e-01	-2.066117e-01	-1.837994e-01	-1.481122e-01	-2.854553e-01	-3.342294e-01	-1.482415e-01	8.738776e-02	3.030451e-01	-2.079611e-01	-2.160771e-02	-1.531576e-01	2.036287e-01	-1.098532e-01	-2.513026e-01	2.309578e-01	-6.334251e-02	1.454812e-01	1.871826e-01	-1.241097e-01	-1.358152e-01	-1.289606e-01	-1.041502e-01	-2.764388e-01	-1.648593e-01	-1.721971e-01	-1.389476e-01	3.237287e-01	1.761242e-01	1.145701e-01	2.192235e-02	-2.559048e-01	-2.648622e-01	-3.764984e-01	-1.120030e-01	-1.436148e-01	-2.514071e-01	-1.469559e-01	-2.534146e-01	-2.282487e-01	1.988447e-01	-3.219199e-01	3.990313e-02	6.290577e-02	-1.586068e-01	-3.338071e-01	-9.975038e-02	-1.580568e-01	1.003500e-01	-3.676933e-01	-2.392854e-01	-4.767190e-03	-3.086158e-01	-2.917490e-01	2.116581e-01	-1.797577e-01	-1.337093e-01	1.942469e-01	3.137827e-01	1.563628e-01	-1.851173e-01	-2.201190e-01	7.854495e-03	-7.496108e-03	-3.540320e-02	-5.001289e-02	-1.694674e-01	2.239837e-01	-7.519642e-02	-8.739419e-02	2.380234e-01	4.615301e-02	3.404830e-02	7.422692e-02	9.029611e-02	1.184792e-01	1.435259e-01	-7.613758e-02	2.510932e-01	2.446508e-01	1.713835e-01	2.017907e-01	1.300420e-01	-1.531473e-01	2.292470e-01	2.467433e-01	3.167146e-01	-1.020819e-01	-8.648847e-02	-2.152514e-02	-6.944058e-02	-5.268042e-02	-3.688788e-02	-4.653777e-03	1.552106e-02	3.833906e-02	6.210178e-02	8.607001e-02	1.102514e-01	1.341730e-01	3.322604e-01	3.380533e-01	3.403283e-01	3.394292e-01	3.379917e-01	3.281039e-01	1.542888e-01	1.196755e-01	6.002673e-02	2.198730e-02	2.167435e-01	2.085925e-01	8.678843e-02	5.047394e-02	9.581594e-03	-3.108208e-02	-7.024692e-02	3.025868e-01	2.893104e-01	2.7