# vtk DataFile Version 3.0
vtk output
ASCII
DATASET UNSTRUCTURED_GRID
POINTS 200 float
9.997500e-01	-3.633243e-05	0.0	9.990000e-01	-1.454723e-04	0.0	9.977600e-01	-3.275073e-04	0.0	9.960200e-01	-5.899270e-04	0.0	9.937800e-01	-9.470942e-04	0.0	9.910500e-01	-1.422095e-03	0.0	9.878400e-01	-2.045514e-03	0.0	9.841300e-01	-2.853669e-03	0.0	9.799500e-01	-3.858874e-03	0.0	9.752800e-01	-5.058290e-03	0.0	9.701500e-01	-6.405099e-03	0.0	9.645400e-01	-7.840828e-03	0.0	9.584700e-01	-9.290140e-03	0.0	9.519400e-01	-1.069768e-02	0.0	9.449600e-01	-1.203550e-02	0.0	9.375400e-01	-1.330799e-02	0.0	9.296900e-01	-1.454248e-02	0.0	9.214000e-01	-1.577722e-02	0.0	9.127000e-01	-1.703949e-02	0.0	9.035800e-01	-1.835031e-02	0.0	8.940600e-01	-1.971332e-02	0.0	8.841500e-01	-2.112392e-02	0.0	8.738500e-01	-2.257390e-02	0.0	8.631800e-01	-2.405116e-02	0.0	8.521600e-01	-2.554505e-02	0.0	8.407700e-01	-2.705239e-02	0.0	8.290500e-01	-2.856396e-02	0.0	8.170100e-01	-3.007590e-02	0.0	8.046400e-01	-3.158739e-02	0.0	7.919700e-01	-3.309279e-02	0.0	7.790100e-01	-3.458882e-02	0.0	7.657800e-01	-3.607087e-02	0.0	7.522800e-01	-3.753639e-02	0.0	7.385200e-01	-3.898152e-02	0.0	7.245300e-01	-4.040040e-02	0.0	7.103200e-01	-4.178939e-02	0.0	6.958900e-01	-4.314594e-02	0.0	6.812700e-01	-4.446485e-02	0.0	6.664700e-01	-4.574311e-02	0.0	6.515000e-01	-4.697796e-02	0.0	6.363800e-01	-4.816608e-02	0.0	6.211300e-01	-4.930456e-02	0.0	6.057600e-01	-5.039154e-02	0.0	5.902800e-01	-5.142539e-02	0.0	5.747100e-01	-5.240406e-02	0.0	5.590600e-01	-5.332638e-02	0.0	5.433600e-01	-5.419027e-02	0.0	5.276100e-01	-5.499552e-02	0.0	5.118400e-01	-5.574050e-02	0.0	4.960500e-01	-5.642515e-02	0.0	4.802700e-01	-5.704812e-02	0.0	4.645100e-01	-5.760903e-02	0.0	4.487800e-01	-5.810740e-02	0.0	4.331100e-01	-5.854215e-02	0.0	4.175000e-01	-5.891305e-02	0.0	4.019700e-01	-5.921922e-02	0.0	3.865400e-01	-5.945976e-02	0.0	3.712300e-01	-5.963378e-02	0.0	3.560400e-01	-5.974050e-02	0.0	3.409900e-01	-5.977875e-02	0.0	3.261100e-01	-5.974744e-02	0.0	3.114000e-01	-5.964541e-02	0.0	2.968700e-01	-5.947130e-02	0.0	2.825500e-01	-5.922401e-02	0.0	2.684500e-01	-5.890227e-02	0.0	2.545700e-01	-5.850439e-02	0.0	2.409400e-01	-5.802951e-02	0.0	2.275700e-01	-5.747634e-02	0.0	2.144700e-01	-5.684361e-02	0.0	2.016600e-01	-5.613062e-02	0.0	1.891400e-01	-5.533570e-02	0.0	1.769300e-01	-5.445842e-02	0.0	1.650400e-01	-5.349796e-02	0.0	1.534900e-01	-5.245453e-02	0.0	1.422900e-01	-5.132786e-02	0.0	1.314400e-01	-5.011669e-02	0.0	1.209500e-01	-4.882076e-02	0.0	1.108500e-01	-4.744286e-02	0.0	1.011300e-01	-4.598083e-02	0.0	9.181000e-02	-4.443677e-02	0.0	8.290000e-02	-4.281181e-02	0.0	7.440000e-02	-4.110530e-02	0.0	6.633000e-02	-3.932078e-02	0.0	5.869000e-02	-3.745796e-02	0.0	5.149000e-02	-3.551885e-02	0.0	4.474000e-02	-3.350598e-02	0.0	3.844000e-02	-3.141903e-02	0.0	3.260000e-02	-2.926086e-02	0.0	2.723000e-02	-2.703515e-02	0.0	2.232000e-02	-2.473687e-02	0.0	1.790000e-02	-2.238001e-02	0.0	1.395000e-02	-1.995376e-02	0.0	1.049000e-02	-1.746938e-02	0.0	7.520000e-03	-1.492778e-02	0.0	5.040000e-03	-1.232913e-02	0.0	3.050000e-03	-9.671895e-03	0.0	1.560000e-03	-6.971319e-03	0.0	5.600000e-04	-4.206243e-03	0.0	6.000000e-05	-1.384014e-03	0.0	0.000000e+00	0.000000e+00	0.0	6.000000e-05	1.263715e-03	0.0	5.600000e-04	3.624949e-03	0.0	1.560000e-03	5.788668e-03	0.0	3.050000e-03	7.806632e-03	0.0	5.040000e-03	9.723865e-03	0.0	7.520000e-03	1.154812e-02	0.0	1.049000e-02	1.329439e-02	0.0	1.395000e-02	1.497318e-02	0.0	1.790000e-02	1.659241e-02	0.0	2.232000e-02	1.815170e-02	0.0	2.723000e-02	1.966419e-02	0.0	3.260000e-02	2.112576e-02	0.0	3.844000e-02	2.254411e-02	0.0	4.474000e-02	2.392058e-02	0.0	5.149000e-02	2.525657e-02	0.0	5.869000e-02	2.655508e-02	0.0	6.633000e-02	2.781686e-02	0.0	7.440000e-02	2.904256e-02	0.0	8.290000e-02	3.023409e-02	0.0	9.181000e-02	3.139036e-02	0.0	1.011300e-01	3.251287e-02	0.0	1.108500e-01	3.360159e-02	0.0	1.209500e-01	3.465539e-02	0.0	1.314400e-01	3.567613e-02	0.0	1.422900e-01	3.666151e-02	0.0	1.534900e-01	3.761128e-02	0.0	1.650400e-01	3.852579e-02	0.0	1.769300e-01	3.940436e-02	0.0	1.891400e-01	4.024553e-02	0.0	2.016600e-01	4.104850e-02	0.0	2.144700e-01	4.181178e-02	0.0	2.275700e-01	4.253494e-02	0.0	2.409400e-01	4.321630e-02	0.0	2.545700e-01	4.385459e-02	0.0	2.684500e-01	4.444842e-02	0.0	2.825500e-01	4.499547e-02	0.0	2.968700e-01	4.549457e-02	0.0	3.114000e-01	4.594395e-02	0.0	3.261100e-01	4.634114e-02	0.0	3.409900e-01	4.668426e-02	0.0	3.560400e-01	4.697146e-02	0.0	3.712300e-01	4.720014e-02	0.0	3.865400e-01	4.736803e-02	0.0	4.019700e-01	4.747296e-02	0.0	4.175000e-01	4.751249e-02	0.0	4.331100e-01	4.748426e-02	0.0	4.487800e-01	4.738604e-02	0.0	4.645100e-01	4.721548e-02	0.0	4.802700e-01	4.697062e-02	0.0	4.960500e-01	4.664941e-02	0.0	5.118400e-01	4.624996e-02	0.0	5.276100e-01	4.577110e-02	0.0	5.433600e-01	4.521116e-02	0.0	5.590600e-01	4.456977e-02	0.0	5.747100e-01	4.384581e-02	0.0	5.902800e-01	4.303992e-02	0.0	6.057600e-01	4.215238e-02	0.0	6.211300e-01	4.118455e-02	0.0	6.363800e-01	4.013785e-02	0.0	6.515000e-01	3.901421e-02	0.0	6.664700e-01	3.781699e-02	0.0	6.812700e-01	3.655041e-02	0.0	6.958900e-01	3.521861e-02	0.0	7.103200e-01	3.382640e-02	0.0	7.245300e-01	3.238135e-02	0.0	7.385200e-01	3.088879e-02	0.0	7.522800e-01	2.935567e-02	0.0	7.657800e-01	2.779190e-02	0.0	7.790100e-01	2.620584e-02	0.0	7.919700e-01	2.460514e-02	0.0	8.046400e-01	2.300032e-02	0.0	8.170100e-01	2.140104e-02	0.0	8.290500e-01	1.981962e-02	0.0	8.407700e-01	1.826288e-02	0.0	8.521600e-01	1.673924e-02	0.0	8.631800e-01	1.525956e-02	0.0	8.738500e-01	1.382431e-02	0.0	8.841500e-01	1.243671e-02	0.0	8.940600e-01	1.109797e-02	0.0	9.035800e-01	9.806396e-03	0.0	9.127000e-01	8.564698e-03	0.0	9.214000e-01	7.383819e-03	0.0	9.296900e-01	6.280321e-03	0.0	9.375400e-01	5.285166e-03	0.0	9.449600e-01	4.427495e-03	0.0	9.519400e-01	3.732223e-03	0.0	9.584700e-01	3.205467e-03	0.0	9.645400e-01	2.827052e-03	0.0	9.701500e-01	2.552121e-03	0.0	9.752800e-01	2.324878e-03	0.0	9.799500e-01	2.093088e-03	0.0	9.841300e-01	1.827039e-03	0.0	9.878400e-01	1.519907e-03	0.0	9.910500e-01	1.190204e-03	0.0	9.937800e-01	8.630226e-04	0.0	9.960200e-01	5.666265e-04	0.0	9.977600e-01	3.231883e-04	0.0	9.990000e-01	1.450783e-04	0.0	9.997500e-01	3.632619e-05	0.0	1.000000e+00	0.000000e+00	0.0	
CELLS 200	600
2	149	150	2	150	151	2	151	152	2	152	153	2	153	154	2	154	155	2	155	156	2	156	157	2	157	158	2	158	159	2	159	160	2	160	161	2	161	162	2	162	163	2	163	164	2	164	165	2	165	166	2	166	167	2	167	168	2	168	169	2	169	170	2	170	171	2	171	172	2	172	173	2	173	174	2	174	175	2	175	176	2	176	177	2	177	178	2	178	179	2	179	180	2	180	181	2	181	182	2	31	32	2	32	33	2	33	34	2	34	35	2	35	36	2	36	37	2	37	38	2	38	39	2	39	40	2	40	41	2	41	42	2	42	43	2	43	44	2	44	45	2	45	46	2	46	47	2	47	48	2	48	49	2	49	50	2	50	51	2	51	52	2	52	53	2	53	54	2	54	55	2	55	56	2	56	57	2	57	58	2	58	59	2	59	60	2	60	61	2	61	62	2	62	63	2	63	64	2	64	65	2	65	66	2	66	67	2	67	68	2	68	69	2	69	70	2	70	71	2	71	72	2	72	73	2	73	74	2	74	75	2	75	76	2	76	77	2	77	78	2	78	79	2	79	80	2	80	81	2	81	82	2	82	83	2	83	84	2	113	114	2	114	115	2	115	116	2	116	117	2	117	118	2	118	119	2	119	120	2	120	121	2	121	122	2	122	123	2	123	124	2	124	125	2	125	126	2	126	127	2	127	128	2	128	129	2	129	130	2	130	131	2	131	132	2	132	133	2	133	134	2	134	135	2	135	136	2	136	137	2	137	138	2	138	139	2	139	140	2	140	141	2	141	142	2	142	143	2	143	144	2	144	145	2	145	146	2	146	147	2	147	148	2	148	149	2	84	85	2	85	86	2	86	87	2	87	88	2	88	89	2	89	90	2	90	91	2	91	92	2	92	93	2	93	94	2	94	95	2	95	96	2	96	97	2	97	98	2	98	99	2	99	100	2	100	101	2	101	102	2	102	103	2	103	104	2	104	105	2	105	106	2	106	107	2	107	108	2	108	109	2	109	110	2	110	111	2	111	112	2	112	113	2	199	0	2	0	1	2	1	2	2	2	3	2	3	4	2	4	5	2	5	6	2	6	7	2	182	183	2	183	184	2	184	185	2	185	186	2	186	187	2	187	188	2	188	189	2	189	190	2	190	191	2	191	192	2	192	193	2	193	194	2	194	195	2	195	196	2	196	197	2	197	198	2	198	199	2	7	8	2	8	9	2	9	10	2	10	11	2	11	12	2	12	13	2	13	14	2	14	15	2	15	16	2	16	17	2	17	18	2	18	19	2	19	20	2	20	21	2	21	22	2	22	23	2	23	24	2	24	25	2	25	26	2	26	27	2	27	28	2	28	29	2	29	30	2	30	31	
CELL_TYPES 200
3	3	3	3	3	3	3	3	3	3	3	3	3	3	3	3	3	3	3	3	3	3	3	3	3	3	3	3	3	3	3	3	3	3	3	3	3	3	3	3	3	3	3	3	3	3	3	3	3	3	3	3	3	3	3	3	3	3	3	3	3	3	3	3	3	3	3	3	3	3	3	3	3	3	3	3	3	3	3	3	3	3	3	3	3	3	3	3	3	3	3	3	3	3	3	3	3	3	3	3	3	3	3	3	3	3	3	3	3	3	3	3	3	3	3	3	3	3	3	3	3	3	3	3	3	3	3	3	3	3	3	3	3	3	3	3	3	3	3	3	3	3	3	3	3	3	3	3	3	3	3	3	3	3	3	3	3	3	3	3	3	3	3	3	3	3	3	3	3	3	3	3	3	3	3	3	3	3	3	3	3	3	3	3	3	3	3	3	3	3	3	3	3	3	3	3	3	3	3	3	
POINT_DATA 200

SCALARS Conservative_1 float 1
LOOKUP_TABLE default
-1.709281e-01	-2.155513e-01	-2.125633e-01	-2.103582e-01	-2.104163e-01	-2.078085e-01	-2.010062e-01	-1.877192e-01	-1.662500e-01	-1.361057e-01	-9.886980e-02	-5.842344e-02	-2.097377e-02	6.948776e-03	2.166527e-02	2.466059e-02	2.140122e-02	1.744120e-02	1.624526e-02	1.873209e-02	2.455740e-02	3.274705e-02	4.220249e-02	5.214779e-02	6.199293e-02	7.155568e-02	8.078207e-02	8.975905e-02	9.868215e-02	1.076139e-01	1.166775e-01	1.258650e-01	1.351385e-01	1.444298e-01	1.536759e-01	1.628327e-01	1.719235e-01	1.809878e-01	1.899791e-01	1.988280e-01	2.074602e-01	2.158472e-01	2.239623e-01	2.318168e-01	2.394100e-01	2.467590e-01	2.538758e-01	2.607868e-01	2.675858e-01	2.743287e-01	2.810401e-01	2.876284e-01	2.938115e-01	2.993513e-01	3.043981e-01	3.094222e-01	3.148915e-01	3.210054e-01	3.277534e-01	3.350022e-01	3.427754e-01	3.510801e-01	3.598545e-01	3.685808e-01	3.761888e-01	3.810323e-01	3.814556e-01	3.764029e-01	3.663351e-01	3.531760e-01	3.396335e-01	3.276694e-01	3.175448e-01	3.078853e-01	2.968833e-01	2.837669e-01	2.688049e-01	2.525282e-01	2.349488e-01	2.159178e-01	1.953054e-01	1.729957e-01	1.488196e-01	1.225463e-01	9.389853e-02	6.264541e-02	2.839884e-02	-9.109390e-03	-5.036758e-02	-9.559453e-02	-1.451868e-01	-1.989046e-01	-2.567294e-01	-3.162685e-01	-3.758905e-01	-4.279443e-01	-4.693411e-01	-4.965449e-01	-4.931306e-01	-4.650665e-01	-4.267565e-01	-3.397339e-01	-1.988956e-01	-4.694664e-02	9.235109e-02	2.073244e-01	2.936253e-01	3.555155e-01	3.984882e-01	4.277789e-01	4.470627e-01	4.586432e-01	4.647838e-01	4.672404e-01	4.673804e-01	4.664257e-01	4.649377e-01	4.630298e-01	4.608387e-01	4.584741e-01	4.558264e-01	4.524867e-01	4.483730e-01	4.439533e-01	4.397227e-01	4.358226e-01	4.320050e-01	4.280002e-01	4.237784e-01	4.194158e-01	4.150094e-01	4.105415e-01	4.059353e-01	4.011576e-01	3.960594e-01	3.905022e-01	3.843172e-01	3.776284e-01	3.707475e-01	3.641100e-01	3.578135e-01	3.516465e-01	3.453271e-01	3.386985e-01	3.316301e-01	3.239533e-01	3.155250e-01	3.064986e-01	2.973455e-01	2.883337e-01	2.791911e-01	2.693996e-01	2.584884e-01	2.465217e-01	2.338667e-01	2.207351e-01	2.072109e-01	1.932769e-01	1.789614e-01	1.642537e-01	1.492317e-01	1.339463e-01	1.184237e-01	1.027540e-01	8.694923e-02	7.111474e-02	5.529332e-02	3.961850e-02	2.412583e-02	8.914745e-03	-5.990891e-03	-2.047233e-02	-3.444311e-02	-4.777256e-02	-6.045914e-02	-7.234255e-02	-8.366361e-02	-9.464937e-02	-1.057634e-01	-1.175446e-01	-1.304467e-01	-1.444997e-01	-1.591264e-01	-1.729856e-01	-1.843502e-01	-1.914362e-01	-1.929514e-01	-1.885894e-01	-1.795192e-01	-1.687137e-01	-1.605742e-01	-1.595543e-01	-1.678740e-01	-1.847310e-01	-2.076045e-01	-2.346506e-01	-2.600036e-01	-2.846900e-01	-3.865803e-01	-2.907981e-01	
SCALARS Conservative_2 float 1
LOOKUP_TABLE default
1.034993e-01	2.225885e-01	2.417031e-01	2.503614e-01	2.584070e-01	2.608260e-01	2.566105e-01	2.428717e-01	2.175078e-01	1.799789e-01	1.326620e-01	8.084584e-02	3.249234e-02	-4.243532e-03	-2.470610e-02	-3.039132e-02	-2.766299e-02	-2.331075e-02	-2.173105e-02	-2.429508e-02	-3.075531e-02	-4.002827e-02	-5.084508e-02	-6.226017e-02	-7.357664e-02	-8.454748e-02	-9.510474e-02	-1.053416e-01	-1.154652e-01	-1.255609e-01	-1.357521e-01	-1.460384e-01	-1.563787e-01	-1.667029e-01	-1.769372e-01	-1.870346e-01	-1.970186e-01	-2.069315e-01	-2.167252e-01	-2.263243e-01	-2.356548e-01	-2.446856e-01	-2.533929e-01	-2.617878e-01	-2.698750e-01	-2.776706e-01	-2.851933e-01	-2.924714e-01	-2.995984e-01	-3.066337e-01	-3.136088e-01	-3.204285e-01	-3.268107e-01	-3.325199e-01	-3.377063e-01	-3.428434e-01	-3.483952e-01	-3.545520e-01	-3.612842e-01	-3.684597e-01	-3.760917e-01	-3.841964e-01	-3.927045e-01	-4.011158e-01	-4.083659e-01	-4.128440e-01	-4.129067e-01	-4.075181e-01	-3.970976e-01	-3.835278e-01	-3.694338e-01	-3.567341e-01	-3.456511e-01	-3.348042e-01	-3.223740e-01	-3.075359e-01	-2.905036e-01	-2.717258e-01	-2.511383e-01	-2.284945e-01	-2.035438e-01	-1.760277e-01	-1.455932e-01	-1.117838e-01	-7.404910e-02	-3.179421e-02	1.581999e-02	6.960837e-02	1.307728e-01	2.003826e-01	2.798894e-01	3.699543e-01	4.720282e-01	5.831994e-01	7.018630e-01	8.173164e-01	9.179362e-01	9.833273e-01	1.008446e+00	9.925133e-01	9.354952e-01	8.120700e-01	5.864836e-01	3.509394e-01	1.351470e-01	-3.795780e-02	-1.665474e-01	-2.593211e-01	-3.250431e-01	-3.713117e-01	-4.035184e-01	-4.251297e-01	-4.391975e-01	-4.479866e-01	-4.532262e-01	-4.563862e-01	-4.582498e-01	-4.591138e-01	-4.592304e-01	-4.588163e-01	-4.578362e-01	-4.559718e-01	-4.531790e-01	-4.499232e-01	-4.467021e-01	-4.436779e-01	-4.406388e-01	-4.373459e-01	-4.337711e-01	-4.299986e-01	-4.261285e-01	-4.221457e-01	-4.179897e-01	-4.136205e-01	-4.089088e-01	-4.037132e-01	-3.978801e-01	-3.915187e-01	-3.849383e-01	-3.785563e-01	-3.724756e-01	-3.664868e-01	-3.603154e-01	-3.538014e-01	-3.468135e-01	-3.391818e-01	-3.307508e-01	-3.216655e-01	-3.123825e-01	-3.031668e-01	-2.937563e-01	-2.836132e-01	-2.722626e-01	-2.597465e-01	-2.464310e-01	-2.325163e-01	-2.180783e-01	-2.030998e-01	-1.875845e-01	-1.715385e-01	-1.550126e-01	-1.380701e-01	-1.207236e-01	-1.030745e-01	-8.512785e-02	-6.700390e-02	-4.874547e-02	-3.050858e-02	-1.233448e-02	5.653507e-03	2.342124e-02	4.081763e-02	5.773216e-02	7.400879e-02	8.960941e-02	1.043830e-01	1.185962e-01	1.325604e-01	1.468652e-01	1.622044e-01	1.791435e-01	1.976935e-01	2.170443e-01	2.353690e-01	2.502992e-01	2.594060e-01	2.609736e-01	2.547206e-01	2.424701e-01	2.284803e-01	2.187824e-01	2.192346e-01	2.325514e-01	2.576608e-01	2.912466e-01	3.310688e-01	3.676238e-01	4.021810e-01	5.571289e-01	2.870597e-01	
SCALARS Conservative_3 float 1
LOOKUP_TABLE default
-1.189505e-01	-9.737881e-02	-9.776361e-02	-9.821514e-02	-1.043534e-01	-1.161447e-01	-1.329138e-01	-1.531185e-01	-1.741566e-01	-1.925224e-01	-2.044475e-01	-2.069051e-01	-1.990048e-01	-1.831319e-01	-1.642110e-01	-1.472954e-01	-1.353539e-01	-1.286287e-01	-1.258744e-01	-1.253331e-01	-1.255629e-01	-1.256357e-01	-1.250814e-01	-1.238741e-01	-1.221012e-01	-1.199803e-01	-1.176485e-01	-1.151914e-01	-1.126786e-01	-1.100815e-01	-1.074130e-01	-1.046379e-01	-1.017316e-01	-9.866936e-02	-9.543968e-02	-9.203964e-02	-8.848451e-02	-8.478043e-02	-8.093679e-02	-7.696345e-02	-7.286791e-02	-6.866409e-02	-6.436216e-02	-5.997515e-02	-5.551192e-02	-5.098242e-02	-4.639594e-02	-4.174629e-02	-3.705461e-02	-3.231459e-02	-2.750900e-02	-2.260660e-02	-1.759728e-02	-1.248243e-02	-7.267956e-03	-1.930607e-03	3.559483e-03	9.249483e-03	1.516693e-02	2.136507e-02	2.787540e-02	3.475811e-02	4.207361e-02	4.986924e-02	5.817098e-02	6.691456e-02	7.598269e-02	8.522591e-02	9.457128e-02	1.041388e-01	1.141765e-01	1.249682e-01	1.366417e-01	1.490651e-01	1.620205e-01	1.753958e-01	1.892918e-01	2.038796e-01	2.191722e-01	2.351616e-01	2.518642e-01	2.692734e-01	2.874053e-01	3.061782e-01	3.254860e-01	3.451757e-01	3.649474e-01	3.843198e-01	4.025024e-01	4.183035e-01	4.299294e-01	4.344091e-01	4.278319e-01	4.048493e-01	3.584757e-01	2.816723e-01	1.712902e-01	4.131885e-02	-1.031027e-01	-2.017254e-01	-2.940508e-01	-4.639495e-01	-6.181360e-01	-6.826357e-01	-6.834754e-01	-6.469162e-01	-5.925857e-01	-5.339434e-01	-4.780268e-01	-4.273076e-01	-3.824232e-01	-3.429743e-01	-3.084367e-01	-2.782524e-01	-2.518941e-01	-2.288498e-01	-2.086037e-01	-1.906570e-01	-1.746797e-01	-1.603506e-01	-1.473713e-01	-1.354657e-01	-1.244691e-01	-1.143488e-01	-1.050440e-01	-9.642872e-02	-8.836681e-02	-8.073380e-02	-7.348128e-02	-6.658352e-02	-5.998513e-02	-5.364511e-02	-4.750666e-02	-4.153387e-02	-3.569602e-02	-2.992993e-02	-2.420888e-02	-1.850282e-02	-1.283860e-02	-7.217772e-03	-1.620593e-03	4.008115e-03	9.690186e-03	1.543313e-02	2.124061e-02	2.714152e-02	3.314546e-02	3.922554e-02	4.534809e-02	5.149583e-02	5.770101e-02	6.398870e-02	7.031435e-02	7.662046e-02	8.284492e-02	8.898507e-02	9.503065e-02	1.009382e-01	1.066717e-01	1.121730e-01	1.174072e-01	1.223500e-01	1.269256e-01	1.311331e-01	1.348932e-01	1.382120e-01	1.410145e-01	1.433248e-01	1.450649e-01	1.462625e-01	1.468525e-01	1.468781e-01	1.463296e-01	1.452996e-01	1.438504e-01	1.422040e-01	1.404700e-01	1.388312e-01	1.373181e-01	1.357237e-01	1.335147e-01	1.298584e-01	1.238323e-01	1.147985e-01	1.027983e-01	8.880563e-02	7.473626e-02	6.315904e-02	5.676974e-02	5.748388e-02	6.548298e-02	7.861446e-02	9.297080e-02	1.050087e-01	1.130917e-01	1.172307e-01	1.185688e-01	1.324170e-01	1.244642e-01	-2.852936e-01	
SCALARS Conservative_4 float 1
LOOKUP_TABLE default
-1.488405e-02	-4.773670e-02	-4.962135e-02	-5.016664e-02	-5.111181e-02	-5.096738e-02	-4.959687e-02	-4.649554e-02	-4.126464e-02	-3.378052e-02	-2.443063e-02	-1.419827e-02	-4.647907e-03	2.494902e-03	6.232994e-03	6.924040e-03	5.971512e-03	4.860879e-03	4.468175e-03	5.052392e-03	6.499393e-03	8.558071e-03	1.095152e-02	1.345693e-02	1.594381e-02	1.834780e-02	2.067362e-02	2.294219e-02	2.518651e-02	2.744486e-02	2.972248e-02	3.203493e-02	3.437203e-02	3.672122e-02	3.906045e-02	4.137579e-02	4.367457e-02	4.596239e-02	4.823403e-02	5.046651e-02	5.264762e-02	5.476420e-02	5.681543e-02	5.879804e-02	6.071795e-02	6.257384e-02	6.437393e-02	6.612273e-02	6.783865e-02	6.953773e-02	7.123656e-02	7.290397e-02	7.446964e-02	7.587637e-02	7.715863e-02	7.843780e-02	7.982917e-02	8.138654e-02	8.309729e-02	8.493950e-02	8.690524e-02	8.900823e-02	9.121202e-02	9.339556e-02	9.526870e-02	9.643572e-02	9.647122e-02	9.514874e-02	9.257597e-02	8.926477e-02	8.586046e-02	8.285504e-02	8.028777e-02	7.781547e-02	7.500174e-02	7.165053e-02	6.785417e-02	6.372377e-02	5.926687e-02	5.444488e-02	4.923076e-02	4.359297e-02	3.749739e-02	3.088481e-02	2.370039e-02	1.587571e-02	7.341150e-03	-1.972225e-03	-1.214764e-02	-2.327817e-02	-3.531595e-02	-4.836730e-02	-6.212346e-02	-7.629064e-02	-8.997841e-02	-1.023272e-01	-1.108528e-01	-1.119650e-01	-1.083238e-01	-1.044902e-01	-9.765673e-02	-7.356673e-02	-3.839435e-02	-2.732521e-03	2.960315e-02	5.582526e-02	7.574127e-02	9.015262e-02	1.004762e-01	1.075710e-01	1.123817e-01	1.153031e-01	1.169022e-01	1.175757e-01	1.176637e-01	1.174580e-01	1.171151e-01	1.166630e-01	1.161312e-01	1.155622e-01	1.149154e-01	1.141020e-01	1.130889e-01	1.119879e-01	1.109269e-01	1.099455e-01	1.089883e-01	1.079919e-01	1.069327e-01	1.058369e-01	1.047285e-01	1.035988e-01	1.024414e-01	1.012311e-01	9.995008e-02	9.854694e-02	9.699489e-02	9.530725e-02	9.357155e-02	9.188765e-02	9.029039e-02	8.872560e-02	8.712225e-02	8.543876e-02	8.364672e-02	8.170365e-02	7.956714e-02	7.727685e-02	7.494956e-02	7.265280e-02	7.034484e-02	6.786810e-02	6.510913e-02	6.208079e-02	5.887375e-02	5.555700e-02	5.214058e-02	4.862156e-02	4.499297e-02	4.127679e-02	3.747570e-02	3.360958e-02	2.968345e-02	2.571859e-02	2.172187e-02	1.771544e-02	1.371500e-02	9.750426e-03	5.829530e-03	1.975955e-03	-1.800613e-03	-5.471533e-03	-9.006726e-03	-1.239322e-02	-1.558583e-02	-1.860611e-02	-2.146781e-02	-2.425200e-02	-2.706914e-02	-3.007193e-02	-3.336813e-02	-3.697657e-02	-4.073001e-02	-4.429189e-02	-4.720682e-02	-4.902273e-02	-4.941211e-02	-4.830100e-02	-4.600661e-02	-4.330972e-02	-4.136885e-02	-4.133127e-02	-4.369079e-02	-4.822756e-02	-5.428781e-02	-6.190323e-02	-6.864260e-02	-7.594672e-02	-1.296716e-01	-7.769416e-02	
SCALARS Surface_Sensitivity float 1
LOOKUP_TABLE default
-5.379698e+02	1.184567e+02	5.573179e+00	3.790743e+00	3.108773e+00	1.761054e+00	1.305194e+00	1.001320e+00	7.144666e-01	4.435699e-01	2.546975e-01	2.303505e-02	-2.860336e-01	-3.794646e-01	-1.441985e-01	1.758191e-01	3.173694e-01	2.854869e-01	1.956325e-01	1.194277e-01	6.316872e-02	2.880420e-02	1.570780e-02	1.200177e-02	1.757987e-02	2.488160e-02	3.191436e-02	3.573904e-02	2.951087e-02	1.882306e-02	8.381927e-03	8.115678e-03	1.730597e-02	2.676979e-02	3.125162e-02	2.992728e-02	2.118379e-02	9.782485e-03	3.367476e-03	1.939028e-03	5.819004e-03	1.218899e-02	2.016531e-02	2.209472e-02	1.473405e-02	-1.493392e-03	-1.151197e-02	-1.758058e-03	2.273279e-02	1.802546e-02	-5.683314e-02	-1.758857e-01	-2.465032e-01	-1.895577e-01	1.919687e-02	3.434996e-01	6.861838e-01	8.909973e-01	8.166058e-01	4.552434e-01	-6.582316e-02	-5.797951e-01	-9.713901e-01	-1.166965e+00	-1.125380e+00	-8.334739e-01	-3.393684e-01	2.387449e-01	7.045595e-01	8.837367e-01	7.104791e-01	3.019786e-01	-9.158236e-02	-2.461908e-01	-1.525577e-01	2.913423e-03	5.904293e-02	3.044464e-02	2.404465e-04	-1.420155e-02	-2.210030e-02	-2.648390e-02	-2.092865e-02	1.007798e-02	4.279825e-02	8.599745e-02	1.696620e-01	2.889287e-01	4.732171e-01	7.916057e-01	1.276777e+00	1.982153e+00	3.064389e+00	4.127446e+00	4.526027e+00	5.012617e+00	4.407107e+00	1.188451e+01	7.628174e+00	-7.487223e+00	3.000897e+01	3.217666e+01	2.272722e+01	1.826098e+01	8.984316e+00	4.117290e+00	2.725364e+00	2.016004e+00	1.304769e+00	7.030005e-01	2.099511e-01	-1.361304e-01	-3.388683e-01	-4.459344e-01	-3.266966e-01	-4.213002e-02	1.979564e-01	2.871030e-01	2.303831e-01	1.114964e-01	4.229188e-02	6.979231e-02	1.436226e-01	1.699507e-01	1.226278e-01	5.669248e-02	2.101258e-03	-3.078482e-02	-3.265866e-02	9.156284e-04	4.308188e-02	6.379219e-02	4.833024e-02	1.480658e-03	-7.055650e-02	-1.654009e-01	-2.684715e-01	-3.502219e-01	-3.678413e-01	-3.067182e-01	-2.014415e-01	-1.030413e-01	-3.571008e-02	1.052263e-02	4.867077e-02	7.936531e-02	1.069229e-01	1.429520e-01	1.756622e-01	1.563784e-01	7.076565e-02	-3.175818e-02	-7.654481e-02	-4.447166e-02	-1.358980e-03	-4.706851e-03	-3.487542e-02	-4.270051e-02	-2.566087e-02	-4.322572e-03	1.877365e-03	-3.432730e-03	-1.008549e-02	-1.606878e-02	-2.034266e-02	-2.328977e-02	-2.259983e-02	-2.225666e-02	-1.867856e-02	-2.008277e-02	-2.285900e-02	-2.701019e-02	-3.215623e-02	-3.499617e-02	-3.167013e-02	-3.390724e-02	-3.694180e-02	-4.833836e-02	-7.056442e-02	-1.048800e-01	-1.435623e-01	-1.766067e-01	-1.849129e-01	-1.609971e-01	-9.974956e-02	-1.335580e-02	7.530450e-02	1.264687e-01	8.379795e-02	-1.437627e-01	-6.603835e-01	-1.340305e+00	-1.984317e+00	-2.752731e+00	-4.874365e+00	-6.248666e+00	-1.022416e+01	-2.039565e+02	3.598855e+02	4.194209e+02	
SCALARS Solution_Sensor float 1
LOOKUP_TABLE default
0.000000e+00	0.000000e+00	0.000000e+00	0.000000e+00	0.000000e+00	0.000000e+00	0.000000e+00	0.000000e+00	0.000000e+00	0.000000e+00	0.000000e+00	0.000000e+00	0.000000e+00	0.000000e+00	0.000000e+00	0.000000e+00	0.000000e+00	0.000000e+00	0.000000e+00	0.000000e+00	0.000000e+00	0.000000e+00	0.000000e+00	0.000000e+00	0.000000e+00	0.000000e+00	0.000000e+00	0.000000e+00	0.000000e+00	0.000000e+00	0.000000e+00	0.000000e+00	0.000000e+00	0.000000e+00	0.000000e+00	0.000000e+00	0.000000e+00	0.000000e+00	0.000000e+00	0.000000e+00	0.000000e+00	0.000000e+00	0.000000e+00	0.000000e+00	0.000000e+00	0.000000e+00	0.000000e+00	0.000000e+00	0.000000e+00	0.000000e+00	0.000000e+00	0.000000e+00	0.000000e+00	0.000000e+00	0.000000e+00	0.000000e+00	0.000000e+00	0.000000e+00	0.000000e+00	0.000000e+00	0.000000e+00	0.000000e+00	0.000000e+00	0.000000e+00	0.000000e+00	0.000000e+00	0.000000e+00	0.000000e+00	0.000000e+00	0.000000e+00	0.000000e+00	0.000000e+00	0.000000e+00	0.000000e+00	0.000000e+00	0.000000e+00	0.000000e+00	0.000000e+00	0.000000e+00	0.000000e+00	0.000000e+00	0.000000e+00	0.000000e+00	0.000000e+00	0.000000e+00	0.000000e+00	0.000000e+00	0.000000e+00	0.000000e+00	0.000000e+00	0.000000e+00	0.000000e+00	0.000000e+00	0.000000e+00	0.000000e+00	0.000000e+00	0.000000e+00	0.000000e+00	0.000000e+00	0.000000e+00	0.000000e+00	0.000000e+00	0.000000e+00	0.000000e+00	0.000000e+00	0.000000e+00	0.000000e+00	0.000000e+00	0.000000e+00	0.000000e+00	0.000000e+00	0.000000e+00	0.000000e+00	0.000000e+00	0.000000e+00	0.000000e+00	0.000000e+00	0.000000e+00	0.000000e+00	0.000000e+00	0.000000e+00	0.000000e+00	0.000000e+00	0.000000e+00	0.000000e+00	0.000000e+00	0.000000e+00	0.000000e+00	0.000000e+00	0.000000e+00	0.000000e+00	0.000000e+00	0.000000e+00	0.000000e+00	0.000000e+00	0.000000e+00	0.000000e+00	0.000000e+00	0.000000e+00	0.000000e+00	0.000000e+00	0.000000e+00	0.000000e+00	0.000000e+00	0.000000e+00	0.000000e+00	0.000000e+00	0.000000e+00	0.000000e+00	0.000000e+00	0.000000e+00	0.000000e+00	0.000000e+00	0.000000e+00	0.000000e+00	0.000000e+00	0.000000e+00	0.000000e+00	0.000000e+00	0.000000e+00	0.000000e+00	0.000000e+00	0.000000e+00	0.000000e+00	0.000000e+00	0.000000e+00	0.000000e+00	0.000000e+00	0.000000e+00	0.000000e+00	0.000000e+00	0.000000e+00	0.000000e+00	0.000000e+00	0.000000e+00	0.000000e+00	0.000000e+00	0.000000e+00	0.000000e+00	0.000000e+00	0.000000e+00	0.000000e+00	0.000000e+00	0.000000e+00	0.000000e+00	0.000000e+00	0.000000e+00	0.000000e+00	0.000000e+00	0.000000e+00	0.000000e+00	0.000000e+00	0.000000e+00	0.000000e+00	0.000000e+00	0.000000e+00	0.000000e+00	0.000000e+00	0.000000e+00	0.000000e+00	