# vtk DataFile Version 3.0
vtk output
ASCII
DATASET UNSTRUCTURED_GRID
POINTS 5233 float
9.997500e-01	-3.633243e-05	0.0	9.990000e-01	-1.454724e-04	0.0	9.977600e-01	-3.275080e-04	0.0	9.960200e-01	-5.899305e-04	0.0	9.937800e-01	-9.471070e-04	0.0	9.910500e-01	-1.422130e-03	0.0	9.878400e-01	-2.045595e-03	0.0	9.841300e-01	-2.853829e-03	0.0	9.799500e-01	-3.859154e-03	0.0	9.752800e-01	-5.058732e-03	0.0	9.701500e-01	-6.405740e-03	0.0	9.645400e-01	-7.841692e-03	0.0	9.584700e-01	-9.291238e-03	0.0	9.519400e-01	-1.069901e-02	0.0	9.449600e-01	-1.203704e-02	0.0	9.375400e-01	-1.330975e-02	0.0	9.296900e-01	-1.454442e-02	0.0	9.214000e-01	-1.577936e-02	0.0	9.127000e-01	-1.704182e-02	0.0	9.035800e-01	-1.835282e-02	0.0	8.940600e-01	-1.971601e-02	0.0	8.841500e-01	-2.112678e-02	0.0	8.738500e-01	-2.257692e-02	0.0	8.631800e-01	-2.405433e-02	0.0	8.521600e-01	-2.554835e-02	0.0	8.407700e-01	-2.705581e-02	0.0	8.290500e-01	-2.856749e-02	0.0	8.170100e-01	-3.007953e-02	0.0	8.046400e-01	-3.159111e-02	0.0	7.919700e-01	-3.309659e-02	0.0	7.790100e-01	-3.459269e-02	0.0	7.657800e-01	-3.607480e-02	0.0	7.522800e-01	-3.754036e-02	0.0	7.385200e-01	-3.898554e-02	0.0	7.245300e-01	-4.040444e-02	0.0	7.103200e-01	-4.179345e-02	0.0	6.958900e-01	-4.315001e-02	0.0	6.812700e-01	-4.446891e-02	0.0	6.664700e-01	-4.574716e-02	0.0	6.515000e-01	-4.698198e-02	0.0	6.363800e-01	-4.817006e-02	0.0	6.211300e-01	-4.930848e-02	0.0	6.057600e-01	-5.039541e-02	0.0	5.902800e-01	-5.142919e-02	0.0	5.747100e-01	-5.240779e-02	0.0	5.590600e-01	-5.333003e-02	0.0	5.433600e-01	-5.419383e-02	0.0	5.276100e-01	-5.499900e-02	0.0	5.118400e-01	-5.574390e-02	0.0	4.960500e-01	-5.642847e-02	0.0	4.802700e-01	-5.705137e-02	0.0	4.645100e-01	-5.761220e-02	0.0	4.487800e-01	-5.811052e-02	0.0	4.331100e-01	-5.854523e-02	0.0	4.175000e-01	-5.891610e-02	0.0	4.019700e-01	-5.922226e-02	0.0	3.865400e-01	-5.946281e-02	0.0	3.712300e-01	-5.963686e-02	0.0	3.560400e-01	-5.974362e-02	0.0	3.409900e-01	-5.978195e-02	0.0	3.261100e-01	-5.975073e-02	0.0	3.114000e-01	-5.964881e-02	0.0	2.968700e-01	-5.947485e-02	0.0	2.825500e-01	-5.922772e-02	0.0	2.684500e-01	-5.890616e-02	0.0	2.545700e-01	-5.850849e-02	0.0	2.409400e-01	-5.803382e-02	0.0	2.275700e-01	-5.748090e-02	0.0	2.144700e-01	-5.684841e-02	0.0	2.016600e-01	-5.613568e-02	0.0	1.891400e-01	-5.534102e-02	0.0	1.769300e-01	-5.446402e-02	0.0	1.650400e-01	-5.350382e-02	0.0	1.534900e-01	-5.246066e-02	0.0	1.422900e-01	-5.133424e-02	0.0	1.314400e-01	-5.012331e-02	0.0	1.209500e-01	-4.882760e-02	0.0	1.108500e-01	-4.744991e-02	0.0	1.011300e-01	-4.598805e-02	0.0	9.181000e-02	-4.444413e-02	0.0	8.290000e-02	-4.281927e-02	0.0	7.440000e-02	-4.111283e-02	0.0	6.633000e-02	-3.932833e-02	0.0	5.869000e-02	-3.746547e-02	0.0	5.149000e-02	-3.552627e-02	0.0	4.474000e-02	-3.351325e-02	0.0	3.844000e-02	-3.142610e-02	0.0	3.260000e-02	-2.926765e-02	0.0	2.723000e-02	-2.704160e-02	0.0	2.232000e-02	-2.474291e-02	0.0	1.790000e-02	-2.238558e-02	0.0	1.395000e-02	-1.995878e-02	0.0	1.049000e-02	-1.747380e-02	0.0	7.520000e-03	-1.493153e-02	0.0	5.040000e-03	-1.233216e-02	0.0	3.050000e-03	-9.674181e-03	0.0	1.560000e-03	-6.972847e-03	0.0	5.600000e-04	-4.207041e-03	0.0	6.000000e-05	-1.384192e-03	0.0	0.000000e+00	0.000000e+00	0.0	6.000000e-05	1.263952e-03	0.0	5.600000e-04	3.625996e-03	0.0	1.560000e-03	5.790654e-03	0.0	3.050000e-03	7.809573e-03	0.0	5.040000e-03	9.727732e-03	0.0	7.520000e-03	1.155285e-02	0.0	1.049000e-02	1.329990e-02	0.0	1.395000e-02	1.497938e-02	0.0	1.790000e-02	1.659920e-02	0.0	2.232000e-02	1.815897e-02	0.0	2.723000e-02	1.967184e-02	0.0	3.260000e-02	2.113369e-02	0.0	3.844000e-02	2.255221e-02	0.0	4.474000e-02	2.392876e-02	0.0	5.149000e-02	2.526473e-02	0.0	5.869000e-02	2.656314e-02	0.0	6.633000e-02	2.782473e-02	0.0	7.440000e-02	2.905016e-02	0.0	8.290000e-02	3.024135e-02	0.0	9.181000e-02	3.139721e-02	0.0	1.011300e-01	3.251926e-02	0.0	1.108500e-01	3.360747e-02	0.0	1.209500e-01	3.466071e-02	0.0	1.314400e-01	3.568084e-02	0.0	1.422900e-01	3.666559e-02	0.0	1.534900e-01	3.761471e-02	0.0	1.650400e-01	3.852855e-02	0.0	1.769300e-01	3.940643e-02	0.0	1.891400e-01	4.024691e-02	0.0	2.016600e-01	4.104918e-02	0.0	2.144700e-01	4.181177e-02	0.0	2.275700e-01	4.253427e-02	0.0	2.409400e-01	4.321496e-02	0.0	2.545700e-01	4.385262e-02	0.0	2.684500e-01	4.444583e-02	0.0	2.825500e-01	4.499231e-02	0.0	2.968700e-01	4.549087e-02	0.0	3.114000e-01	4.593973e-02	0.0	3.261100e-01	4.633645e-02	0.0	3.409900e-01	4.667915e-02	0.0	3.560400e-01	4.696596e-02	0.0	3.712300e-01	4.719432e-02	0.0	3.865400e-01	4.736191e-02	0.0	4.019700e-01	4.746660e-02	0.0	4.175000e-01	4.750592e-02	0.0	4.331100e-01	4.747754e-02	0.0	4.487800e-01	4.737921e-02	0.0	4.645100e-01	4.720858e-02	0.0	4.802700e-01	4.696368e-02	0.0	4.960500e-01	4.664248e-02	0.0	5.118400e-01	4.624306e-02	0.0	5.276100e-01	4.576427e-02	0.0	5.433600e-01	4.520443e-02	0.0	5.590600e-01	4.456316e-02	0.0	5.747100e-01	4.383933e-02	0.0	5.902800e-01	4.303359e-02	0.0	6.057600e-01	4.214621e-02	0.0	6.211300e-01	4.117857e-02	0.0	6.363800e-01	4.013204e-02	0.0	6.515000e-01	3.900858e-02	0.0	6.664700e-01	3.781154e-02	0.0	6.812700e-01	3.654514e-02	0.0	6.958900e-01	3.521351e-02	0.0	7.103200e-01	3.382147e-02	0.0	7.245300e-01	3.237658e-02	0.0	7.385200e-01	3.088418e-02	0.0	7.522800e-01	2.935121e-02	0.0	7.657800e-01	2.778757e-02	0.0	7.790100e-01	2.620165e-02	0.0	7.919700e-01	2.460107e-02	0.0	8.046400e-01	2.299639e-02	0.0	8.170100e-01	2.139722e-02	0.0	8.290500e-01	1.981593e-02	0.0	8.407700e-01	1.825931e-02	0.0	8.521600e-01	1.673580e-02	0.0	8.631800e-01	1.525625e-02	0.0	8.738500e-01	1.382115e-02	0.0	8.841500e-01	1.243370e-02	0.0	8.940600e-01	1.109512e-02	0.0	9.035800e-01	9.803710e-03	0.0	9.127000e-01	8.562176e-03	0.0	9.214000e-01	7.381464e-03	0.0	9.296900e-01	6.278136e-03	0.0	9.375400e-01	5.283163e-03	0.0	9.449600e-01	4.425693e-03	0.0	9.519400e-01	3.730648e-03	0.0	9.584700e-01	3.204143e-03	0.0	9.645400e-01	2.825994e-03	0.0	9.701500e-01	2.551328e-03	0.0	9.752800e-01	2.324325e-03	0.0	9.799500e-01	2.092737e-03	0.0	9.841300e-01	1.826837e-03	0.0	9.878400e-01	1.519805e-03	0.0	9.910500e-01	1.190159e-03	0.0	9.937800e-01	8.630063e-04	0.0	9.960200e-01	5.666220e-04	0.0	9.977600e-01	3.231875e-04	0.0	9.990000e-01	1.450782e-04	0.0	9.997500e-01	3.632618e-05	0.0	1.000000e+00	0.000000e+00	0.0	1.984229e+01	2.506660e+00	0.0	1.937166e+01	4.973800e+00	0.0	1.859553e+01	7.362490e+00	0.0	1.752613e+01	9.635070e+00	0.0	1.618034e+01	1.175571e+01	0.0	1.457937e+01	1.369094e+01	0.0	1.274848e+01	1.541027e+01	0.0	1.071654e+01	1.688656e+01	0.0	8.515590e+00	1.809654e+01	0.0	6.180340e+00	1.902113e+01	0.0	3.747630e+00	1.964575e+01	0.0	1.255810e+00	1.996053e+01	0.0	-1.255810e+00	1.996053e+01	0.0	-3.747630e+00	1.964574e+01	0.0	-6.180340e+00	1.902113e+01	0.0	-8.515590e+00	1.809654e+01	0.0	-1.071654e+01	1.688656e+01	0.0	-1.274848e+01	1.541026e+01	0.0	-1.457937e+01	1.369094e+01	0.0	-1.618034e+01	1.175570e+01	0.0	-1.752613e+01	9.635070e+00	0.0	-1.859553e+01	7.362490e+00	0.0	-1.937166e+01	4.973800e+00	0.0	-1.984229e+01	2.506660e+00	0.0	-2.000000e+01	0.000000e+00	0.0	-1.984229e+01	-2.506670e+00	0.0	-1.937166e+01	-4.973800e+00	0.0	-1.859553e+01	-7.362490e+00	0.0	-1.752613e+01	-9.635080e+00	0.0	-1.618034e+01	-1.175571e+01	0.0	-1.457937e+01	-1.369094e+01	0.0	-1.274848e+01	-1.541027e+01	0.0	-1.071653e+01	-1.688656e+01	0.0	-8.515580e+00	-1.809654e+01	0.0	-6.180340e+00	-1.902113e+01	0.0	-3.747620e+00	-1.964575e+01	0.0	-1.255810e+00	-1.996053e+01	0.0	1.255810e+00	-1.996053e+01	0.0	3.747630e+00	-1.964574e+01	0.0	6.180340e+00	-1.902113e+01	0.0	8.515590e+00	-1.809654e+01	0.0	1.071654e+01	-1.688656e+01	0.0	1.274848e+01	-1.541026e+01	0.0	1.457937e+01	-1.369094e+01	0.0	1.618034e+01	-1.175570e+01	0.0	1.752614e+01	-9.635070e+00	0.0	1.859553e+01	-7.362490e+00	0.0	1.937166e+01	-4.973790e+00	0.0	1.984229e+01	-2.506660e+00	0.0	2.000000e+01	0.000000e+00	0.0	6.074216e-02	-4.532854e-02	0.0	6.601884e-01	-6.002579e-02	0.0	4.255535e-01	6.171607e-02	0.0	6.897641e-01	4.910107e-02	0.0	3.791232e-01	-7.360885e-02	0.0	9.994675e-01	-7.275908e-04	0.0	9.985545e-01	-1.331427e-03	0.0	7.738132e-01	-4.740378e-02	0.0	6.898601e-01	-5.715202e-02	0.0	-1.127724e-03	5.518078e-03	0.0	7.467801e-01	-5.081128e-02	0.0	5.833311e-01	5.752773e-02	0.0	9.928160e-01	-3.736280e-03	0.0	9.899359e-01	-4.744270e-03	0.0	5.989071e-01	5.659304e-02	0.0	7.187647e-01	-5.406746e-02	0.0	-1.468993e-03	5.999715e-04	0.0	9.865726e-01	-5.906630e-03	0.0	9.827329e-01	-7.226621e-03	0.0	-1.302545e-03	-6.474237e-03	0.0	6.451051e-01	-6.137636e-02	0.0	8.244820e-01	-4.030127e-02	0.0	7.997422e-01	-4.389777e-02	0.0	3.484812e-01	6.060273e-02	0.0	8.479021e-01	-3.667064e-02	0.0	2.473660e-01	5.609604e-02	0.0	8.699421e-01	-3.303008e-02	0.0	1.046343e-02	1.734879e-02	0.0	8.904958e-01	-2.943575e-02	0.0	7.702135e-02	-4.970653e-02	0.0	9.094910e-01	-2.594243e-02	0.0	-1.767193e-03	-3.207522e-03	0.0	9.424827e-01	-1.916976e-02	0.0	9.268476e-01	-2.255203e-02	0.0	1.794739e-02	-2.750240e-02	0.0	4.257416e-01	-7.303965e-02	0.0	8.591037e-01	-3.484616e-02	0.0	9.563356e-01	-1.566803e-02	0.0	9.784089e-01	-8.725704e-03	0.0	9.683301e-01	-1.208136e-02	0.0	1.582633e-01	-6.357976e-02	0.0	9.001952e-01	-2.767450e-02	0.0	7.604295e-01	-4.912335e-02	0.0	9.971359e-01	-2.087294e-03	0.0	5.990500e-01	-6.504886e-02	0.0	4.414441e-01	-7.268983e-02	0.0	5.363196e-01	-6.898362e-02	0.0	4.730157e-01	-7.175745e-02	0.0	5.046766e-01	-7.052014e-02	0.0	4.888342e-01	-7.117573e-02	0.0	1.249493e-01	-5.907200e-02	0.0	2.784379e-02	-3.298289e-02	0.0	3.945689e-01	-7.350084e-02	0.0	4.621873e-02	-4.063025e-02	0.0	4.101098e-01	-7.331144e-02	0.0	3.187147e-01	-7.321710e-02	0.0	3.486126e-01	-7.358365e-02	0.0	3.350737e-02	-3.559653e-02	0.0	2.895105e-01	-7.251191e-02	0.0	9.348850e-01	-2.086777e-02	0.0	1.468046e-01	-6.216787e-02	0.0	1.946435e-01	-6.723892e-02	0.0	8.579558e-02	-5.176416e-02	0.0	1.045869e-01	-5.561117e-02	0.0	5.678223e-01	-6.716400e-02	0.0	1.700659e-01	-6.489782e-02	0.0	6.145275e-01	-6.388722e-02	0.0	8.804133e-01	-3.122449e-02	0.0	2.266773e-02	-3.028318e-02	0.0	9.952218e-01	-2.870161e-03	0.0	6.735881e-03	-1.882543e-02	0.0	1.849167e-02	2.151857e-02	0.0	9.183777e-01	-2.423776e-02	0.0	9.49640
[...]
POINT_DATA 5233

SCALARS Conservative_1 float 1
LOOKUP_TABLE default
1.199829e+00	1.181605e+00	1.171182e+00	1.164745e+00	1.160173e+00	1.155710e+00	1.148826e+00	1.137908e+00	1.121726e+00	1.100369e+00	1.075077e+00	1.048462e+00	1.024890e+00	1.008351e+00	9.999743e-01	9.979144e-01	9.990230e-01	1.000465e+00	1.000492e+00	9.985022e-01	9.947174e-01	9.896945e-01	9.840190e-01	9.781626e-01	9.724028e-01	9.668506e-01	9.614973e-01	9.562962e-01	9.511827e-01	9.461254e-01	9.411081e-01	9.360872e-01	9.310285e-01	9.259485e-01	9.208986e-01	9.159272e-01	9.110529e-01	9.062803e-01	9.016207e-01	8.970906e-01	8.926899e-01	8.884291e-01	8.842906e-01	8.802912e-01	8.764457e-01	8.728058e-01	8.693610e-01	8.660471e-01	8.627171e-01	8.593613e-01	8.561824e-01	8.535347e-01	8.515323e-01	8.498836e-01	8.479152e-01	8.448745e-01	8.402595e-01	8.342161e-01	8.276235e-01	8.217414e-01	8.174592e-01	8.149713e-01	8.140048e-01	8.141258e-01	8.150239e-01	8.164996e-01	8.185036e-01	8.209519e-01	8.237586e-01	8.268110e-01	8.301286e-01	8.338747e-01	8.382966e-01	8.434620e-01	8.492943e-01	8.556468e-01	8.625845e-01	8.702860e-01	8.788084e-01	8.881909e-01	8.985454e-01	9.099309e-01	9.224989e-01	9.363672e-01	9.517259e-01	9.688523e-01	9.879746e-01	1.009452e+00	1.033769e+00	1.061242e+00	1.092402e+00	1.127714e+00	1.167026e+00	1.209875e+00	1.254551e+00	1.298039e+00	1.331740e+00	1.350898e+00	1.339547e+00	1.308306e+00	1.284317e+00	1.221199e+00	1.099623e+00	1.002167e+00	9.261546e-01	8.704055e-01	8.323776e-01	8.073320e-01	7.904632e-01	7.790315e-01	7.713413e-01	7.662229e-01	7.631165e-01	7.612840e-01	7.603507e-01	7.603129e-01	7.610422e-01	7.623019e-01	7.637703e-01	7.651195e-01	7.663649e-01	7.678306e-01	7.697764e-01	7.720536e-01	7.742629e-01	7.761747e-01	7.778801e-01	7.795260e-01	7.812163e-01	7.830222e-01	7.849997e-01	7.871330e-01	7.893498e-01	7.915502e-01	7.936919e-01	7.957506e-01	7.977172e-01	7.995532e-01	8.012704e-01	8.029921e-01	8.049475e-01	8.073076e-01	8.101169e-01	8.132966e-01	8.167728e-01	8.205248e-01	8.245472e-01	8.288590e-01	8.334214e-01	8.381751e-01	8.429816e-01	8.478470e-01	8.529622e-01	8.585913e-01	8.647652e-01	8.712777e-01	8.779447e-01	8.847855e-01	8.919683e-01	8.995337e-01	9.074270e-01	9.155610e-01	9.238881e-01	9.323962e-01	9.410548e-01	9.498501e-01	9.587321e-01	9.676832e-01	9.766292e-01	9.855724e-01	9.944299e-01	1.003121e+00	1.011583e+00	1.019732e+00	1.027521e+00	1.034930e+00	1.042005e+00	1.048925e+00	1.055951e+00	1.063472e+00	1.071786e+00	1.080987e+00	1.090696e+00	1.100048e+00	1.107794e+00	1.112598e+00	1.113370e+00	1.109746e+00	1.102492e+00	1.093771e+00	1.086664e+00	1.084143e+00	1.088047e+00	1.098264e+00	1.112841e+00	1.130009e+00	1.148474e+00	1.168634e+00	1.192714e+00	1.181127e+00	9.999764e-01	9.999695e-01	9.999528e-01	9.999289e-01	9.999048e-01	9.998767e-01	9.998371e-01	9.997819e-01	9.997193e-01	9.996673e-01	9.996329e-01	9.996444e-01	9.996987e-01	9.998093e-01	9.999043e-01	9.999811e-01	1.000023e+00	1.000049e+00	1.000064e+00	1.000070e+00	1.000073e+00	1.000074e+00	1.000074e+00	1.000076e+00	1.000077e+00	1.000080e+00	1.000085e+00	1.000092e+00	1.000101e+00	1.000114e+00	1.000129e+00	1.000150e+00	1.000169e+00	1.000196e+00	1.000213e+00	1.000224e+00	1.000225e+00	1.000213e+00	1.000202e+00	1.000189e+00	1.000183e+00	1.000168e+00	1.000150e+00	1.000130e+00	1.000106e+00	1.000078e+00	1.000060e+00	1.000046e+00	1.000013e+00	9.999797e-01	9.442526e-01	9.020368e-01	8.223310e-01	9.232750e-01	8.406920e-01	1.183063e+00	1.173572e+00	9.407776e-01	9.112426e-01	1.217087e+00	9.308034e-01	8.721455e-01	1.151724e+00	1.144994e+00	8.787357e-01	9.208610e-01	1.307671e+00	1.136023e+00	1.123655e+00	1.337686e+00	8.976196e-01	9.608790e-01	9.507175e-01	8.074607e-01	9.714508e-01	7.942009e-01	9.825584e-01	8.785043e-01	9.931705e-01	9.170498e-01	1.000601e+00	1.344670e+00	1.006075e+00	1.002986e+00	1.100333e+00	8.522835e-01	9.769612e-01	1.025348e+00	1.107402e+00	1.065589e+00	8.483812e-01	9.974803e-01	9.358102e-01	1.164150e+00	8.851057e-01	8.538246e-01	8.706100e-01	8.576714e-01	8.639468e-01	8.606190e-01	8.682548e-01	1.042937e+00	8.461807e-01	9.774805e-01	8.499746e-01	8.197146e-01	8.278082e-01	1.018653e+00	8.181965e-01	1.003598e+00	8.544017e-01	8.347672e-01	9.053136e-01	8.849197e-01	8.774700e-01	8.431176e-01	8.891589e-01	9.880656e-01	1.070072e+00	1.157654e+00	1.209190e+00	8.235067e-01	1.002340e+00	1.012756e+00	1.087638e+00	1.133986e+00	9.660969e-01	8.224713e-01	8.739601e-01	9.257975e-01	9.457305e-01	8.761551e-01	8.279627e-01	8.812011e-01	9.065859e-01	9.600185e-01	1.248738e+00	1.133804e+00	8.341494e-01	8.386532e-01	1.211158e+00	8.250112e-01	8.946362e-01	8.183028e-01	8.204490e-01	8.554372e-01	9.160026e-01	1.279780e+00	1.318484e+00	8.544712e-01	1.324607e+00	7.950744e-01	7.744499e-01	7.810473e-01	7.754164e-01	8.186527e-01	1.140209e+00	8.495048e-01	8.350070e-01	1.097228e+00	1.105876e+00	1.052296e+00	8.397684e-01	8.262802e-01	8.122175e-01	1.083657e+00	1.067059e+00	7.728910e-01	1.092470e+00	1.106623e+00	1.099072e+00	7.738102e-01	7.730385e-01	8.003319e-01	7.963044e-01	7.834699e-01	8.039756e-01	8.305060e-01	8.152612e-01	7.805934e-01	7.770148e-01	8.923545e-01	7.863808e-01	7.900028e-01	9.072889e-01	8.657417e-01	9.569928e-01	9.398997e-01	9.915141e-01	9.742916e-01	1.023943e+00	1.008243e+00	1.059457e+00	1.038448e+00	1.104240e+00	1.075196e+00	1.102348e+00	1.031337e+00	1.045376e+00	9.999704e-01	1.016241e+00	9.656380e-01	9.829454e-01	9.315125e-01	9.483990e-01	8.996426e-01	9.151861e-01	8.598132e-01	8.854206e-01	7.880899e-01	7.920758e-01	7.820944e-01	7.848685e-01	7.770499e-01	7.788760e-01	8.465328e-01	7.868163e-01	8.312395e-01	9.816004e-01	1.043717e+00	9.557597e-01	8.228291e-01	8.673152e-01	1.053565e+00	8.068855e-01	9.227311e-01	7.733651e-01	7.726352e-01	7.983508e-01	7.743793e-01	1.090290e+00	1.092362e+00	8.022155e-01	1.099359e+00	1.110410e+00	8.056612e-01	8.096024e-01	1.091899e+00	1.206471e+00	1.157949e+00	1.174453e+00	8.933232e-01	9.969360e-01	1.124407e+00	8.446354e-01	1.286680e+00	1.170382e+00	9.299779e-01	8.610499e-01	8.189829e-01	7.849603e-01	1.199658e+00	1.259589e+00	8.238462e-01	9.164839e-01	1.003304e+00	1.199622e+00	8.735671e-01	9.118357e-01	9.456577e-01	1.133359e+00	8.257972e-01	9.762736e-01	9.657515e-01	9.125580e-01	1.317254e+00	8.363472e-01	1.132803e+00	1.041620e+00	8.603154e-01	9.212140e-01	9.028629e-01	8.580130e-01	9.245034e-01	8.471668e-01	9.965326e-01	9.505511e-01	9.566135e-01	8.548550e-01	9.153304e-01	1.020551e+00	7.828713e-01	9.231672e-01	7.881548e-01	1.041867e+00	1.100596e+00	8.105029e-01	8.515869e-01	1.099653e+00	1.048682e+00	1.108344e+00	1.100932e+00	1.094582e+00	7.973676e-01	8.087410e-01	7.954246e-01	7.827441e-01	9.073038e-01	8.401861e-01	9.140463e-01	7.858478e-01	7.938834e-01	1.098096e+00	1.119020e+00	1.055556e+00	8.541739e-01	1.215365e+00	1.145814e+00	1.131606e+00	1.009193e+00	1.133605e+00	1.234084e+00	1.331036e+00	1.315083e+00	1.102233e+00	1.217657e+00	9.519168e-01	1.163049e+00	1.148581e+00	8.246828e-01	8.755081e-01	1.123037e+00	9.869315e-01	8.800263e-01	1.141666e+00	1.332385e+00	8.564764e-01	8.211129e-01	9.709608e-01	8.033056e-01	9.816324e-01	9.919811e-01	9.375749e-01	1.000342e+00	1.005610e+00	1.017425e+00	1.048599e+00	1.027456e+00	1.058815e+00	1.110023e+00	8.746941e-01	9.358902e-01	9.407921e-01	1.155390e+00	8.599365e-01	8.625730e-01	8.656923e-01	1.074305e+00	8.516701e-01	8.546351e-01	8.296332e-01	1.004216e+00	1.007888e+00	1.011318e+00	8.671991e-01	9.016541e-01	8.789199e-01	8.903012e-01	1.077038e+00	1.094518e+00	9.260171e-01	9.309491e-01	8.917976e-01	8.828439e-01	8.825468e-01	8.863387e-01	9.851383e-01	9.677575e-01	1.165328e+00	8.350724e-01	8.413148e-01	8.489345e-01	8.443380e-01	8.328822e-01	8.298150e-01	8.232456e-01	8.237824e-01	8.272559e-01	1.298392e+00	1.267561e+00	8.000672e-01	1.095890e+00	8.564718e-01	8.467074e-01	8.418466e-01	8.371224e-01	1.095742e+00	1.100205e+00	1.077321e+00	8.327056e-01	8.285555e-01	8.178738e-01	1.069912e+00	1.096257e+00	7.866592e-01	7.895004e-01	7.993581e-01	8.013389e-01	7.869953e-01	7.847466e-01	7.836467e-01	9.889628e-01	9.557215e-01	9.474336e-01	9.807307e-01	1.012989e+00	1.062601e+00	1.034954e+00	1.027859e+00	1.005219e+00	9.971842e-01	9.723886e-01	9.640436e-01	9.392370e-01	9.311330e-01	9.076929e-01	9.003101e-01	8.673145e-01	8.616084e-01	8.932850e-01	8.865502e-01	7.935914e-01	7.919708e-01	7.905626e-01	7.893352e-01	8.808392e-01	8.085421e-01	8.199373e-01	9.555322e-01	9.606101e-01	8.689673e-01	8.722063e-01	1.069825e+00	8.349920e-01	7.831885e-01	7.839163e-01	8.070235e-01	8.052100e-01	8.150100e-01	8.125399e-01	1.091048e+00	1.084535e+00	8.943628e-01	8.985628e-01	1.025254e+00	1.297444e+00	8.252217e-01	1.311616e+00	8.534855e-01	8.291722e-01	9.510436e-01	8.776842e-01	1.007428e+00	1.107313e+00	1.101248e+00	1.096615e+00	1.081267e+00	1.115967e+00	1.160560e+00	1.181452e+00	1.153147e+00	1.200927e+00	1.103879e+00	1.283288e+00	9.202163e-01	1.010837e+00	1.131562e+00	8.756875e-01	1.172915e+00	1.220858e+00	9.222424e-01	1.275978e+00	9.269105e-01	1.131332e+00	9.863434e-01	1.190700e+00	8.325020e-01	9.812149e-01	9.176364e-01	1.139457e+00	1.160724e+00	1.095990e+00	8.590645e-01	1.093262e+00	9.163063e-01	1.125961e+00	8.541228e-01	8.064535e-01	8.137665e-01	7.933556e-01	7.996860e-01	1.171570e+00	1.293318e+00	1.184945e+00	9.089065e-01	1.240787e+00	1.055115e+00	9.322573e-01	1.312142e+00	8.664782e-01	8.627283e-01	1.077993e+00	9.820334e-01	1.017752e+00	9.871885e-01	9.238731e-01	1.097517e+00	1.095654e+00	1.051750e+00	1.045123e+00	8.120160e-01	8.083734e-01	8.008323e-01	7.916166e-01	9.086848e-01	9.131113e-01	8.457736e-01	9.422404e-01	7.924978e-01	1.095968e+00	1.136238e+00	1.029053e+00	1.134294e+00	1.249581e+00	1.315012e+00	1.053653e+00	1.186192e+00	1.178452e+00	1.070321e+00	1.122727e+00	8.820165e-01	8.610989e-01	8.273385e-01	9.708559e-01	9.760263e-01	9.913310e-01	9.960198e-01	9.597418e-01	9.454272e-01	1.000268e+00	1.004048e+00	1.029620e+00	1.041160e+00	1.112214e+00	9.414164e-01	9.462428e-01	1.145976e+00	8.649986e-01	8.679663e-01	8.572341e-01	8.595323e-01	1.031574e+00	1.015022e+00	1.020993e+00	8.814850e-01	8.736313e-01	8.810201e-01	8.845355e-01	1.085513e+00	1.099626e+00	9.316892e-01	9.366001e-01	9.091926e-01	8.989798e-01	8.897938e-01	8.882221e-01	8.920852e-01	1.011490e+00	9.927540e-01	9.754455e-01	8.368276e-01	8.424595e-01	8.483613e-01	8.604431e-01	8.551048e-01	8.502570e-01	8.417490e-01	8.381356e-01	8.288901e-01	8.298498e-01	8.350338e-01	8.180623e-01	8.491087e-01	8.441607e-01	1.096482e+00	8.395346e-01	8.351877e-01	8.311183e-01	8.239143e-01	1.071773e+00	8.040883e-01	8.100946e-01	8.045220e-01	8.026520e-01	7.919240e-01	7.917468e-01	7.915822e-01	9.552811e-01	1.065119e+00	1.058374e+00	1.038459e+00	1.031747e+00	1.024917e+00	1.010350e+00	1.002828e+00	9.950745e-01	9.793089e-01	9.713165e-01	9.632972e-01	9.473235e-01	9.394035e-01	9.315962e-01	9.089163e-01	8.695240e-01	8.641363e-01	9.018230e-01	8.950160e-01	8.884344e-01	7.991419e-01	7.975990e-01	7.963111e-01	7.952089e-01	7.942724e-01	8.286899e-01	8.425313e-01	9.558938e-01	9.608496e-01	9.658015e-01	8.711699e-01	8.744018e-01	8.600576e-01	8.817499e-01	7.925018e-01	7.943112e-01	7.966240e-01	8.102477e-01	8.208577e-01	8.181576e-01	8.157555e-01	1.089397e+00	1.084286e+00	1.078297e+00	8.960599e-01	9.001584e-01	9.043612e-01	8.324243e-01	8.304543e-01	1.289953e+00	9.280376e-01	1.129352e+00	1.097673e+00	8.830716e-01	1.261925e+00	1.159458e+00	1.013167e+00	1.018092e+00	1.057384e+00	1.112688e+00	8.573734e-01	1.271275e+00	9.660999e-01	1.206345e+00	1.092418e+00	1.120624e+00	1.172084e+00	9.172920e-01	1.130672e+00	1.185407e+00	1.188067e+00	9.563732e-01	8.738924e-01	1.104082e+00	8.600131e-01	9.401912e-01	8.662650e-01	8.357481e-01	1.101028e+00	8.780579e-01	1.090336e+00	1.087303e+00	9.861747e-01	7.996810e-01	8.101931e-01	1.122121e+00	8.185777e-01	9.865720e-01	1.146690e+00	1.105994e+00	1.144059e+00	1.078630e+00	1.128363e+00	9.233752e-01	1.231575e+00	9.284858e-01	9.325791e-01	1.154380e+00	1.129953e+00	1.180674e+00	1.015158e+00	8.612636e-01	8.157740e-01	1.219453e+00	1.002460e+00	9.253675e-01	1.048425e+00	8.175916e-01	8.139618e-01	8.120485e-01	9.144514e-01	9.194514e-01	1.095699e+00	1.042610e+00	1.086646e+00	1.254722e+00	1.296780e+00	1.080023e+00	1.065697e+00	1.113094e+00	8.850769e-01	9.764678e-01	9.814543e-01	9.914457e-01	9.961800e-01	9.673450e-01	9.532276e-01	1.000601e+00	1.004865e+00	1.008993e+00	1.041504e+00	1.053083e+00	9.467830e-01	9.520099e-01	1.137242e+00	8.681880e-01	8.708778e-01	8.628915e-01	8.647398e-01	1.024016e+00	1.031674e+00	8.890453e-01	8.805675e-01	8.871636e-01	1.091099e+00	1.102745e+00	9.376994e-01	9.429729e-01	9.168469e-01	9.067123e-01	8.977326e-01	8.901422e-01	8.945287e-01	1.037320e+00	1.017888e+00	9.993636e-01	9.825204e-01	8.403462e-01	8.449177e-01	8.502770e-01	8.555067e-01	8.678873e-01	8.623211e-01	8.570872e-01	8.523891e-01	8.481698e-01	8.372775e-01	8.357790e-01	8.444956e-01	8.519453e-01	1.094598e+00	1.093694e+00	8.471129e-01	8.425725e-01	8.383061e-01	8.343313e-01	8.306836e-01	8.267140e-01	8.370070e-01	8.083620e-01	8.067217e-01	7.994760e-01	7.997870e-01	8.005599e-01	8.013208e-01	1.067036e+00	1.060922e+00	1.054746e+00	1.042065e+00	1.035732e+00	1.029377e+00	1.021907e+00	1.008917e+00	1.000854e+00	9.934155e-01	9.782013e-01	9.709462e-01	9.627751e-01	9.556023e-01	9.473440e-01	9.403419e-01	9.321268e-01	8.671575e-01	8.716354e-01	9.108884e-01	9.031837e-01	8.972822e-01	8.900704e-01	8.051289e-01	8.037592e-01	8.024284e-01	8.014049e-01	8.005087e-01	7.999144e-01	8.491563e-01	8.646819e-01	9.615799e-01	9.667450e-01	9.715008e-01	8.740578e-01	8.763937e-01	8.803123e-01	8.841513e-01	9.071380e-01	9.340040e-01	8.024373e-01	8.047377e-01	8.085449e-01	8.129943e-01	8.273987e-01	8.245105e-01	8.219274e-01	8.194786e-01	1.072934e+00	1.083245e+00	1.078474e+00	8.977850e-01	9.024034e-01	9.058996e-01	9.107227e-01	8.412954e-01	8.387080e-01	8.367780e-01	1.148041e+00	1.125339e+00	1.073700e+00	1.177464e+00	1.171253e+00	9.363566e-01	9.362362e-01	1.193491e+00	1.096512e+00	1.235370e+00	1.081040e+00	8.826381e-01	8.074877e-01	1.018754e+00	1.127217e+00	1.235020e+00	1.292342e+00	1.294393e+00	1.281541e+00	1.250856e+00	1.138726e+00	8.218858e-01	1.084565e+00	1.121532e+00	1.026536e+00	9.595525e-01	8.664487e-01	1.115921e+00	1.068632e+00	1.082002e+00	8.772584e-01	8.675790e-01	9.226688e-01	9.813241e-01	8.605227e-01	8.874665e-01	8.230269e-01	1.109669e+00	9.483261e-01	1.165198e+00	1.099795e+00	1.292594e+00	1.182391e+00	1.173231e+00	1.019709e+00	1.061200e+00	1.266781e+00	9.859274e-01	1.215153e+00	1.088028e+00	1.162073e+00	1.177068e+00	1.178081e+00	1.125456e+00	8.423414e-01	8.430616e-01	1.104115e+00	8.873976e-01	1.085388e+00	1.113479e+00	9.275281e-01	1.200221e+00	8.193226e-01	8.181519e-01	8.155906e-01	9.187451e-01	1.053337e+00	1.090055e+00	1.275320e+00	1.103674e+00	9.825443e-01	9.866627e-01	9.920413e-01	9.964697e-01	9.611437e-01	9.754049e-01	1.001596e+00	1.005590e+00	1.010533e+00	1.015604e+00	1.052033e+00	1.062701e+00	9.507745e-01	1.128576e+00	8.712715e-01	8.741398e-01	8.679811e-01	8.702806e-01	1.033970e+00	1.042181e+00	8.963803e-01	8.873105e-01	1.095031e+00	1.104730e+00	9.443337e-01	9.247095e-01	9.138427e-01	9.071394e-01	8.946713e-01	1.042290e+00	1.023691e+00	1.005885e+00	9.903799e-01	8.451829e-01	8.475604e-01	8.527324e-01	8.570468e-01	8.623081e-01	8.748629e-01	8.704257e-01	8.633701e-01	8.598474e-01	8.541418e-01	1.094056e+00	1.092108e+00	1.090215e+00	8.544698e-01	8.505408e-01	8.453165e-01	8.418983e-01	8.372307e-01	8.441741e-01	8.563216e-01	8.146145e-01	8.122800e-01	8.068767e-01	8.096730e-01	8.116682e-01	1.062739e+00	1.057307e+00	1.051233e+00	1.045397e+00	1.039183e+00	1.033238e+00	1.026400e+00	1.016506e+00	1.007101e+00	9.954093e-01	9.666442e-01	9.518558e-01	9.371626e-01	9.086854e-01	8.963425e-01	8.116861e-01	8.095952e-01	8.093751e-01	8.074478e-01	8.078130e-01	8.070909e-01	8.070698e-01	8.705885e-01	8.867695e-01	9.677240e-01	9.722039e-01	9.772501e-01	8.772430e-01	8.810888e-01	9.067063e-01	9.305845e-01	9.565578e-01	8.136640e-01	8.166620e-01	8.215469e-01	8.285771e-01	8.356967e-01	8.345091e-01	8.306069e-01	8.288526e-01	8.259266e-01	1.078206e+00	1.072948e+00	9.022889e-01	9.103137e-01	8.515896e-01	8.470923e-01	8.456998e-01	8.427563e-01	1.166079e+00	1.154373e+00	1.181132e+00	1.255022e+00	1.180682e+00	1.088606e+00	1.106551e+00	1.183447e+00	1.086404e+00	1.141047e+00	1.105940e+00	1.255352e+00	1.081793e+00	1.161519e+00	8.283560e-01	1.177728e+00	1.061021e+00	1.152391e+00	1.141405e+00	1.079417e+00	8.887767e-01	1.101712e+00	8.496279e-01	1.035158e+00	1.024787e+00	9.105843e-01	9.441488e-01	8.864397e-01	1.231229e+00	8.726258e-01	9.701071e-01	9.572517e-01	8.170761e-01	1.094244e+00	1.066036e+00	1.212936e+00	1.031069e+00	1.070051e+00	1.170730e+00	1.097579e+00	1.291377e+00	1.245010e+00	1.113743e+00	9.441184e-01	8.699274e-01	8.601482e-01	1.112127e+00	1.173869e+00	1.129518e+00	1.275274e+00	1.176732e+00	1.064231e+00	1.216971e+00	1.199796e+00	8.879246e-01	1.101524e+00	1.083948e+00	1.080341e+00	8.784892e-01	8.245265e-01	8.209539e-01	9.358408e-01	1.091897e+00	1.122823e+00	1.122163e+00	9.901088e-01	9.994745e-01	9.829591e-01	1.009046e+00	1.017499e+00	1.060612e+00	1.120996e+00	8.760407e-01	1.043356e+00	1.051493e+00	8.995875e-01	1.097454e+00	9.513347e-01	9.587255e-01	9.279790e-01	9.145324e-01	8.954110e-01	1.046623e+00	1.028063e+00	1.011290e+00	9.997295e-01	8.534326e-01	8.612355e-01	8.688054e-01	8.739957e-01	8.636282e-01	1.091456e+00	1.088962e+00	8.508913e-01	8.427931e-01	8.759476e-01	8.180896e-01	8.223545e-01	1.003207e+00	1.056077e+00	1.044849e+00	1.033309e+00	1.022722e+00	1.013330e+00	9.908628e-01	9.771778e-01	9.630825e-01	9.489458e-01	9.347904e-01	9.208292e-01	9.081400e-01	8.976307e-01	8.160140e-01	8.146917e-01	8.149002e-01	8.136359e-01	8.157054e-01	8.921538e-01	9.090151e-01	9.672253e-01	9.753082e-01	9.832416e-01	8.800437e-01	8.837656e-01	9.281710e-01	9.512485e-01	9.763828e-01	1.002489e+00	8.261814e-01	8.297951e-01	8.353622e-01	8.438604e-01	8.547251e-01	8.607289e-01	8.364383e-01	8.327655e-01	1.077801e+00	1.073296e+00	9.028211e-01	9.186993e-01	9.271848e-01	8.557427e-01	8.507515e-01	1.117386e+00	1.166019e+00	1.161179e+00	1.136250e+00	1.025440e+00	1.108367e+00	1.173798e+00	1.135622e+00	1.185599e+00	1.135177e+00	1.147605e+00	1.126776e+00	1.092544e+00	1.193643e+00	1.235644e+00	1.088366e+00	9.515636e-01	8.360353e-01	1.125041e+00	1.017118e+00	1.099437e+00	8.876000e-01	1.066700e+00	1.169560e+00	8.756743e-01	1.043564e+00	9.189708e-01	8.966142e-01	1.083527e+00	1.091447e+00	1.082166e+00	1.066992e+00	1.171389e+00	1.098733e+00	1.103070e+00	1.082832e+00	8.282743e-01	8.985269e-01	9.355613e-01	9.897112e-01	1.150516e+00	1.157256e+00	1.272026e+00	1.075360e+00	1.085452e+00	1.175644e+00	1.099194e+00	1.169073e+00	1.152261e+00	8.908390e-01	1.224919e+00	9.799325e-01	9.646359e-01	1.094847e+00	1.233627e+00	1.067208e+00	1.106562e+00	9.438784e-01	1.254330e+00	1.176116e+00	1.005220e+00	1.213104e+00	1.200154e+00	8.800180e-01	1.117587e+00	1.079352e+00	8.890015e-01	8.319180e-01	9.086733e-01	1.118367e+00	1.143469e+00	9.980171e-01	1.007567e+00	1.025389e+00	1.034298e+00	1.114270e+00	8.793595e-01	1.051241e+00	1.058997e+00	8.698562e-01	9.748504e-01	9.827838e-01	9.588130e-01	9.500038e-01	9.347307e-01	9.199258e-01	1.049033e+00	8.580867e-01	8.628054e-01	9.055183e-01	8.915937e-01	9.271424e-01	1.091449e+00	8.707513e-01	8.612763e-01	8.330527e-01	1.059491e+00	1.049550e+00	1.009815e+00	1.038885e+00	1.028580e+00	1.019154e+00	9.991249e-01	9.867819e-01	9.735642e-01	9.600877e-01	9.464891e-01	9.328458e-01	9.199494e-01	8.253781e-01	8.235320e-01	8.226328e-01	8.226623e-01	8.228487e-01	8.272336e-01	9.122893e-01	9.305265e-01	9.665876e-01	9.900056e-01	8.825999e-01	8.863242e-01	9.484996e-01	9.694153e-01	9.929542e-01	1.016466e+00	1.041039e+00	8.401296e-01	8.459462e-01	8.513084e-01	8.595354e-01	8.716460e-01	8.526362e-01	8.455807e-01	8.403939e-01	1.074561e+00	1.067822e+00	9.035619e-01	9.111165e-01	8.791062e-01	8.689960e-01	8.616975e-01	8.577625e-01	1.152326e+00	1.152979e+00	1.149677e+00	1.121128e+00	1.156101e+00	1.140381e+00	1.113621e+00	1.050479e+00	1.172800e+00	1.120685e+00	1.117932e+00	1.071724e+00	1.166005e+00	1.084786e+00	8.330477e-01	1.137608e+00	1.141598e+00	1.128284e+00	1.169441e+00	1.070975e+00	9.260158e-01	1.027007e+00	1.024937e+00	9.594518e-01	1.132802e+00	1.131995e+00	1.128184e+00	1.171839e+00	1.172192e+00	9.001548e-01	9.