# vtk DataFile Version 3.0
vtk output
ASCII
DATASET UNSTRUCTURED_GRID
POINTS 200 float
9.997500e-01	-3.633243e-05	0.0	9.990000e-01	-1.454724e-04	0.0	9.977600e-01	-3.275080e-04	0.0	9.960200e-01	-5.899305e-04	0.0	9.937800e-01	-9.471070e-04	0.0	9.910500e-01	-1.422130e-03	0.0	9.878400e-01	-2.045595e-03	0.0	9.841300e-01	-2.853829e-03	0.0	9.799500e-01	-3.859154e-03	0.0	9.752800e-01	-5.058732e-03	0.0	9.701500e-01	-6.405740e-03	0.0	9.645400e-01	-7.841692e-03	0.0	9.584700e-01	-9.291238e-03	0.0	9.519400e-01	-1.069901e-02	0.0	9.449600e-01	-1.203704e-02	0.0	9.375400e-01	-1.330975e-02	0.0	9.296900e-01	-1.454442e-02	0.0	9.214000e-01	-1.577936e-02	0.0	9.127000e-01	-1.704182e-02	0.0	9.035800e-01	-1.835282e-02	0.0	8.940600e-01	-1.971601e-02	0.0	8.841500e-01	-2.112678e-02	0.0	8.738500e-01	-2.257692e-02	0.0	8.631800e-01	-2.405433e-02	0.0	8.521600e-01	-2.554835e-02	0.0	8.407700e-01	-2.705581e-02	0.0	8.290500e-01	-2.856749e-02	0.0	8.170100e-01	-3.007953e-02	0.0	8.046400e-01	-3.159111e-02	0.0	7.919700e-01	-3.309659e-02	0.0	7.790100e-01	-3.459269e-02	0.0	7.657800e-01	-3.607480e-02	0.0	7.522800e-01	-3.754036e-02	0.0	7.385200e-01	-3.898554e-02	0.0	7.245300e-01	-4.040444e-02	0.0	7.103200e-01	-4.179345e-02	0.0	6.958900e-01	-4.315001e-02	0.0	6.812700e-01	-4.446891e-02	0.0	6.664700e-01	-4.574716e-02	0.0	6.515000e-01	-4.698198e-02	0.0	6.363800e-01	-4.817006e-02	0.0	6.211300e-01	-4.930848e-02	0.0	6.057600e-01	-5.039541e-02	0.0	5.902800e-01	-5.142919e-02	0.0	5.747100e-01	-5.240779e-02	0.0	5.590600e-01	-5.333003e-02	0.0	5.433600e-01	-5.419383e-02	0.0	5.276100e-01	-5.499900e-02	0.0	5.118400e-01	-5.574390e-02	0.0	4.960500e-01	-5.642847e-02	0.0	4.802700e-01	-5.705137e-02	0.0	4.645100e-01	-5.761220e-02	0.0	4.487800e-01	-5.811052e-02	0.0	4.331100e-01	-5.854523e-02	0.0	4.175000e-01	-5.891610e-02	0.0	4.019700e-01	-5.922226e-02	0.0	3.865400e-01	-5.946281e-02	0.0	3.712300e-01	-5.963686e-02	0.0	3.560400e-01	-5.974362e-02	0.0	3.409900e-01	-5.978195e-02	0.0	3.261100e-01	-5.975073e-02	0.0	3.114000e-01	-5.964881e-02	0.0	2.968700e-01	-5.947485e-02	0.0	2.825500e-01	-5.922772e-02	0.0	2.684500e-01	-5.890616e-02	0.0	2.545700e-01	-5.850849e-02	0.0	2.409400e-01	-5.803382e-02	0.0	2.275700e-01	-5.748090e-02	0.0	2.144700e-01	-5.684841e-02	0.0	2.016600e-01	-5.613568e-02	0.0	1.891400e-01	-5.534102e-02	0.0	1.769300e-01	-5.446402e-02	0.0	1.650400e-01	-5.350382e-02	0.0	1.534900e-01	-5.246066e-02	0.0	1.422900e-01	-5.133424e-02	0.0	1.314400e-01	-5.012331e-02	0.0	1.209500e-01	-4.882760e-02	0.0	1.108500e-01	-4.744991e-02	0.0	1.011300e-01	-4.598805e-02	0.0	9.181000e-02	-4.444413e-02	0.0	8.290000e-02	-4.281927e-02	0.0	7.440000e-02	-4.111283e-02	0.0	6.633000e-02	-3.932833e-02	0.0	5.869000e-02	-3.746547e-02	0.0	5.149000e-02	-3.552627e-02	0.0	4.474000e-02	-3.351325e-02	0.0	3.844000e-02	-3.142610e-02	0.0	3.260000e-02	-2.926765e-02	0.0	2.723000e-02	-2.704160e-02	0.0	2.232000e-02	-2.474291e-02	0.0	1.790000e-02	-2.238558e-02	0.0	1.395000e-02	-1.995878e-02	0.0	1.049000e-02	-1.747380e-02	0.0	7.520000e-03	-1.493153e-02	0.0	5.040000e-03	-1.233216e-02	0.0	3.050000e-03	-9.674181e-03	0.0	1.560000e-03	-6.972847e-03	0.0	5.600000e-04	-4.207041e-03	0.0	6.000000e-05	-1.384192e-03	0.0	0.000000e+00	0.000000e+00	0.0	6.000000e-05	1.263952e-03	0.0	5.600000e-04	3.625996e-03	0.0	1.560000e-03	5.790654e-03	0.0	3.050000e-03	7.809573e-03	0.0	5.040000e-03	9.727732e-03	0.0	7.520000e-03	1.155285e-02	0.0	1.049000e-02	1.329990e-02	0.0	1.395000e-02	1.497938e-02	0.0	1.790000e-02	1.659920e-02	0.0	2.232000e-02	1.815897e-02	0.0	2.723000e-02	1.967184e-02	0.0	3.260000e-02	2.113369e-02	0.0	3.844000e-02	2.255221e-02	0.0	4.474000e-02	2.392876e-02	0.0	5.149000e-02	2.526473e-02	0.0	5.869000e-02	2.656314e-02	0.0	6.633000e-02	2.782473e-02	0.0	7.440000e-02	2.905016e-02	0.0	8.290000e-02	3.024135e-02	0.0	9.181000e-02	3.139721e-02	0.0	1.011300e-01	3.251926e-02	0.0	1.108500e-01	3.360747e-02	0.0	1.209500e-01	3.466071e-02	0.0	1.314400e-01	3.568084e-02	0.0	1.422900e-01	3.666559e-02	0.0	1.534900e-01	3.761471e-02	0.0	1.650400e-01	3.852855e-02	0.0	1.769300e-01	3.940643e-02	0.0	1.891400e-01	4.024691e-02	0.0	2.016600e-01	4.104918e-02	0.0	2.144700e-01	4.181177e-02	0.0	2.275700e-01	4.253427e-02	0.0	2.409400e-01	4.321496e-02	0.0	2.545700e-01	4.385262e-02	0.0	2.684500e-01	4.444583e-02	0.0	2.825500e-01	4.499231e-02	0.0	2.968700e-01	4.549087e-02	0.0	3.114000e-01	4.593973e-02	0.0	3.261100e-01	4.633645e-02	0.0	3.409900e-01	4.667915e-02	0.0	3.560400e-01	4.696596e-02	0.0	3.712300e-01	4.719432e-02	0.0	3.865400e-01	4.736191e-02	0.0	4.019700e-01	4.746660e-02	0.0	4.175000e-01	4.750592e-02	0.0	4.331100e-01	4.747754e-02	0.0	4.487800e-01	4.737921e-02	0.0	4.645100e-01	4.720858e-02	0.0	4.802700e-01	4.696368e-02	0.0	4.960500e-01	4.664248e-02	0.0	5.118400e-01	4.624306e-02	0.0	5.276100e-01	4.576427e-02	0.0	5.433600e-01	4.520443e-02	0.0	5.590600e-01	4.456316e-02	0.0	5.747100e-01	4.383933e-02	0.0	5.902800e-01	4.303359e-02	0.0	6.057600e-01	4.214621e-02	0.0	6.211300e-01	4.117857e-02	0.0	6.363800e-01	4.013204e-02	0.0	6.515000e-01	3.900858e-02	0.0	6.664700e-01	3.781154e-02	0.0	6.812700e-01	3.654514e-02	0.0	6.958900e-01	3.521351e-02	0.0	7.103200e-01	3.382147e-02	0.0	7.245300e-01	3.237658e-02	0.0	7.385200e-01	3.088418e-02	0.0	7.522800e-01	2.935121e-02	0.0	7.657800e-01	2.778757e-02	0.0	7.790100e-01	2.620165e-02	0.0	7.919700e-01	2.460107e-02	0.0	8.046400e-01	2.299639e-02	0.0	8.170100e-01	2.139722e-02	0.0	8.290500e-01	1.981593e-02	0.0	8.407700e-01	1.825931e-02	0.0	8.521600e-01	1.673580e-02	0.0	8.631800e-01	1.525625e-02	0.0	8.738500e-01	1.382115e-02	0.0	8.841500e-01	1.243370e-02	0.0	8.940600e-01	1.109512e-02	0.0	9.035800e-01	9.803710e-03	0.0	9.127000e-01	8.562176e-03	0.0	9.214000e-01	7.381464e-03	0.0	9.296900e-01	6.278136e-03	0.0	9.375400e-01	5.283163e-03	0.0	9.449600e-01	4.425693e-03	0.0	9.519400e-01	3.730648e-03	0.0	9.584700e-01	3.204143e-03	0.0	9.645400e-01	2.825994e-03	0.0	9.701500e-01	2.551328e-03	0.0	9.752800e-01	2.324325e-03	0.0	9.799500e-01	2.092737e-03	0.0	9.841300e-01	1.826837e-03	0.0	9.878400e-01	1.519805e-03	0.0	9.910500e-01	1.190159e-03	0.0	9.937800e-01	8.630063e-04	0.0	9.960200e-01	5.666220e-04	0.0	9.977600e-01	3.231875e-04	0.0	9.990000e-01	1.450782e-04	0.0	9.997500e-01	3.632618e-05	0.0	1.000000e+00	0.000000e+00	0.0	
CELLS 200	600
2	149	150	2	150	151	2	151	152	2	152	153	2	153	154	2	154	155	2	155	156	2	156	157	2	157	158	2	158	159	2	159	160	2	160	161	2	161	162	2	162	163	2	163	164	2	164	165	2	165	166	2	166	167	2	167	168	2	168	169	2	169	170	2	170	171	2	171	172	2	172	173	2	173	174	2	174	175	2	175	176	2	176	177	2	177	178	2	178	179	2	179	180	2	180	181	2	181	182	2	31	32	2	32	33	2	33	34	2	34	35	2	35	36	2	36	37	2	37	38	2	38	39	2	39	40	2	40	41	2	41	42	2	42	43	2	43	44	2	44	45	2	45	46	2	46	47	2	47	48	2	48	49	2	49	50	2	50	51	2	51	52	2	52	53	2	53	54	2	54	55	2	55	56	2	56	57	2	57	58	2	58	59	2	59	60	2	60	61	2	61	62	2	62	63	2	63	64	2	64	65	2	65	66	2	66	67	2	67	68	2	68	69	2	69	70	2	70	71	2	71	72	2	72	73	2	73	74	2	74	75	2	75	76	2	76	77	2	77	78	2	78	79	2	79	80	2	80	81	2	81	82	2	82	83	2	83	84	2	113	114	2	114	115	2	115	116	2	116	117	2	117	118	2	118	119	2	119	120	2	120	121	2	121	122	2	122	123	2	123	124	2	124	125	2	125	126	2	126	127	2	127	128	2	128	129	2	129	130	2	130	131	2	131	132	2	132	133	2	133	134	2	134	135	2	135	136	2	136	137	2	137	138	2	138	139	2	139	140	2	140	141	2	141	142	2	142	143	2	143	144	2	144	145	2	145	146	2	146	147	2	147	148	2	148	149	2	84	85	2	85	86	2	86	87	2	87	88	2	88	89	2	89	90	2	90	91	2	91	92	2	92	93	2	93	94	2	94	95	2	95	96	2	96	97	2	97	98	2	98	99	2	99	100	2	100	101	2	101	102	2	102	103	2	103	104	2	104	105	2	105	106	2	106	107	2	107	108	2	108	109	2	109	110	2	110	111	2	111	112	2	112	113	2	199	0	2	0	1	2	1	2	2	2	3	2	3	4	2	4	5	2	5	6	2	6	7	2	182	183	2	183	184	2	184	185	2	185	186	2	186	187	2	187	188	2	188	189	2	189	190	2	190	191	2	191	192	2	192	193	2	193	194	2	194	195	2	195	196	2	196	197	2	197	198	2	198	199	2	7	8	2	8	9	2	9	10	2	10	11	2	11	12	2	12	13	2	13	14	2	14	15	2	15	16	2	16	17	2	17	18	2	18	19	2	19	20	2	20	21	2	21	22	2	22	23	2	23	24	2	24	25	2	25	26	2	26	27	2	27	28	2	28	29	2	29	30	2	30	31	
CELL_TYPES 200
3	3	3	3	3	3	3	3	3	3	3	3	3	3	3	3	3	3	3	3	3	3	3	3	3	3	3	3	3	3	3	3	3	3	3	3	3	3	3	3	3	3	3	3	3	3	3	3	3	3	3	3	3	3	3	3	3	3	3	3	3	3	3	3	3	3	3	3	3	3	3	3	3	3	3	3	3	3	3	3	3	3	3	3	3	3	3	3	3	3	3	3	3	3	3	3	3	3	3	3	3	3	3	3	3	3	3	3	3	3	3	3	3	3	3	3	3	3	3	3	3	3	3	3	3	3	3	3	3	3	3	3	3	3	3	3	3	3	3	3	3	3	3	3	3	3	3	3	3	3	3	3	3	3	3	3	3	3	3	3	3	3	3	3	3	3	3	3	3	3	3	3	3	3	3	3	3	3	3	3	3	3	3	3	3	3	3	3	3	3	3	3	3	3	3	3	3	3	3	3	
POINT_DATA 200

SCALARS Conservative_1 float 1
LOOKUP_TABLE default
1.199829e+00	1.181605e+00	1.171182e+00	1.164745e+00	1.160173e+00	1.155710e+00	1.148826e+00	1.137908e+00	1.121726e+00	1.100369e+00	1.075077e+00	1.048462e+00	1.024890e+00	1.008351e+00	9.999743e-01	9.979144e-01	9.990230e-01	1.000465e+00	1.000492e+00	9.985022e-01	9.947174e-01	9.896945e-01	9.840190e-01	9.781626e-01	9.724028e-01	9.668506e-01	9.614973e-01	9.562962e-01	9.511827e-01	9.461254e-01	9.411081e-01	9.360872e-01	9.310285e-01	9.259485e-01	9.208986e-01	9.159272e-01	9.110529e-01	9.062803e-01	9.016207e-01	8.970906e-01	8.926899e-01	8.884291e-01	8.842906e-01	8.802912e-01	8.764457e-01	8.728058e-01	8.693610e-01	8.660471e-01	8.627171e-01	8.593613e-01	8.561824e-01	8.535347e-01	8.515323e-01	8.498836e-01	8.479152e-01	8.448745e-01	8.402595e-01	8.342161e-01	8.276235e-01	8.217414e-01	8.174592e-01	8.149713e-01	8.140048e-01	8.141258e-01	8.150239e-01	8.164996e-01	8.185036e-01	8.209519e-01	8.237586e-01	8.268110e-01	8.301286e-01	8.338747e-01	8.382966e-01	8.434620e-01	8.492943e-01	8.556468e-01	8.625845e-01	8.702860e-01	8.788084e-01	8.881909e-01	8.985454e-01	9.099309e-01	9.224989e-01	9.363672e-01	9.517259e-01	9.688523e-01	9.879746e-01	1.009452e+00	1.033769e+00	1.061242e+00	1.092402e+00	1.127714e+00	1.167026e+00	1.209875e+00	1.254551e+00	1.298039e+00	1.331740e+00	1.350898e+00	1.339547e+00	1.308306e+00	1.284317e+00	1.221199e+00	1.099623e+00	1.002167e+00	9.261546e-01	8.704055e-01	8.323776e-01	8.073320e-01	7.904632e-01	7.790315e-01	7.713413e-01	7.662229e-01	7.631165e-01	7.612840e-01	7.603507e-01	7.603129e-01	7.610422e-01	7.623019e-01	7.637703e-01	7.651195e-01	7.663649e-01	7.678306e-01	7.697764e-01	7.720536e-01	7.742629e-01	7.761747e-01	7.778801e-01	7.795260e-01	7.812163e-01	7.830222e-01	7.849997e-01	7.871330e-01	7.893498e-01	7.915502e-01	7.936919e-01	7.957506e-01	7.977172e-01	7.995532e-01	8.012704e-01	8.029921e-01	8.049475e-01	8.073076e-01	8.101169e-01	8.132966e-01	8.167728e-01	8.205248e-01	8.245472e-01	8.288590e-01	8.334214e-01	8.381751e-01	8.429816e-01	8.478470e-01	8.529622e-01	8.585913e-01	8.647652e-01	8.712777e-01	8.779447e-01	8.847855e-01	8.919683e-01	8.995337e-01	9.074270e-01	9.155610e-01	9.238881e-01	9.323962e-01	9.410548e-01	9.498501e-01	9.587321e-01	9.676832e-01	9.766292e-01	9.855724e-01	9.944299e-01	1.003121e+00	1.011583e+00	1.019732e+00	1.027521e+00	1.034930e+00	1.042005e+00	1.048925e+00	1.055951e+00	1.063472e+00	1.071786e+00	1.080987e+00	1.090696e+00	1.100048e+00	1.107794e+00	1.112598e+00	1.113370e+00	1.109746e+00	1.102492e+00	1.093771e+00	1.086664e+00	1.084143e+00	1.088047e+00	1.098264e+00	1.112841e+00	1.130009e+00	1.148474e+00	1.168634e+00	1.192714e+00	1.181127e+00	
SCALARS Conservative_2 float 1
LOOKUP_TABLE default
7.195730e-01	7.459470e-01	7.640356e-01	7.748422e-01	7.807312e-01	7.855020e-01	7.913058e-01	8.009698e-01	8.159794e-01	8.363880e-01	8.604798e-01	8.849268e-01	9.060852e-01	9.215737e-01	9.308026e-01	9.347671e-01	9.355223e-01	9.351623e-01	9.351464e-01	9.360863e-01	9.380356e-01	9.406932e-01	9.436835e-01	9.467160e-01	9.496041e-01	9.522820e-01	9.547448e-01	9.570346e-01	9.591618e-01	9.611587e-01	9.630603e-01	9.648589e-01	9.665688e-01	9.681877e-01	9.697029e-01	9.711024e-01	9.724007e-01	9.735789e-01	9.746471e-01	9.756207e-01	9.764807e-01	9.772619e-01	9.779379e-01	9.785460e-01	9.790534e-01	9.795011e-01	9.798665e-01	9.802014e-01	9.804742e-01	9.807240e-01	9.808917e-01	9.810044e-01	9.810470e-01	9.810764e-01	9.811117e-01	9.811855e-01	9.812246e-01	9.811481e-01	9.808241e-01	9.803280e-01	9.798231e-01	9.794089e-01	9.791587e-01	9.790071e-01	9.789546e-01	9.789106e-01	9.788979e-01	9.788448e-01	9.787646e-01	9.785904e-01	9.783356e-01	9.779465e-01	9.774250e-01	9.766912e-01	9.757322e-01	9.744078e-01	9.727379e-01	9.706280e-01	9.678473e-01	9.642411e-01	9.597189e-01	9.539890e-01	9.467877e-01	9.376981e-01	9.262046e-01	9.115784e-01	8.928875e-01	8.690566e-01	8.385127e-01	7.991058e-01	7.483494e-01	6.831967e-01	5.999852e-01	4.965141e-01	3.727983e-01	2.366036e-01	1.074451e-01	1.082258e-02	-2.156071e-02	5.237730e-03	7.302221e-02	2.103991e-01	4.133612e-01	5.901265e-01	7.151745e-01	7.967877e-01	8.484007e-01	8.813284e-01	9.026070e-01	9.169413e-01	9.269807e-01	9.341459e-01	9.396128e-01	9.438866e-01	9.473149e-01	9.502539e-01	9.527661e-01	9.549378e-01	9.568666e-01	9.585304e-01	9.600145e-01	9.614330e-01	9.628019e-01	9.640335e-01	9.651322e-01	9.660962e-01	9.669816e-01	9.677932e-01	9.685736e-01	9.693198e-01	9.700642e-01	9.707863e-01	9.714898e-01	9.721432e-01	9.727605e-01	9.733264e-01	9.738538e-01	9.743336e-01	9.747812e-01	9.752148e-01	9.756848e-01	9.761691e-01	9.766693e-01	9.771601e-01	9.776292e-01	9.780736e-01	9.784715e-01	9.788399e-01	9.791092e-01	9.793140e-01	9.794235e-01	9.794601e-01	9.794016e-01	9.792268e-01	9.788767e-01	9.783257e-01	9.776083e-01	9.766665e-01	9.755032e-01	9.740608e-01	9.723378e-01	9.703092e-01	9.679792e-01	9.653316e-01	9.623615e-01	9.590630e-01	9.554347e-01	9.515166e-01	9.472426e-01	9.427243e-01	9.379682e-01	9.329930e-01	9.279145e-01	9.227878e-01	9.176675e-01	9.125798e-01	9.074690e-01	9.022121e-01	8.965165e-01	8.900858e-01	8.825844e-01	8.740049e-01	8.647732e-01	8.559722e-01	8.491420e-01	8.458490e-01	8.471031e-01	8.528088e-01	8.615066e-01	8.705304e-01	8.765730e-01	8.769912e-01	8.704779e-01	8.577665e-01	8.395895e-01	8.174955e-01	7.911960e-01	7.596557e-01	7.213276e-01	6.623557e-01	
SCALARS Conservative_3 float 1
LOOKUP_TABLE default
1.010187e-01	1.066666e-01	1.128621e-01	1.197587e-01	1.301733e-01	1.447906e-01	1.632642e-01	1.836807e-01	2.028916e-01	2.169741e-01	2.227455e-01	2.186283e-01	2.055888e-01	1.874214e-01	1.688522e-01	1.535496e-01	1.431521e-01	1.374194e-01	1.349995e-01	1.342602e-01	1.339056e-01	1.331720e-01	1.317740e-01	1.297392e-01	1.272360e-01	1.244640e-01	1.215567e-01	1.186033e-01	1.156296e-01	1.126232e-01	1.095729e-01	1.064581e-01	1.032674e-01	9.999338e-02	9.662192e-02	9.316798e-02	8.962798e-02	8.602042e-02	8.235169e-02	7.863374e-02	7.487983e-02	7.109680e-02	6.730317e-02	6.350048e-02	5.969624e-02	5.588185e-02	5.206109e-02	4.824606e-02	4.446029e-02	4.070817e-02	3.695338e-02	3.313905e-02	2.924272e-02	2.525130e-02	2.119699e-02	1.712380e-02	1.307692e-02	9.043529e-03	4.915972e-03	5.572802e-04	-4.069447e-03	-8.942547e-03	-1.405054e-02	-1.938197e-02	-2.497510e-02	-3.085801e-02	-3.708705e-02	-4.367909e-02	-5.066771e-02	-5.807289e-02	-6.594163e-02	-7.433810e-02	-8.333269e-02	-9.295791e-02	-1.032565e-01	-1.142803e-01	-1.261405e-01	-1.389039e-01	-1.526463e-01	-1.674922e-01	-1.835600e-01	-2.009621e-01	-2.198544e-01	-2.403716e-01	-2.626344e-01	-2.867610e-01	-3.128222e-01	-3.407634e-01	-3.701976e-01	-4.003934e-01	-4.298742e-01	-4.555324e-01	-4.722922e-01	-4.717371e-01	-4.409501e-01	-3.645084e-01	-2.307044e-01	-3.814582e-02	1.856768e-01	3.517244e-01	4.962065e-01	6.609548e-01	7.235909e-01	6.884711e-01	6.113422e-01	5.276853e-01	4.532087e-01	3.914331e-01	3.412281e-01	3.001989e-01	2.666080e-01	2.386697e-01	2.152091e-01	1.952737e-01	1.781273e-01	1.632554e-01	1.502728e-01	1.388272e-01	1.286644e-01	1.195126e-01	1.111726e-01	1.035753e-01	9.667124e-02	9.036812e-02	8.453582e-02	7.902798e-02	7.381868e-02	6.888329e-02	6.421250e-02	5.975604e-02	5.548204e-02	5.135892e-02	4.735520e-02	4.343313e-02	3.956817e-02	3.574077e-02	3.193703e-02	2.813519e-02	2.430556e-02	2.042744e-02	1.650506e-02	1.254307e-02	8.533147e-03	4.444620e-03	2.551760e-04	-4.048305e-03	-8.469676e-03	-1.300205e-02	-1.765360e-02	-2.242150e-02	-2.731486e-02	-3.236093e-02	-3.752341e-02	-4.278116e-02	-4.808292e-02	-5.344343e-02	-5.887294e-02	-6.434957e-02	-6.981743e-02	-7.523489e-02	-8.056205e-02	-8.578532e-02	-9.084579e-02	-9.571441e-02	-1.003214e-01	-1.046428e-01	-1.086078e-01	-1.121816e-01	-1.153089e-01	-1.179457e-01	-1.200511e-01	-1.215913e-01	-1.225674e-01	-1.230049e-01	-1.229765e-01	-1.226279e-01	-1.221339e-01	-1.216723e-01	-1.213148e-01	-1.208973e-01	-1.198877e-01	-1.173901e-01	-1.122872e-01	-1.036948e-01	-9.142332e-02	-7.639474e-02	-6.077199e-02	-4.764151e-02	-4.024816e-02	-4.079558e-02	-4.937930e-02	-6.376458e-02	-8.014442e-02	-9.479021e-02	-1.049810e-01	-1.097963e-01	-1.102832e-01	-1.061996e-01	-1.003430e-01	2.575586e-03	
SCALARS Conservative_4 float 1
LOOKUP_TABLE default
3.446401e+00	3.400794e+00	3.375509e+00	3.359994e+00	3.348848e+00	3.337979e+00	3.320886e+00	3.293698e+00	3.253324e+00	3.199990e+00	3.136716e+00	3.069892e+00	3.010532e+00	2.968865e+00	2.947790e+00	2.942597e+00	2.945342e+00	2.948898e+00	2.948871e+00	2.943738e+00	2.934063e+00	2.921245e+00	2.906756e+00	2.891789e+00	2.877046e+00	2.862813e+00	2.849067e+00	2.835696e+00	2.822531e+00	2.809493e+00	2.796551e+00	2.783583e+00	2.770503e+00	2.757354e+00	2.744267e+00	2.731368e+00	2.718711e+00	2.706301e+00	2.694171e+00	2.682369e+00	2.670888e+00	2.659765e+00	2.648945e+00	2.638484e+00	2.628410e+00	2.618871e+00	2.609831e+00	2.601136e+00	2.592389e+00	2.583577e+00	2.575214e+00	2.568238e+00	2.562944e+00	2.558581e+00	2.553386e+00	2.545393e+00	2.533265e+00	2.517368e+00	2.499970e+00	2.484398e+00	2.473027e+00	2.466392e+00	2.463801e+00	2.464096e+00	2.466469e+00	2.470369e+00	2.475679e+00	2.482158e+00	2.489591e+00	2.497664e+00	2.506438e+00	2.516331e+00	2.527999e+00	2.541606e+00	2.556958e+00	2.573639e+00	2.591845e+00	2.612036e+00	2.634313e+00	2.658767e+00	2.685706e+00	2.715243e+00	2.747763e+00	2.783532e+00	2.823002e+00	2.866831e+00	2.915532e+00	2.969987e+00	3.031346e+00	3.100260e+00	3.177992e+00	3.265586e+00	3.362402e+00	3.467252e+00	3.575820e+00	3.681273e+00	3.762475e+00	3.809719e+00	3.781268e+00	3.702956e+00	3.649775e+00	3.500084e+00	3.191173e+00	2.943336e+00	2.748312e+00	2.604458e+00	2.506102e+00	2.441245e+00	2.397399e+00	2.367588e+00	2.347505e+00	2.334077e+00	2.325946e+00	2.321172e+00	2.318770e+00	2.318766e+00	2.320788e+00	2.324208e+00	2.328195e+00	2.331863e+00	2.335264e+00	2.339269e+00	2.344548e+00	2.350679e+00	2.356617e+00	2.361758e+00	2.366356e+00	2.370792e+00	2.375348e+00	2.380206e+00	2.385523e+00	2.391247e+00	2.397193e+00	2.403087e+00	2.408824e+00	2.414334e+00	2.419598e+00	2.424511e+00	2.429109e+00	2.433721e+00	2.438961e+00	2.445269e+00	2.452764e+00	2.461232e+00	2.470478e+00	2.480449e+00	2.491124e+00	2.502561e+00	2.514638e+00	2.527212e+00	2.539912e+00	2.552762e+00	2.566257e+00	2.581090e+00	2.597325e+00	2.614417e+00	2.631894e+00	2.649790e+00	2.668554e+00	2.688278e+00	2.708822e+00	2.729949e+00	2.751537e+00	2.773551e+00	2.795910e+00	2.818577e+00	2.841418e+00	2.864399e+00	2.887303e+00	2.910166e+00	2.932766e+00	2.954889e+00	2.976397e+00	2.997074e+00	3.016809e+00	3.035551e+00	3.053415e+00	3.070862e+00	3.088527e+00	3.107396e+00	3.128194e+00	3.151173e+00	3.175380e+00	3.198700e+00	3.218058e+00	3.230158e+00	3.232268e+00	3.223417e+00	3.205424e+00	3.183648e+00	3.165745e+00	3.159182e+00	3.168640e+00	3.193995e+00	3.230134e+00	3.272654e+00	3.318094e+00	3.367488e+00	3.426998e+00	3.383859e+00	
SCALARS Pressure float 1
LOOKUP_TABLE default
1.290549e+00	1.264208e+00	1.248343e+00	1.238443e+00	1.231541e+00	1.224787e+00	1.214704e+00	1.198789e+00	1.175276e+00	1.144292e+00	1.107713e+00	1.069459e+00	1.035754e+00	1.012126e+00	1.000130e+00	9.971904e-01	9.988226e-01	1.000960e+00	1.001091e+00	9.983702e-01	9.931031e-01	9.860905e-01	9.781727e-01	9.700179e-01	9.620209e-01	9.543342e-01	9.469453e-01	9.397819e-01	9.327594e-01	9.258299e-01	9.189640e-01	9.121089e-01	9.052173e-01	8.983111e-01	8.914606e-01	8.847317e-01	8.781451e-01	8.717126e-01	8.654465e-01	8.593641e-01	8.534715e-01	8.477726e-01	8.422531e-01	8.369241e-01	8.318162e-01	8.269851e-01	8.224251e-01	8.180365e-01	8.136365e-01	8.092000e-01	8.050133e-01	8.015356e-01	7.989245e-01	7.967780e-01	7.942019e-01	7.901899e-01	7.840976e-01	7.761355e-01	7.675055e-01	7.598550e-01	7.543197e-01	7.511322e-01	7.499076e-01	7.500900e-01	7.512630e-01	7.531890e-01	7.557908e-01	7.589776e-01	7.626255e-01	7.666034e-01	7.709271e-01	7.758248e-01	7.816141e-01	7.884005e-01	7.960739e-01	8.044726e-01	8.136572e-01	8.238724e-01	8.352410e-01	8.478294e-01	8.617711e-01	8.771844e-01	8.942826e-01	9.132657e-01	9.344322e-01	9.582191e-01	9.850128e-01	1.015351e+00	1.049997e+00	1.089548e+00	1.134833e+00	1.186653e+00	1.245041e+00	1.309362e+00	1.377175e+00	1.443412e+00	1.495263e+00	1.523655e+00	1.507290e+00	1.462267e+00	1.420737e+00	1.321237e+00	1.150162e+00	1.013242e+00	9.081660e-01	8.319219e-01	7.801424e-01	7.461194e-01	7.233670e-01	7.080458e-01	6.977669e-01	6.909880e-01	6.868542e-01	6.843934e-01	6.831115e-01	6.829662e-01	6.838229e-01	6.853761e-01	6.871867e-01	6.888451e-01	6.903610e-01	6.921431e-01	6.945454e-01	6.974057e-01	7.001899e-01	7.025962e-01	7.047309e-01	7.067934e-01	7.089107e-01	7.111821e-01	7.136731e-01	7.163708e-01	7.191772e-01	7.219704e-01	7.246890e-01	7.273067e-01	7.298071e-01	7.321422e-01	7.343233e-01	7.365093e-01	7.389892e-01	7.419985e-01	7.455950e-01	7.496803e-01	7.541584e-01	7.590009e-01	7.642062e-01	7.697918e-01	7.757276e-01	7.819211e-01	7.881978e-01	7.945568e-01	8.012561e-01	8.086471e-01	8.167862e-01	8.254061e-01	8.342508e-01	8.433623e-01	8.529563e-01	8.631003e-01	8.737198e-01	8.847057e-01	8.959933e-01	9.075693e-01	9.193948e-01	9.314520e-01	9.436769e-01	9.560348e-01	9.684502e-01	9.808955e-01	9.932652e-01	1.005454e+00	1.017355e+00	1.028850e+00	1.039868e+00	1.050375e+00	1.060442e+00	1.070318e+00	1.080392e+00	1.091216e+00	1.103239e+00	1.116589e+00	1.130711e+00	1.144315e+00	1.155538e+00	1.162403e+00	1.163341e+00	1.157886e+00	1.147236e+00	1.134584e+00	1.124429e+00	1.121039e+00	1.126992e+00	1.141975e+00	1.163386e+00	1.188646e+00	1.216107e+00	1.246304e+00	1.281862e+00	1.279255e+00	
SCALARS Temperature float 1
LOOKUP_TABLE default
1.075611e+00	1.069908e+00	1.065883e+00	1.063274e+00	1.061514e+00	1.059771e+00	1.057344e+00	1.053502e+00	1.047739e+00	1.039916e+00	1.030356e+00	1.020026e+00	1.010601e+00	1.003744e+00	1.000156e+00	9.992745e-01	9.997994e-01	1.000494e+00	1.000600e+00	9.998678e-01	9.983772e-01	9.963584e-01	9.940588e-01	9.916735e-01	9.893234e-01	9.870544e-01	9.848652e-01	9.827309e-01	9.806311e-01	9.785489e-01	9.764702e-01	9.743846e-01	9.722767e-01	9.701523e-01	9.680333e-01	9.659411e-01	9.638794e-01	9.618577e-01	9.598788e-01	9.579457e-01	9.560672e-01	9.542378e-01	9.524619e-01	9.507356e-01	9.490790e-01	9.475018e-01	9.460111e-01	9.445635e-01	9.431093e-01	9.416295e-01	9.402357e-01	9.390780e-01	9.382198e-01	9.375143e-01	9.366525e-01	9.352749e-01	9.331613e-01	9.303771e-01	9.273607e-01	9.246887e-01	9.227612e-01	9.216670e-01	9.212571e-01	9.213441e-01	9.217681e-01	9.224609e-01	9.233812e-01	9.245092e-01	9.257877e-01	9.271810e-01	9.286841e-01	9.303853e-01	9.323837e-01	9.347196e-01	9.373357e-01	9.401924e-01	9.432782e-01	9.466685e-01	9.504245e-01	9.545576e-01	9.590735e-01	9.640120e-01	9.694132e-01	9.753286e-01	9.818292e-01	9.890250e-01	9.970021e-01	1.005844e+00	1.015698e+00	1.026672e+00	1.038843e+00	1.052264e+00	1.066850e+00	1.082229e+00	1.097743e+00	1.111994e+00	1.122789e+00	1.127883e+00	1.125224e+00	1.117679e+00	1.106220e+00	1.081918e+00	1.045960e+00	1.011051e+00	9.805771e-01	9.557865e-01	9.372458e-01	9.241792e-01	9.151179e-01	9.088795e-01	9.046150e-01	9.018107e-01	9.000647e-01	8.989988e-01	8.984163e-01	8.982699e-01	8.985348e-01	8.990875e-01	8.997296e-01	9.003105e-01	9.008254e-01	9.014268e-01	9.022690e-01	9.033125e-01	9.043310e-01	9.052036e-01	9.059634e-01	9.066964e-01	9.074449e-01	9.082529e-01	9.091381e-01	9.101013e-01	9.111009e-01	9.120968e-01	9.130609e-01	9.139882e-01	9.148694e-01	9.156893e-01	9.164489e-01	9.172062e-01	9.180589e-01	9.191026e-01	9.203548e-01	9.217797e-01	9.233392e-01	9.250188e-01	9.268192e-01	9.287368e-01	9.307747e-01	9.328852e-01	9.350119e-01	9.371465e-01	9.393804e-01	9.418301e-01	9.445180e-01	9.473513e-01	9.502316e-01	9.531827e-01	9.562630e-01	9.594975e-01	9.628541e-01	9.662991e-01	9.698072e-01	9.733730e-01	9.769833e-01	9.806305e-01	9.842967e-01	9.879626e-01	9.916253e-01	9.952546e-01	9.988288e-01	1.002326e+00	1.005706e+00	1.008942e+00	1.012016e+00	1.014924e+00	1.017694e+00	1.020395e+00	1.023146e+00	1.026088e+00	1.029347e+00	1.032934e+00	1.036687e+00	1.040240e+00	1.043098e+00	1.044765e+00	1.044882e+00	1.043379e+00	1.040585e+00	1.037314e+00	1.034753e+00	1.034032e+00	1.035794e+00	1.039800e+00	1.045420e+00	1.051891e+00	1.058889e+00	1.066462e+00	1.074744e+00	1.083080e+00	
SCALARS Pressure_Coefficient float 1
LOOKUP_TABLE default
6.485479e-01	5.897510e-01	5.543368e-01	5.322380e-01	5.168318e-01	5.017573e-01	4.792507e-01	4.437259e-01	3.912411e-01	3.220804e-01	2.404302e-01	1.550425e-01	7.980906e-02	2.706700e-02	2.909929e-04	-6.271358e-03	-2.628207e-03	2.142250e-03	2.436081e-03	-3.637999e-03	-1.539481e-02	-3.104802e-02	-4.872160e-02	-6.692431e-02	-8.477475e-02	-1.019327e-01	-1.184257e-01	-1.344154e-01	-1.500906e-01	-1.655581e-01	-1.808839e-01	-1.961854e-01	-2.115686e-01	-2.269842e-01	-2.422755e-01	-2.572953e-01	-2.719974e-01	-2.863558e-01	-3.003426e-01	-3.139195e-01	-3.270725e-01	-3.397934e-01	-3.521135e-01	-3.640086e-01	-3.754102e-01	-3.861941e-01	-3.963725e-01	-4.061685e-01	-4.159900e-01	-4.258929e-01	-4.352383e-01	-4.430008e-01	-4.488292e-01	-4.536205e-01	-4.593708e-01	-4.683261e-01	-4.819250e-01	-4.996975e-01	-5.189609e-01	-5.360379e-01	-5.483936e-01	-5.555085e-01	-5.582419e-01	-5.578348e-01	-5.552166e-01	-5.509174e-01	-5.451098e-01	-5.379965e-01	-5.298537e-01	-5.209745e-01	-5.113233e-01	-5.003910e-01	-4.874686e-01	-4.723203e-01	-4.551922e-01	-4.364451e-01	-4.159437e-01	-3.931420e-01	-3.677656e-01	-3.396666e-01	-3.085466e-01	-2.741420e-01	-2.359763e-01	-1.936034e-01	-1.463566e-01	-9.326092e-02	-3.345365e-02	3.426491e-02	1.116010e-01	1.998830e-01	3.009668e-01	4.166362e-01	5.469674e-01	6.905401e-01	8.419086e-01	9.897587e-01	1.105498e+00	1.168872e+00	1.132345e+00	1.031845e+00	9.391449e-01	7.170480e-01	3.351836e-01	2.955710e-02	-2.049867e-01	-3.751744e-01	-4.907536e-01	-5.666977e-01	-6.174843e-01	-6.516835e-01	-6.746273e-01	-6.897589e-01	-6.989861e-01	-7.044789e-01	-7.073405e-01	-7.076647e-01	-7.057524e-01	-7.022856e-01	-6.982439e-01	-6.945421e-01	-6.911585e-01	-6.871807e-01	-6.818184e-01	-6.754336e-01	-6.692189e-01	-6.638478e-01	-6.590829e-01	-6.544790e-01	-6.497529e-01	-6.446828e-01	-6.391225e-01	-6.331009e-01	-6.268365e-01	-6.206018e-01	-6.145335e-01	-6.086904e-01	-6.031092e-01	-5.978968e-01	-5.930283e-01	-5.881488e-01	-5.826135e-01	-5.758961e-01	-5.678684e-01	-5.587492e-01	-5.487536e-01	-5.379445e-01	-5.263256e-01	-5.138575e-01	-5.006081e-01	-4.867833e-01	-4.727728e-01	-4.585785e-01	-4.436249e-01	-4.271270e-01	-4.089593e-01	-3.897186e-01	-3.699759e-01	-3.496378e-01	-3.282227e-01	-3.055796e-01	-2.818754e-01	-2.573534e-01	-2.321578e-01	-2.063185e-01	-1.799223e-01	-1.530090e-01	-1.257213e-01	-9.813663e-02	-7.042357e-02	-4.264387e-02	-1.503297e-02	1.217518e-02	3.873930e-02	6.439780e-02	8.899138e-02	1.124453e-01	1.349156e-01	1.569597e-01	1.794471e-01	2.036074e-01	2.304442e-01	2.602427e-01	2.917645e-01	3.221311e-01	3.471830e-01	3.625076e-01	3.645998e-01	3.524240e-01	3.286528e-01	3.004110e-01	2.777443e-01	2.701759e-01	2.834650e-01	3.169085e-01	3.647012e-01	4.210844e-01	4.823816e-01	5.497856e-01	6.291564e-01	6.233371e-01	
SCALARS Mach float 1
LOOKUP_TABLE default
4.935167e-01	5.210673e-01	5.398309e-01	5.517245e-01	5.596364e-01	5.673931e-01	5.780565e-01	5.946432e-01	6.189113e-01	6.508020e-01	6.883786e-01	7.275290e-01	7.621476e-01	7.867619e-01	7.994690e-01	8.025745e-01	8.007262e-01	7.982754e-01	7.979045e-01	8.004851e-01	8.057286e-01	8.128005e-01	8.208167e-01	8.290879e-01	8.371958e-01	8.449865e-01	8.524689e-01	8.597328e-01	8.668504e-01	8.738809e-01	8.808732e-01	8.878628e-01	8.949020e-01	9.019712e-01	9.089981e-01	9.159133e-01	9.227059e-01	9.293468e-01	9.358281e-01	9.421419e-01	9.482611e-01	9.542060e-01	9.599630e-01	9.655472e-01	9.708944e-01	9.759755e-01	9.807690e-01	9.854161e-01	9.900766e-01	9.948114e-01	9.992643e-01	1.002958e+00	1.005693e+00	1.007939e+00	1.010681e+00	1.015059e+00	1.021765e+00	1.030578e+00	1.040101e+00	1.048515e+00	1.054573e+00	1.058008e+00	1.059294e+00	1.059021e+00	1.057691e+00	1.055516e+00	1.052625e+00	1.049080e+00	1.045056e+00	1.040667e+00	1.035926e+00	1.030552e+00	1.024229e+00	1.016823e+00	1.008507e+00	9.994023e-01	9.895356e-01	9.786559e-01	9.665520e-01	9.531676e-01	9.384602e-01	9.222698e-01	9.044249e-01	8.847023e-01	8.627929e-01	8.382227e-01	8.105492e-01	7.792713e-01	7.435471e-01	7.025022e-01	6.550947e-01	5.999164e-01	5.353697e-01	4.598868e-01	3.712703e-01	2.683198e-01	1.524232e-01	2.335822e-02	1.111795e-01	2.149406e-01	3.138035e-01	4.615120e-01	6.262610e-01	7.605174e-01	8.670332e-01	9.491743e-01	1.008794e+00	1.050117e+00	1.078505e+00	1.097942e+00	1.111184e+00	1.119874e+00	1.125278e+00	1.128574e+00	1.130375e+00	1.130827e+00	1.130009e+00	1.128300e+00	1.126315e+00	1.124517e+00	1.122924e+00	1.121063e+00	1.118455e+00	1.115222e+00	1.112065e+00	1.109359e+00	1.107001e+00	1.104725e+00	1.102401e+00	1.099890e+00	1.097138e+00	1.094142e+00	1.091030e+00	1.087928e+00	1.084923e+00	1.082031e+00	1.079281e+00	1.076721e+00	1.074348e+00	1.071980e+00	1.069313e+00	1.066046e+00	1.062123e+00	1.057654e+00	1.052757e+00	1.047476e+00	1.041807e+00	1.035760e+00	1.029321e+00	1.022640e+00	1.015895e+00	1.009110e+00	1.001993e+00	9.941699e-01	9.855621e-01	9.764598e-01	9.671750e-01	9.576279e-01	9.476241e-01	9.370749e-01	9.260764e-01	9.147318e-01	9.031174e-01	8.912442e-01	8.791496e-01	8.668525e-01	8.544067e-01	8.418727e-01	8.292546e-01	8.166532e-01	8.041421e-01	7.917966e-01	7.797635e-01	7.681448e-01	7.570104e-01	7.463887e-01	7.361861e-01	7.261557e-01	7.158496e-01	7.047239e-01	6.922671e-01	6.783836e-01	6.636533e-01	6.495022e-01	6.379657e-01	6.311686e-01	6.306869e-01	6.368241e-01	6.481178e-01	6.611724e-01	6.712715e-01	6.740972e-01	6.671791e-01	6.512671e-01	6.284826e-01	6.015010e-01	5.712840e-01	5.371611e-01	4.977849e-01	4.554112e-01	