# vtk DataFile Version 3.0
vtk output
ASCII
DATASET UNSTRUCTURED_GRID
POINTS 5233 float
9.997500e-01	-3.633243e-05	0.0	9.990000e-01	-1.454723e-04	0.0	9.977600e-01	-3.275073e-04	0.0	9.960200e-01	-5.899270e-04	0.0	9.937800e-01	-9.470942e-04	0.0	9.910500e-01	-1.422095e-03	0.0	9.878400e-01	-2.045514e-03	0.0	9.841300e-01	-2.853669e-03	0.0	9.799500e-01	-3.858874e-03	0.0	9.752800e-01	-5.058290e-03	0.0	9.701500e-01	-6.405099e-03	0.0	9.645400e-01	-7.840828e-03	0.0	9.584700e-01	-9.290140e-03	0.0	9.519400e-01	-1.069768e-02	0.0	9.449600e-01	-1.203550e-02	0.0	9.375400e-01	-1.330799e-02	0.0	9.296900e-01	-1.454248e-02	0.0	9.214000e-01	-1.577722e-02	0.0	9.127000e-01	-1.703949e-02	0.0	9.035800e-01	-1.835031e-02	0.0	8.940600e-01	-1.971332e-02	0.0	8.841500e-01	-2.112392e-02	0.0	8.738500e-01	-2.257390e-02	0.0	8.631800e-01	-2.405116e-02	0.0	8.521600e-01	-2.554505e-02	0.0	8.407700e-01	-2.705239e-02	0.0	8.290500e-01	-2.856396e-02	0.0	8.170100e-01	-3.007590e-02	0.0	8.046400e-01	-3.158739e-02	0.0	7.919700e-01	-3.309279e-02	0.0	7.790100e-01	-3.458882e-02	0.0	7.657800e-01	-3.607087e-02	0.0	7.522800e-01	-3.753639e-02	0.0	7.385200e-01	-3.898152e-02	0.0	7.245300e-01	-4.040040e-02	0.0	7.103200e-01	-4.178939e-02	0.0	6.958900e-01	-4.314594e-02	0.0	6.812700e-01	-4.446485e-02	0.0	6.664700e-01	-4.574311e-02	0.0	6.515000e-01	-4.697796e-02	0.0	6.363800e-01	-4.816608e-02	0.0	6.211300e-01	-4.930456e-02	0.0	6.057600e-01	-5.039154e-02	0.0	5.902800e-01	-5.142539e-02	0.0	5.747100e-01	-5.240406e-02	0.0	5.590600e-01	-5.332638e-02	0.0	5.433600e-01	-5.419027e-02	0.0	5.276100e-01	-5.499552e-02	0.0	5.118400e-01	-5.574050e-02	0.0	4.960500e-01	-5.642515e-02	0.0	4.802700e-01	-5.704812e-02	0.0	4.645100e-01	-5.760903e-02	0.0	4.487800e-01	-5.810740e-02	0.0	4.331100e-01	-5.854215e-02	0.0	4.175000e-01	-5.891305e-02	0.0	4.019700e-01	-5.921922e-02	0.0	3.865400e-01	-5.945976e-02	0.0	3.712300e-01	-5.963378e-02	0.0	3.560400e-01	-5.974050e-02	0.0	3.409900e-01	-5.977875e-02	0.0	3.261100e-01	-5.974744e-02	0.0	3.114000e-01	-5.964541e-02	0.0	2.968700e-01	-5.947130e-02	0.0	2.825500e-01	-5.922401e-02	0.0	2.684500e-01	-5.890227e-02	0.0	2.545700e-01	-5.850439e-02	0.0	2.409400e-01	-5.802951e-02	0.0	2.275700e-01	-5.747634e-02	0.0	2.144700e-01	-5.684361e-02	0.0	2.016600e-01	-5.613062e-02	0.0	1.891400e-01	-5.533570e-02	0.0	1.769300e-01	-5.445842e-02	0.0	1.650400e-01	-5.349796e-02	0.0	1.534900e-01	-5.245453e-02	0.0	1.422900e-01	-5.132786e-02	0.0	1.314400e-01	-5.011669e-02	0.0	1.209500e-01	-4.882076e-02	0.0	1.108500e-01	-4.744286e-02	0.0	1.011300e-01	-4.598083e-02	0.0	9.181000e-02	-4.443677e-02	0.0	8.290000e-02	-4.281181e-02	0.0	7.440000e-02	-4.110530e-02	0.0	6.633000e-02	-3.932078e-02	0.0	5.869000e-02	-3.745796e-02	0.0	5.149000e-02	-3.551885e-02	0.0	4.474000e-02	-3.350598e-02	0.0	3.844000e-02	-3.141903e-02	0.0	3.260000e-02	-2.926086e-02	0.0	2.723000e-02	-2.703515e-02	0.0	2.232000e-02	-2.473687e-02	0.0	1.790000e-02	-2.238001e-02	0.0	1.395000e-02	-1.995376e-02	0.0	1.049000e-02	-1.746938e-02	0.0	7.520000e-03	-1.492778e-02	0.0	5.040000e-03	-1.232913e-02	0.0	3.050000e-03	-9.671895e-03	0.0	1.560000e-03	-6.971319e-03	0.0	5.600000e-04	-4.206243e-03	0.0	6.000000e-05	-1.384014e-03	0.0	0.000000e+00	0.000000e+00	0.0	6.000000e-05	1.263715e-03	0.0	5.600000e-04	3.624949e-03	0.0	1.560000e-03	5.788668e-03	0.0	3.050000e-03	7.806632e-03	0.0	5.040000e-03	9.723865e-03	0.0	7.520000e-03	1.154812e-02	0.0	1.049000e-02	1.329439e-02	0.0	1.395000e-02	1.497318e-02	0.0	1.790000e-02	1.659241e-02	0.0	2.232000e-02	1.815170e-02	0.0	2.723000e-02	1.966419e-02	0.0	3.260000e-02	2.112576e-02	0.0	3.844000e-02	2.254411e-02	0.0	4.474000e-02	2.392058e-02	0.0	5.149000e-02	2.525657e-02	0.0	5.869000e-02	2.655508e-02	0.0	6.633000e-02	2.781686e-02	0.0	7.440000e-02	2.904256e-02	0.0	8.290000e-02	3.023409e-02	0.0	9.181000e-02	3.139036e-02	0.0	1.011300e-01	3.251287e-02	0.0	1.108500e-01	3.360159e-02	0.0	1.209500e-01	3.465539e-02	0.0	1.314400e-01	3.567613e-02	0.0	1.422900e-01	3.666151e-02	0.0	1.534900e-01	3.761128e-02	0.0	1.650400e-01	3.852579e-02	0.0	1.769300e-01	3.940436e-02	0.0	1.891400e-01	4.024553e-02	0.0	2.016600e-01	4.104850e-02	0.0	2.144700e-01	4.181178e-02	0.0	2.275700e-01	4.253494e-02	0.0	2.409400e-01	4.321630e-02	0.0	2.545700e-01	4.385459e-02	0.0	2.684500e-01	4.444842e-02	0.0	2.825500e-01	4.499547e-02	0.0	2.968700e-01	4.549457e-02	0.0	3.114000e-01	4.594395e-02	0.0	3.261100e-01	4.634114e-02	0.0	3.409900e-01	4.668426e-02	0.0	3.560400e-01	4.697146e-02	0.0	3.712300e-01	4.720014e-02	0.0	3.865400e-01	4.736803e-02	0.0	4.019700e-01	4.747296e-02	0.0	4.175000e-01	4.751249e-02	0.0	4.331100e-01	4.748426e-02	0.0	4.487800e-01	4.738604e-02	0.0	4.645100e-01	4.721548e-02	0.0	4.802700e-01	4.697062e-02	0.0	4.960500e-01	4.664941e-02	0.0	5.118400e-01	4.624996e-02	0.0	5.276100e-01	4.577110e-02	0.0	5.433600e-01	4.521116e-02	0.0	5.590600e-01	4.456977e-02	0.0	5.747100e-01	4.384581e-02	0.0	5.902800e-01	4.303992e-02	0.0	6.057600e-01	4.215238e-02	0.0	6.211300e-01	4.118455e-02	0.0	6.363800e-01	4.013785e-02	0.0	6.515000e-01	3.901421e-02	0.0	6.664700e-01	3.781699e-02	0.0	6.812700e-01	3.655041e-02	0.0	6.958900e-01	3.521861e-02	0.0	7.103200e-01	3.382640e-02	0.0	7.245300e-01	3.238135e-02	0.0	7.385200e-01	3.088879e-02	0.0	7.522800e-01	2.935567e-02	0.0	7.657800e-01	2.779190e-02	0.0	7.790100e-01	2.620584e-02	0.0	7.919700e-01	2.460514e-02	0.0	8.046400e-01	2.300032e-02	0.0	8.170100e-01	2.140104e-02	0.0	8.290500e-01	1.981962e-02	0.0	8.407700e-01	1.826288e-02	0.0	8.521600e-01	1.673924e-02	0.0	8.631800e-01	1.525956e-02	0.0	8.738500e-01	1.382431e-02	0.0	8.841500e-01	1.243671e-02	0.0	8.940600e-01	1.109797e-02	0.0	9.035800e-01	9.806396e-03	0.0	9.127000e-01	8.564698e-03	0.0	9.214000e-01	7.383819e-03	0.0	9.296900e-01	6.280321e-03	0.0	9.375400e-01	5.285166e-03	0.0	9.449600e-01	4.427495e-03	0.0	9.519400e-01	3.732223e-03	0.0	9.584700e-01	3.205467e-03	0.0	9.645400e-01	2.827052e-03	0.0	9.701500e-01	2.552121e-03	0.0	9.752800e-01	2.324878e-03	0.0	9.799500e-01	2.093088e-03	0.0	9.841300e-01	1.827039e-03	0.0	9.878400e-01	1.519907e-03	0.0	9.910500e-01	1.190204e-03	0.0	9.937800e-01	8.630226e-04	0.0	9.960200e-01	5.666265e-04	0.0	9.977600e-01	3.231883e-04	0.0	9.990000e-01	1.450783e-04	0.0	9.997500e-01	3.632619e-05	0.0	1.000000e+00	0.000000e+00	0.0	1.984229e+01	2.506660e+00	0.0	1.937166e+01	4.973800e+00	0.0	1.859553e+01	7.362490e+00	0.0	1.752613e+01	9.635070e+00	0.0	1.618034e+01	1.175571e+01	0.0	1.457937e+01	1.369094e+01	0.0	1.274848e+01	1.541027e+01	0.0	1.071654e+01	1.688656e+01	0.0	8.515590e+00	1.809654e+01	0.0	6.180340e+00	1.902113e+01	0.0	3.747630e+00	1.964575e+01	0.0	1.255810e+00	1.996053e+01	0.0	-1.255810e+00	1.996053e+01	0.0	-3.747630e+00	1.964574e+01	0.0	-6.180340e+00	1.902113e+01	0.0	-8.515590e+00	1.809654e+01	0.0	-1.071654e+01	1.688656e+01	0.0	-1.274848e+01	1.541026e+01	0.0	-1.457937e+01	1.369094e+01	0.0	-1.618034e+01	1.175570e+01	0.0	-1.752613e+01	9.635070e+00	0.0	-1.859553e+01	7.362490e+00	0.0	-1.937166e+01	4.973800e+00	0.0	-1.984229e+01	2.506660e+00	0.0	-2.000000e+01	0.000000e+00	0.0	-1.984229e+01	-2.506670e+00	0.0	-1.937166e+01	-4.973800e+00	0.0	-1.859553e+01	-7.362490e+00	0.0	-1.752613e+01	-9.635080e+00	0.0	-1.618034e+01	-1.175571e+01	0.0	-1.457937e+01	-1.369094e+01	0.0	-1.274848e+01	-1.541027e+01	0.0	-1.071653e+01	-1.688656e+01	0.0	-8.515580e+00	-1.809654e+01	0.0	-6.180340e+00	-1.902113e+01	0.0	-3.747620e+00	-1.964575e+01	0.0	-1.255810e+00	-1.996053e+01	0.0	1.255810e+00	-1.996053e+01	0.0	3.747630e+00	-1.964574e+01	0.0	6.180340e+00	-1.902113e+01	0.0	8.515590e+00	-1.809654e+01	0.0	1.071654e+01	-1.688656e+01	0.0	1.274848e+01	-1.541026e+01	0.0	1.457937e+01	-1.369094e+01	0.0	1.618034e+01	-1.175570e+01	0.0	1.752614e+01	-9.635070e+00	0.0	1.859553e+01	-7.362490e+00	0.0	1.937166e+01	-4.973790e+00	0.0	1.984229e+01	-2.506660e+00	0.0	2.000000e+01	0.000000e+00	0.0	6.074237e-02	-4.532104e-02	0.0	6.601883e-01	-6.002177e-02	0.0	4.255533e-01	6.172253e-02	0.0	6.897642e-01	4.910626e-02	0.0	3.791232e-01	-7.360567e-02	0.0	9.994675e-01	-7.275896e-04	0.0	9.985544e-01	-1.331421e-03	0.0	7.738131e-01	-4.739991e-02	0.0	6.898600e-01	-5.714797e-02	0.0	-1.127136e-03	5.516549e-03	0.0	7.467800e-01	-5.080731e-02	0.0	5.833311e-01	5.753408e-02	0.0	9.928160e-01	-3.736231e-03	0.0	9.899359e-01	-4.744179e-03	0.0	5.989072e-01	5.659924e-02	0.0	7.187646e-01	-5.406343e-02	0.0	-1.468661e-03	5.997925e-04	0.0	9.865725e-01	-5.906474e-03	0.0	9.827328e-01	-7.226368e-03	0.0	-1.302025e-03	-6.473015e-03	0.0	6.451051e-01	-6.137237e-02	0.0	8.244819e-01	-4.029774e-02	0.0	7.997421e-01	-4.389405e-02	0.0	3.484809e-01	6.060782e-02	0.0	8.479020e-01	-3.666733e-02	0.0	2.473656e-01	5.609748e-02	0.0	8.699420e-01	-3.302705e-02	0.0	1.046401e-02	1.734314e-02	0.0	8.904957e-01	-2.943304e-02	0.0	7.702148e-02	-4.969903e-02	0.0	9.094909e-01	-2.594008e-02	0.0	-1.766743e-03	-3.206969e-03	0.0	9.424825e-01	-1.916817e-02	0.0	9.268474e-01	-2.255006e-02	0.0	1.794784e-02	-2.749670e-02	0.0	4.257416e-01	-7.303650e-02	0.0	8.591035e-01	-3.484298e-02	0.0	9.563355e-01	-1.566687e-02	0.0	9.784088e-01	-8.725320e-03	0.0	9.683300e-01	-1.208062e-02	0.0	1.582632e-01	-6.357364e-02	0.0	9.001950e-01	-2.767196e-02	0.0	7.604294e-01	-4.911943e-02	0.0	9.971359e-01	-2.087281e-03	0.0	5.990500e-01	-6.504503e-02	0.0	4.414441e-01	-7.268665e-02	0.0	5.363196e-01	-6.898008e-02	0.0	4.730157e-01	-7.175418e-02	0.0	5.046766e-01	-7.051674e-02	0.0	4.888342e-01	-7.117240e-02	0.0	1.249493e-01	-5.906518e-02	0.0	2.784418e-02	-3.297636e-02	0.0	3.945689e-01	-7.349769e-02	0.0	4.621902e-02	-4.062296e-02	0.0	4.101097e-01	-7.330829e-02	0.0	3.187146e-01	-7.321361e-02	0.0	3.486125e-01	-7.358036e-02	0.0	3.350773e-02	-3.558968e-02	0.0	2.895104e-01	-7.250815e-02	0.0	9.348849e-01	-2.086598e-02	0.0	1.468045e-01	-6.216151e-02	0.0	1.946434e-01	-6.723359e-02	0.0	8.579568e-02	-5.175672e-02	0.0	1.045869e-01	-5.560398e-02	0.0	5.678223e-01	-6.716030e-02	0.0	1.700658e-01	-6.489197e-02	0.0	6.145275e-01	-6.388332e-02	0.0	8.804131e-01	-3.122161e-02	0.0	2.266816e-02	-3.027702e-02	0.0	9.952218e-01	-2.870135e-03	0.0	6.736394e-03	-1.882141e-02	0.0	1.849218e-02	2.151176e-02	0.0	9.183775e-01	-2.423559e-02	0.0	9.49640
[...]
POINT_DATA 5233

SCALARS Conservative_1 float 1
LOOKUP_TABLE default
1.199829e+00	1.181603e+00	1.171179e+00	1.164739e+00	1.160166e+00	1.155701e+00	1.148816e+00	1.137898e+00	1.121717e+00	1.100362e+00	1.075074e+00	1.048463e+00	1.024896e+00	1.008362e+00	9.999885e-01	9.979304e-01	9.990398e-01	1.000483e+00	1.000510e+00	9.985215e-01	9.947380e-01	9.897164e-01	9.840421e-01	9.781866e-01	9.724277e-01	9.668761e-01	9.615233e-01	9.563226e-01	9.512095e-01	9.461526e-01	9.411358e-01	9.361154e-01	9.310573e-01	9.259780e-01	9.209287e-01	9.159579e-01	9.110841e-01	9.063119e-01	9.016527e-01	8.971227e-01	8.927219e-01	8.884609e-01	8.843223e-01	8.803225e-01	8.764761e-01	8.728349e-01	8.693885e-01	8.660733e-01	8.627423e-01	8.593853e-01	8.562043e-01	8.535533e-01	8.515463e-01	8.498918e-01	8.479170e-01	8.448702e-01	8.402519e-01	8.342100e-01	8.276244e-01	8.217520e-01	8.174790e-01	8.149979e-01	8.140362e-01	8.141608e-01	8.150621e-01	8.165413e-01	8.185489e-01	8.210015e-01	8.238128e-01	8.268702e-01	8.301927e-01	8.339433e-01	8.383689e-01	8.435375e-01	8.493728e-01	8.557284e-01	8.626690e-01	8.703727e-01	8.788968e-01	8.882805e-01	8.986356e-01	9.100211e-01	9.225882e-01	9.364548e-01	9.518108e-01	9.689334e-01	9.880506e-01	1.009521e+00	1.033831e+00	1.061295e+00	1.092443e+00	1.127744e+00	1.167045e+00	1.209885e+00	1.254555e+00	1.298041e+00	1.331744e+00	1.350900e+00	1.339533e+00	1.308267e+00	1.284252e+00	1.221084e+00	1.099435e+00	1.001952e+00	9.259580e-01	8.702554e-01	8.322807e-01	8.072831e-01	7.904566e-01	7.790618e-01	7.714033e-01	7.663122e-01	7.632291e-01	7.614165e-01	7.605007e-01	7.604778e-01	7.612197e-01	7.624893e-01	7.639653e-01	7.653206e-01	7.665722e-01	7.680439e-01	7.699942e-01	7.722731e-01	7.744816e-01	7.763917e-01	7.780955e-01	7.797395e-01	7.814263e-01	7.832264e-01	7.851947e-01	7.873158e-01	7.895178e-01	7.916998e-01	7.938189e-01	7.958476e-01	7.977754e-01	7.995645e-01	8.012240e-01	8.028711e-01	8.047185e-01	8.069203e-01	8.095248e-01	8.124939e-01	8.158334e-01	8.196104e-01	8.238591e-01	8.285478e-01	8.335005e-01	8.385036e-01	8.433497e-01	8.480987e-01	8.530524e-01	8.585647e-01	8.646977e-01	8.712199e-01	8.779087e-01	8.847630e-01	8.919498e-01	8.995167e-01	9.074122e-01	9.155485e-01	9.238770e-01	9.323855e-01	9.410441e-01	9.498395e-01	9.587216e-01	9.676726e-01	9.766184e-01	9.855613e-01	9.944184e-01	1.003109e+00	1.011571e+00	1.019719e+00	1.027508e+00	1.034917e+00	1.041992e+00	1.048912e+00	1.055939e+00	1.063460e+00	1.071774e+00	1.080975e+00	1.090683e+00	1.100036e+00	1.107782e+00	1.112587e+00	1.113361e+00	1.109742e+00	1.102492e+00	1.093778e+00	1.086677e+00	1.084160e+00	1.088065e+00	1.098280e+00	1.112853e+00	1.130017e+00	1.148479e+00	1.168636e+00	1.192714e+00	1.181127e+00	9.999764e-01	9.999694e-01	9.999527e-01	9.999287e-01	9.999046e-01	9.998764e-01	9.998368e-01	9.997815e-01	9.997188e-01	9.996667e-01	9.996322e-01	9.996438e-01	9.996982e-01	9.998089e-01	9.999040e-01	9.999808e-01	1.000023e+00	1.000049e+00	1.000064e+00	1.000070e+00	1.000073e+00	1.000074e+00	1.000074e+00	1.000076e+00	1.000077e+00	1.000080e+00	1.000085e+00	1.000092e+00	1.000101e+00	1.000114e+00	1.000129e+00	1.000150e+00	1.000169e+00	1.000196e+00	1.000213e+00	1.000224e+00	1.000226e+00	1.000213e+00	1.000203e+00	1.000190e+00	1.000184e+00	1.000168e+00	1.000151e+00	1.000130e+00	1.000106e+00	1.000078e+00	1.000060e+00	1.000046e+00	1.000013e+00	9.999797e-01	9.443341e-01	9.020681e-01	8.213650e-01	9.232635e-01	8.406848e-01	1.183062e+00	1.173570e+00	9.408048e-01	9.112733e-01	1.217003e+00	9.308319e-01	8.720725e-01	1.151717e+00	1.144987e+00	8.786866e-01	9.208907e-01	1.307635e+00	1.136015e+00	1.123647e+00	1.337687e+00	8.976509e-01	9.609044e-01	9.507438e-01	8.072990e-01	9.714751e-01	7.943626e-01	9.825810e-01	8.784153e-01	9.931908e-01	9.171346e-01	1.000619e+00	1.344665e+00	1.006089e+00	1.003002e+00	1.100370e+00	8.522890e-01	9.769847e-01	1.025356e+00	1.107395e+00	1.065588e+00	8.484544e-01	9.974994e-01	9.358381e-01	1.164146e+00	8.851368e-01	8.538363e-01	8.706365e-01	8.576922e-01	8.639716e-01	8.606423e-01	8.683358e-01	1.042992e+00	8.461743e-01	9.775548e-01	8.499734e-01	8.197396e-01	8.278153e-01	1.018715e+00	8.182309e-01	1.003613e+00	8.544775e-01	8.348291e-01	9.053990e-01	8.850041e-01	8.774994e-01	8.431878e-01	8.891901e-01	9.880871e-01	1.070118e+00	1.157649e+00	1.209200e+00	8.234950e-01	1.002357e+00	1.012768e+00	1.087634e+00	1.133862e+00	9.661217e-01	8.225156e-01	8.739880e-01	9.258266e-01	9.457572e-01	8.762381e-01	8.280151e-01	8.812315e-01	9.066170e-01	9.600969e-01	1.248743e+00	1.133831e+00	8.341471e-01	8.387196e-01	1.211158e+00	8.250593e-01	8.947214e-01	8.183333e-01	8.204899e-01	8.554541e-01	9.160329e-01	1.279725e+00	1.318487e+00	8.546534e-01	1.324585e+00	7.951308e-01	7.745979e-01	7.811561e-01	7.756304e-01	8.177659e-01	1.140214e+00	8.498549e-01	8.348935e-01	1.097231e+00	1.105871e+00	1.052284e+00	8.400121e-01	8.254298e-01	8.117453e-01	1.083646e+00	1.067048e+00	7.730774e-01	1.092478e+00	1.106615e+00	1.099062e+00	7.740111e-01	7.732020e-01	8.004144e-01	7.964466e-01	7.836852e-01	8.039634e-01	8.299727e-01	8.145698e-01	7.808115e-01	7.772327e-01	8.923361e-01	7.865900e-01	7.901942e-01	9.072731e-01	8.656784e-01	9.569823e-01	9.398890e-01	9.915030e-01	9.742809e-01	1.023930e+00	1.008231e+00	1.059446e+00	1.038436e+00	1.104231e+00	1.075184e+00	1.102347e+00	1.031324e+00	1.045364e+00	9.999590e-01	1.016229e+00	9.656275e-01	9.829346e-01	9.315017e-01	9.483883e-01	8.996256e-01	9.151726e-01	8.598340e-01	8.853935e-01	7.882919e-01	7.922539e-01	7.823111e-01	7.850816e-01	7.771798e-01	7.790950e-01	8.464826e-01	7.869008e-01	8.312967e-01	9.814524e-01	1.043721e+00	9.557855e-01	8.228462e-01	8.673408e-01	1.053416e+00	8.069097e-01	9.226063e-01	7.735592e-01	7.728115e-01	7.984675e-01	7.745870e-01	1.090302e+00	1.092376e+00	8.022554e-01	1.099373e+00	1.110421e+00	8.055856e-01	8.093121e-01	1.091888e+00	1.206471e+00	1.157952e+00	1.174455e+00	8.933544e-01	9.970050e-01	1.124416e+00	8.450381e-01	1.286683e+00	1.170400e+00	9.300615e-01	8.611283e-01	8.190206e-01	7.851313e-01	1.199581e+00	1.259535e+00	8.238833e-01	9.165136e-01	1.003320e+00	1.199632e+00	8.735051e-01	9.118658e-01	9.456839e-01	1.133353e+00	8.258196e-01	9.762964e-01	9.657756e-01	9.126379e-01	1.317252e+00	8.364022e-01	1.132828e+00	1.041624e+00	8.603881e-01	9.212431e-01	9.028935e-01	8.580278e-01	9.245824e-01	8.471613e-01	9.965513e-01	9.505768e-01	9.565173e-01	8.548435e-01	9.153162e-01	1.020539e+00	7.830780e-01	9.231552e-01	7.883709e-01	1.041856e+00	1.100607e+00	8.103868e-01	8.519518e-01	1.099646e+00	1.048670e+00	1.108354e+00	1.100927e+00	1.094590e+00	7.975390e-01	8.086993e-01	7.956106e-01	7.829433e-01	9.073343e-01	8.402455e-01	9.139746e-01	7.860645e-01	7.940056e-01	1.098098e+00	1.119028e+00	1.055545e+00	8.542444e-01	1.215365e+00	1.145818e+00	1.131612e+00	1.009083e+00	1.133507e+00	1.234090e+00	1.331024e+00	1.315058e+00	1.102267e+00	1.217657e+00	9.519917e-01	1.163047e+00	1.148576e+00	8.237696e-01	8.755350e-01	1.123030e+00	9.869525e-01	8.799701e-01	1.141660e+00	1.332380e+00	8.564857e-01	8.203321e-01	9.709843e-01	8.034071e-01	9.816543e-01	9.920010e-01	9.376522e-01	1.000359e+00	1.005626e+00	1.017436e+00	1.048649e+00	1.027464e+00	1.058816e+00	1.110018e+00	8.747710e-01	9.359175e-01	9.408189e-01	1.155386e+00	8.599556e-01	8.625952e-01	8.657164e-01	1.074347e+00	8.516675e-01	8.546383e-01	8.296466e-01	1.004278e+00	1.007903e+00	1.011331e+00	8.672739e-01	9.017342e-01	8.789481e-01	8.903317e-01	1.077036e+00	1.094514e+00	9.260457e-01	9.309771e-01	8.918773e-01	8.829225e-01	8.825762e-01	8.863688e-01	9.852058e-01	9.678292e-01	1.165345e+00	8.350761e-01	8.413113e-01	8.490020e-01	8.444017e-01	8.329330e-01	8.298620e-01	8.232792e-01	8.238114e-01	8.272994e-01	1.298356e+00	1.267562e+00	8.001676e-01	1.095900e+00	8.567233e-01	8.470290e-01	8.419222e-01	8.368177e-01	1.095747e+00	1.100203e+00	1.077311e+00	8.320343e-01	8.276653e-01	8.172964e-01	1.069902e+00	1.096248e+00	7.868167e-01	7.896416e-01	7.995120e-01	8.014703e-01	7.872121e-01	7.849618e-01	7.838588e-01	9.889521e-01	9.557108e-01	9.474228e-01	9.807201e-01	1.012978e+00	1.062590e+00	1.034942e+00	1.027847e+00	1.005208e+00	9.971733e-01	9.723780e-01	9.640330e-01	9.392262e-01	9.311220e-01	9.076764e-01	9.002918e-01	8.672951e-01	8.617014e-01	8.932621e-01	8.865139e-01	7.937889e-01	7.921769e-01	7.907740e-01	7.895499e-01	8.807968e-01	8.086180e-01	8.199860e-01	9.555574e-01	9.606348e-01	8.689923e-01	8.722321e-01	1.069714e+00	8.350113e-01	7.833793e-01	7.840981e-01	8.070391e-01	8.052733e-01	8.146319e-01	8.123168e-01	1.091038e+00	1.084525e+00	8.943934e-01	8.985934e-01	1.025310e+00	1.297444e+00	8.252620e-01	1.311609e+00	8.534824e-01	8.292086e-01	9.510686e-01	8.777103e-01	1.007443e+00	1.107321e+00	1.101256e+00	1.096612e+00	1.081179e+00	1.115974e+00	1.160563e+00	1.181452e+00	1.153144e+00	1.200927e+00	1.103908e+00	1.283256e+00	9.202906e-01	1.010851e+00	1.131557e+00	8.756478e-01	1.172914e+00	1.220863e+00	9.222708e-01	1.275977e+00	9.269384e-01	1.131354e+00	9.863637e-01	1.190709e+00	8.325216e-01	9.812361e-01	9.176653e-01	1.139453e+00	1.160739e+00	1.095995e+00	8.593582e-01	1.093255e+00	9.162917e-01	1.125966e+00	8.544574e-01	8.065719e-01	8.136903e-01	7.935708e-01	7.998346e-01	1.171571e+00	1.293314e+00	1.184879e+00	9.088667e-01	1.240738e+00	1.055117e+00	9.323303e-01	1.312119e+00	8.665482e-01	8.627456e-01	1.078030e+00	9.819543e-01	1.017741e+00	9.871781e-01	9.238608e-01	1.097524e+00	1.095649e+00	1.051740e+00	1.045113e+00	8.120044e-01	8.084574e-01	8.010118e-01	7.918124e-01	9.087144e-01	9.131407e-01	8.458308e-01	9.421781e-01	7.927119e-01	1.095971e+00	1.136242e+00	1.028965e+00	1.134214e+00	1.249581e+00	1.314999e+00	1.053696e+00	1.186192e+00	1.178451e+00	1.070322e+00	1.122722e+00	8.819579e-01	8.611115e-01	8.265069e-01	9.708787e-01	9.760483e-01	9.913503e-01	9.960381e-01	9.598102e-01	9.454983e-01	1.000285e+00	1.004064e+00	1.029628e+00	1.041165e+00	1.112209e+00	9.414425e-01	9.462684e-01	1.145973e+00	8.650196e-01	8.679897e-01	8.572352e-01	8.595392e-01	1.031624e+00	1.015034e+00	1.021003e+00	8.815578e-01	8.737027e-01	8.810473e-01	8.845638e-01	1.085511e+00	1.099622e+00	9.317166e-01	9.366268e-01	9.092675e-01	8.990548e-01	8.898682e-01	8.882514e-01	8.921148e-01	1.011546e+00	9.928147e-01	9.755105e-01	8.368379e-01	8.424611e-01	8.483580e-01	8.605109e-01	8.551695e-01	8.503181e-01	8.418023e-01	8.381851e-01	8.289226e-01	8.298769e-01	8.350798e-01	8.181513e-01	8.493082e-01	8.440532e-01	1.096482e+00	8.390556e-01	8.344191e-01	8.302328e-01	8.232478e-01	1.071763e+00	8.042195e-01	8.102057e-01	8.046663e-01	8.028159e-01	7.921356e-01	7.919544e-01	7.917848e-01	9.552705e-01	1.065109e+00	1.058363e+00	1.038448e+00	1.031736e+00	1.024907e+00	1.010340e+00	1.002817e+00	9.950640e-01	9.792986e-01	9.713062e-01	9.632867e-01	9.473128e-01	9.393928e-01	9.315851e-01	9.088993e-01	8.695594e-01	8.642979e-01	9.018026e-01	8.949870e-01	8.883887e-01	7.993338e-01	7.978006e-01	7.965196e-01	7.954217e-01	7.944875e-01	8.287546e-01	8.425702e-01	9.559184e-01	9.608735e-01	9.658249e-01	8.711945e-01	8.744271e-01	8.600696e-01	8.817355e-01	7.926882e-01	7.944866e-01	7.967871e-01	8.102889e-01	8.203878e-01	8.178618e-01	8.155905e-01	1.089390e+00	1.084278e+00	1.078288e+00	8.960896e-01	9.001881e-01	9.043909e-01	8.324670e-01	8.304939e-01	1.289944e+00	9.281062e-01	1.129356e+00	1.097677e+00	8.830979e-01	1.261891e+00	1.159456e+00	1.013180e+00	1.018104e+00	1.057422e+00	1.112694e+00	8.576243e-01	1.271269e+00	9.660481e-01	1.206348e+00	1.092415e+00	1.120629e+00	1.172027e+00	9.172786e-01	1.130607e+00	1.185407e+00	1.188067e+00	9.563971e-01	8.739592e-01	1.104107e+00	8.600137e-01	9.402582e-01	8.662805e-01	8.357835e-01	1.101034e+00	8.780700e-01	1.090332e+00	1.087297e+00	9.861648e-01	7.998920e-01	8.103249e-01	1.122118e+00	8.186967e-01	9.865915e-01	1.146693e+00	1.106001e+00	1.144057e+00	1.078630e+00	1.128382e+00	9.234030e-01	1.231575e+00	9.285130e-01	9.326059e-01	1.154394e+00	1.129950e+00	1.180682e+00	1.015148e+00	8.615685e-01	8.157884e-01	1.219407e+00	1.002396e+00	9.253564e-01	1.048416e+00	8.175477e-01	8.140247e-01	8.121501e-01	9.144801e-01	9.194795e-01	1.095702e+00	1.042541e+00	1.086577e+00	1.254719e+00	1.296766e+00	1.080055e+00	1.065699e+00	1.113091e+00	8.850253e-01	9.764890e-01	9.814747e-01	9.914643e-01	9.961975e-01	9.674070e-01	9.532924e-01	1.000617e+00	1.004881e+00	1.009008e+00	1.041510e+00	1.053086e+00	9.468080e-01	9.520342e-01	1.137239e+00	8.682074e-01	8.709002e-01	8.628966e-01	8.647503e-01	1.024027e+00	1.031682e+00	8.891138e-01	8.806353e-01	8.871908e-01	1.091098e+00	1.102742e+00	9.377255e-01	9.429983e-01	9.169167e-01	9.067824e-01	8.978020e-01	8.901704e-01	8.945574e-01	1.037364e+00	1.017937e+00	9.994177e-01	9.825789e-01	8.403629e-01	8.449259e-01	8.502784e-01	8.555055e-01	8.679516e-01	8.623827e-01	8.571455e-01	8.524441e-01	8.482214e-01	8.373022e-01	8.358099e-01	8.445438e-01	8.519884e-01	1.094599e+00	1.093693e+00	8.468373e-01	8.419856e-01	8.375260e-01	8.335162e-01	8.299652e-01	8.268121e-01	8.370827e-01	8.085162e-01	8.068932e-01	7.996832e-01	7.999891e-01	8.007563e-01	8.015103e-01	1.067028e+00	1.060913e+00	1.054737e+00	1.042056e+00	1.035722e+00	1.029367e+00	1.021897e+00	1.008908e+00	1.000844e+00	9.934056e-01	9.781913e-01	9.709362e-01	9.627648e-01	9.555918e-01	9.473335e-01	9.403316e-01	9.321162e-01	8.673813e-01	8.717409e-01	9.108710e-01	9.031585e-01	8.972410e-01	8.900134e-01	8.053139e-01	8.039547e-01	8.026320e-01	8.016140e-01	8.007213e-01	8.001276e-01	8.492094e-01	8.647118e-01	9.616030e-01	9.667676e-01	9.715227e-01	8.740819e-01	8.764186e-01	8.803379e-01	8.841578e-01	9.071222e-01	9.339686e-01	8.026177e-01	8.049054e-01	8.086977e-01	8.131312e-01	8.268460e-01	8.241309e-01	8.216970e-01	8.193588e-01	1.072926e+00	1.083239e+00	1.078466e+00	8.978140e-01	9.024323e-01	9.059286e-01	9.107514e-01	8.413404e-01	8.387499e-01	8.368168e-01	1.148053e+00	1.125343e+00	1.073701e+00	1.177465e+00	1.171259e+00	9.363823e-01	9.362991e-01	1.193494e+00	1.096515e+00	1.235366e+00	1.081067e+00	8.827011e-01	8.076900e-01	1.018703e+00	1.127163e+00	1.234986e+00	1.292318e+00	1.294370e+00	1.281515e+00	1.250849e+00	1.138724e+00	8.218731e-01	1.084565e+00	1.121530e+00	1.026546e+00	9.595752e-01	8.664528e-01	1.115925e+00	1.068625e+00	1.081997e+00	8.773997e-01	8.678326e-01	9.226583e-01	9.813147e-01	8.606312e-01	8.874925e-01	8.229491e-01	1.109674e+00	9.483870e-01	1.165199e+00	1.099799e+00	1.292574e+00	1.182391e+00	1.173230e+00	1.019721e+00	1.061233e+00	1.266771e+00	9.858847e-01	1.215152e+00	1.088026e+00	1.162024e+00	1.177068e+00	1.178082e+00	1.125473e+00	8.423706e-01	8.430958e-01	1.104119e+00	8.873884e-01	1.085384e+00	1.113477e+00	9.275548e-01	1.200178e+00	8.193642e-01	8.182358e-01	8.157090e-01	9.187727e-01	1.053282e+00	1.089999e+00	1.275305e+00	1.103696e+00	9.825638e-01	9.866815e-01	9.920590e-01	9.964866e-01	9.612023e-01	9.754601e-01	1.001612e+00	1.005605e+00	1.010547e+00	1.015616e+00	1.052038e+00	1.062704e+00	9.507983e-01	1.128573e+00	8.712893e-01	8.741609e-01	8.679894e-01	8.702938e-01	1.033978e+00	1.042187e+00	8.964444e-01	8.873752e-01	1.095029e+00	1.104728e+00	9.443583e-01	9.247738e-01	9.139082e-01	9.072039e-01	8.946987e-01	1.042328e+00	1.023735e+00	1.005933e+00	9.904316e-01	8.452058e-01	8.475753e-01	8.527405e-01	8.570489e-01	8.623096e-01	8.749243e-01	8.704843e-01	8.634262e-01	8.599005e-01	8.541919e-01	1.094057e+00	1.092109e+00	1.090214e+00	8.543398e-01	8.501166e-01	8.446612e-01	8.411650e-01	8.365052e-01	8.442585e-01	8.563844e-01	8.147583e-01	8.124437e-01	8.070740e-01	8.098615e-01	8.118485e-01	1.062732e+00	1.057299e+00	1.051225e+00	1.045388e+00	1.039174e+00	1.033229e+00	1.026391e+00	1.016496e+00	1.007091e+00	9.954000e-01	9.666341e-01	9.518456e-01	9.371542e-01	9.086535e-01	8.962854e-01	8.118638e-01	8.097848e-01	8.095728e-01	8.076522e-01	8.080207e-01	8.073008e-01	8.072774e-01	8.706302e-01	8.867913e-01	9.677456e-01	9.722250e-01	9.772704e-01	8.772666e-01	8.811137e-01	9.067087e-01	9.305685e-01	9.565267e-01	8.138346e-01	8.168195e-01	8.216875e-01	8.286990e-01	8.358007e-01	8.339161e-01	8.301548e-01	8.285438e-01	8.257587e-01	1.078201e+00	1.072942e+00	9.023171e-01	9.103418e-01	8.516368e-01	8.471364e-01	8.457410e-01	8.427943e-01	1.166077e+00	1.154375e+00	1.181134e+00	1.254994e+00	1.180682e+00	1.088606e+00	1.106555e+00	1.183408e+00	1.086403e+00	1.141045e+00	1.105939e+00	1.255338e+00	1.081817e+00	1.161525e+00	8.282791e-01	1.177728e+00	1.060977e+00	1.152349e+00	1.141414e+00	1.079418e+00	8.888018e-01	1.101716e+00	8.496582e-01	1.035166e+00	1.024797e+00	9.106116e-01	9.442057e-01	8.864986e-01	1.231221e+00	8.726348e-01	9.701589e-01	9.573060e-01	8.172613e-01	1.094246e+00	1.066030e+00	1.212903e+00	1.031028e+00	1.070053e+00	1.170731e+00	1.097582e+00	1.291355e+00	1.244999e+00	1.113741e+00	9.441425e-01	8.700823e-01	8.599546e-01	1.112130e+00	1.173869e+00	1.129522e+00	1.275256e+00	1.176732e+00	1.064260e+00	1.216966e+00	1.199795e+00	8.879972e-01	1.101543e+00	1.083946e+00	1.080337e+00	8.786998e-01	8.245675e-01	8.210712e-01	9.358660e-01	1.091852e+00	1.122778e+00	1.122177e+00	9.901262e-01	9.994900e-01	9.830080e-01	1.009060e+00	1.017511e+00	1.060615e+00	1.120995e+00	8.760578e-01	1.043362e+00	1.051497e+00	8.996480e-01	1.097454e+00	9.513578e-01	9.587476e-01	9.280386e-01	9.145920e-01	8.954370e-01	1.046656e+00	1.028100e+00	1.011332e+00	9.997743e-01	8.534507e-01	8.612421e-01	8.688095e-01	8.740507e-01	8.636783e-01	1.091457e+00	1.088962e+00	8.503093e-01	8.421644e-01	8.759984e-01	8.182514e-01	8.225233e-01	1.003199e+00	1.056070e+00	1.044841e+00	1.033301e+00	1.022714e+00	1.013321e+00	9.908539e-01	9.771680e-01	9.630717e-01	9.489367e-01	9.347844e-01	9.208099e-01	9.080880e-01	8.975888e-01	8.162012e-01	8.148922e-01	8.151047e-01	8.138401e-01	8.159017e-01	8.921853e-01	9.090295e-01	9.672464e-01	9.753281e-01	9.832601e-01	8.800662e-01	8.837900e-01	9.281702e-01	9.512335e-01	9.763563e-01	1.002454e+00	8.263380e-01	8.299387e-01	8.354887e-01	8.439667e-01	8.548108e-01	8.608005e-01	8.360035e-01	8.325322e-01	1.077797e+00	1.073291e+00	9.028481e-01	9.187261e-01	9.272108e-01	8.557875e-01	8.507901e-01	1.117389e+00	1.166018e+00	1.161177e+00	1.136253e+00	1.025475e+00	1.108370e+00	1.173798e+00	1.135620e+00	1.185597e+00	1.135184e+00	1.147603e+00	1.126775e+00	1.092506e+00	1.193611e+00	1.235629e+00	1.088367e+00	9.515860e-01	8.358891e-01	1.125044e+00	1.017129e+00	1.099452e+00	8.876482e-01	1.066664e+00	1.169561e+00	8.756821e-01	1.043570e+00	9.189968e-01	8.966391e-01	1.083528e+00	1.091447e+00	1.082186e+00	1.067016e+00	1.171389e+00	1.098736e+00	1.103073e+00	1.082831e+00	8.283563e-01	8.985347e-01	9.355857e-01	9.897546e-01	1.150518e+00	1.157258e+00	1.272003e+00	1.075361e+00	1.085452e+00	1.175645e+00	1.099194e+00	1.169038e+00	1.152265e+00	8.908634e-01	1.224908e+00	9.799775e-01	9.646843e-01	1.094849e+00	1.233599e+00	1.067210e+00	1.106561e+00	9.439018e-01	1.254312e+00	1.176116e+00	1.005259e+00	1.213096e+00	1.200148e+00	8.801881e-01	1.117598e+00	1.079350e+00	8.891363e-01	8.319057e-01	9.086216e-01	1.118329e+00	1.143432e+00	9.980323e-01	1.007580e+00	1.025399e+00	1.034306e+00	1.114269e+00	8.793731e-01	1.051246e+00	1.059001e+00	8.698637e-01	9.748696e-01	9.828017e-01	9.588344e-01	9.500554e-01	9.347845e-01	9.199809e-01	1.049061e+00	8.581130e-01	8.628204e-01	9.055741e-01	8.916480e-01	9.271677e-01	1.091450e+00	8.707154e-01	8.608936e-01	8.332103e-01	1.059486e+00	1.049543e+00	1.009807e+00	1.038878e+00	1.028572e+00	1.019146e+00	9.991161e-01	9.867724e-01	9.735531e-01	9.600763e-01	9.464816e-01	9.328354e-01	9.199144e-01	8.255186e-01	8.237055e-01	8.228239e-01	8.228593e-01	8.230411e-01	8.274099e-01	9.123128e-01	9.305353e-01	9.666079e-01	9.900223e-01	8.826198e-01	8.863475e-01	9.484968e-01	9.694019e-01	9.929319e-01	1.016437e+00	1.041006e+00	8.402690e-01	8.460706e-01	8.514177e-01	8.596264e-01	8.717165e-01	8.520668e-01	8.450815e-01	8.400755e-01	1.074558e+00	1.067818e+00	9.035876e-01	9.111427e-01	8.791574e-01	8.690432e-01	8.617396e-01	8.577981e-01	1.152328e+00	1.152977e+00	1.149675e+00	1.121132e+00	1.156070e+00	1.140384e+00	1.113589e+00	1.050483e+00	1.172800e+00	1.120684e+00	1.117931e+00	1.071726e+00	1.166005e+00	1.084786e+00	8.331598e-01	1.137606e+00	1.141596e+00	1.128290e+00	1.169441e+00	1.070945e+00	9.260661e-01	1.027037e+00	1.024946e+00	9.594723e-01	1.132800e+00	1.131997e+00	1.128187e+00	1.171839e+00	1.172189e+00	9.002149e-01	9.