# vtk DataFile Version 3.0
vtk output
ASCII
DATASET UNSTRUCTURED_GRID
POINTS 200 float
9.997500e-01	-3.633243e-05	0.0	9.990000e-01	-1.454723e-04	0.0	9.977600e-01	-3.275073e-04	0.0	9.960200e-01	-5.899270e-04	0.0	9.937800e-01	-9.470942e-04	0.0	9.910500e-01	-1.422095e-03	0.0	9.878400e-01	-2.045514e-03	0.0	9.841300e-01	-2.853669e-03	0.0	9.799500e-01	-3.858874e-03	0.0	9.752800e-01	-5.058290e-03	0.0	9.701500e-01	-6.405099e-03	0.0	9.645400e-01	-7.840828e-03	0.0	9.584700e-01	-9.290140e-03	0.0	9.519400e-01	-1.069768e-02	0.0	9.449600e-01	-1.203550e-02	0.0	9.375400e-01	-1.330799e-02	0.0	9.296900e-01	-1.454248e-02	0.0	9.214000e-01	-1.577722e-02	0.0	9.127000e-01	-1.703949e-02	0.0	9.035800e-01	-1.835031e-02	0.0	8.940600e-01	-1.971332e-02	0.0	8.841500e-01	-2.112392e-02	0.0	8.738500e-01	-2.257390e-02	0.0	8.631800e-01	-2.405116e-02	0.0	8.521600e-01	-2.554505e-02	0.0	8.407700e-01	-2.705239e-02	0.0	8.290500e-01	-2.856396e-02	0.0	8.170100e-01	-3.007590e-02	0.0	8.046400e-01	-3.158739e-02	0.0	7.919700e-01	-3.309279e-02	0.0	7.790100e-01	-3.458882e-02	0.0	7.657800e-01	-3.607087e-02	0.0	7.522800e-01	-3.753639e-02	0.0	7.385200e-01	-3.898152e-02	0.0	7.245300e-01	-4.040040e-02	0.0	7.103200e-01	-4.178939e-02	0.0	6.958900e-01	-4.314594e-02	0.0	6.812700e-01	-4.446485e-02	0.0	6.664700e-01	-4.574311e-02	0.0	6.515000e-01	-4.697796e-02	0.0	6.363800e-01	-4.816608e-02	0.0	6.211300e-01	-4.930456e-02	0.0	6.057600e-01	-5.039154e-02	0.0	5.902800e-01	-5.142539e-02	0.0	5.747100e-01	-5.240406e-02	0.0	5.590600e-01	-5.332638e-02	0.0	5.433600e-01	-5.419027e-02	0.0	5.276100e-01	-5.499552e-02	0.0	5.118400e-01	-5.574050e-02	0.0	4.960500e-01	-5.642515e-02	0.0	4.802700e-01	-5.704812e-02	0.0	4.645100e-01	-5.760903e-02	0.0	4.487800e-01	-5.810740e-02	0.0	4.331100e-01	-5.854215e-02	0.0	4.175000e-01	-5.891305e-02	0.0	4.019700e-01	-5.921922e-02	0.0	3.865400e-01	-5.945976e-02	0.0	3.712300e-01	-5.963378e-02	0.0	3.560400e-01	-5.974050e-02	0.0	3.409900e-01	-5.977875e-02	0.0	3.261100e-01	-5.974744e-02	0.0	3.114000e-01	-5.964541e-02	0.0	2.968700e-01	-5.947130e-02	0.0	2.825500e-01	-5.922401e-02	0.0	2.684500e-01	-5.890227e-02	0.0	2.545700e-01	-5.850439e-02	0.0	2.409400e-01	-5.802951e-02	0.0	2.275700e-01	-5.747634e-02	0.0	2.144700e-01	-5.684361e-02	0.0	2.016600e-01	-5.613062e-02	0.0	1.891400e-01	-5.533570e-02	0.0	1.769300e-01	-5.445842e-02	0.0	1.650400e-01	-5.349796e-02	0.0	1.534900e-01	-5.245453e-02	0.0	1.422900e-01	-5.132786e-02	0.0	1.314400e-01	-5.011669e-02	0.0	1.209500e-01	-4.882076e-02	0.0	1.108500e-01	-4.744286e-02	0.0	1.011300e-01	-4.598083e-02	0.0	9.181000e-02	-4.443677e-02	0.0	8.290000e-02	-4.281181e-02	0.0	7.440000e-02	-4.110530e-02	0.0	6.633000e-02	-3.932078e-02	0.0	5.869000e-02	-3.745796e-02	0.0	5.149000e-02	-3.551885e-02	0.0	4.474000e-02	-3.350598e-02	0.0	3.844000e-02	-3.141903e-02	0.0	3.260000e-02	-2.926086e-02	0.0	2.723000e-02	-2.703515e-02	0.0	2.232000e-02	-2.473687e-02	0.0	1.790000e-02	-2.238001e-02	0.0	1.395000e-02	-1.995376e-02	0.0	1.049000e-02	-1.746938e-02	0.0	7.520000e-03	-1.492778e-02	0.0	5.040000e-03	-1.232913e-02	0.0	3.050000e-03	-9.671895e-03	0.0	1.560000e-03	-6.971319e-03	0.0	5.600000e-04	-4.206243e-03	0.0	6.000000e-05	-1.384014e-03	0.0	0.000000e+00	0.000000e+00	0.0	6.000000e-05	1.263715e-03	0.0	5.600000e-04	3.624949e-03	0.0	1.560000e-03	5.788668e-03	0.0	3.050000e-03	7.806632e-03	0.0	5.040000e-03	9.723865e-03	0.0	7.520000e-03	1.154812e-02	0.0	1.049000e-02	1.329439e-02	0.0	1.395000e-02	1.497318e-02	0.0	1.790000e-02	1.659241e-02	0.0	2.232000e-02	1.815170e-02	0.0	2.723000e-02	1.966419e-02	0.0	3.260000e-02	2.112576e-02	0.0	3.844000e-02	2.254411e-02	0.0	4.474000e-02	2.392058e-02	0.0	5.149000e-02	2.525657e-02	0.0	5.869000e-02	2.655508e-02	0.0	6.633000e-02	2.781686e-02	0.0	7.440000e-02	2.904256e-02	0.0	8.290000e-02	3.023409e-02	0.0	9.181000e-02	3.139036e-02	0.0	1.011300e-01	3.251287e-02	0.0	1.108500e-01	3.360159e-02	0.0	1.209500e-01	3.465539e-02	0.0	1.314400e-01	3.567613e-02	0.0	1.422900e-01	3.666151e-02	0.0	1.534900e-01	3.761128e-02	0.0	1.650400e-01	3.852579e-02	0.0	1.769300e-01	3.940436e-02	0.0	1.891400e-01	4.024553e-02	0.0	2.016600e-01	4.104850e-02	0.0	2.144700e-01	4.181178e-02	0.0	2.275700e-01	4.253494e-02	0.0	2.409400e-01	4.321630e-02	0.0	2.545700e-01	4.385459e-02	0.0	2.684500e-01	4.444842e-02	0.0	2.825500e-01	4.499547e-02	0.0	2.968700e-01	4.549457e-02	0.0	3.114000e-01	4.594395e-02	0.0	3.261100e-01	4.634114e-02	0.0	3.409900e-01	4.668426e-02	0.0	3.560400e-01	4.697146e-02	0.0	3.712300e-01	4.720014e-02	0.0	3.865400e-01	4.736803e-02	0.0	4.019700e-01	4.747296e-02	0.0	4.175000e-01	4.751249e-02	0.0	4.331100e-01	4.748426e-02	0.0	4.487800e-01	4.738604e-02	0.0	4.645100e-01	4.721548e-02	0.0	4.802700e-01	4.697062e-02	0.0	4.960500e-01	4.664941e-02	0.0	5.118400e-01	4.624996e-02	0.0	5.276100e-01	4.577110e-02	0.0	5.433600e-01	4.521116e-02	0.0	5.590600e-01	4.456977e-02	0.0	5.747100e-01	4.384581e-02	0.0	5.902800e-01	4.303992e-02	0.0	6.057600e-01	4.215238e-02	0.0	6.211300e-01	4.118455e-02	0.0	6.363800e-01	4.013785e-02	0.0	6.515000e-01	3.901421e-02	0.0	6.664700e-01	3.781699e-02	0.0	6.812700e-01	3.655041e-02	0.0	6.958900e-01	3.521861e-02	0.0	7.103200e-01	3.382640e-02	0.0	7.245300e-01	3.238135e-02	0.0	7.385200e-01	3.088879e-02	0.0	7.522800e-01	2.935567e-02	0.0	7.657800e-01	2.779190e-02	0.0	7.790100e-01	2.620584e-02	0.0	7.919700e-01	2.460514e-02	0.0	8.046400e-01	2.300032e-02	0.0	8.170100e-01	2.140104e-02	0.0	8.290500e-01	1.981962e-02	0.0	8.407700e-01	1.826288e-02	0.0	8.521600e-01	1.673924e-02	0.0	8.631800e-01	1.525956e-02	0.0	8.738500e-01	1.382431e-02	0.0	8.841500e-01	1.243671e-02	0.0	8.940600e-01	1.109797e-02	0.0	9.035800e-01	9.806396e-03	0.0	9.127000e-01	8.564698e-03	0.0	9.214000e-01	7.383819e-03	0.0	9.296900e-01	6.280321e-03	0.0	9.375400e-01	5.285166e-03	0.0	9.449600e-01	4.427495e-03	0.0	9.519400e-01	3.732223e-03	0.0	9.584700e-01	3.205467e-03	0.0	9.645400e-01	2.827052e-03	0.0	9.701500e-01	2.552121e-03	0.0	9.752800e-01	2.324878e-03	0.0	9.799500e-01	2.093088e-03	0.0	9.841300e-01	1.827039e-03	0.0	9.878400e-01	1.519907e-03	0.0	9.910500e-01	1.190204e-03	0.0	9.937800e-01	8.630226e-04	0.0	9.960200e-01	5.666265e-04	0.0	9.977600e-01	3.231883e-04	0.0	9.990000e-01	1.450783e-04	0.0	9.997500e-01	3.632619e-05	0.0	1.000000e+00	0.000000e+00	0.0	
CELLS 200	600
2	149	150	2	150	151	2	151	152	2	152	153	2	153	154	2	154	155	2	155	156	2	156	157	2	157	158	2	158	159	2	159	160	2	160	161	2	161	162	2	162	163	2	163	164	2	164	165	2	165	166	2	166	167	2	167	168	2	168	169	2	169	170	2	170	171	2	171	172	2	172	173	2	173	174	2	174	175	2	175	176	2	176	177	2	177	178	2	178	179	2	179	180	2	180	181	2	181	182	2	31	32	2	32	33	2	33	34	2	34	35	2	35	36	2	36	37	2	37	38	2	38	39	2	39	40	2	40	41	2	41	42	2	42	43	2	43	44	2	44	45	2	45	46	2	46	47	2	47	48	2	48	49	2	49	50	2	50	51	2	51	52	2	52	53	2	53	54	2	54	55	2	55	56	2	56	57	2	57	58	2	58	59	2	59	60	2	60	61	2	61	62	2	62	63	2	63	64	2	64	65	2	65	66	2	66	67	2	67	68	2	68	69	2	69	70	2	70	71	2	71	72	2	72	73	2	73	74	2	74	75	2	75	76	2	76	77	2	77	78	2	78	79	2	79	80	2	80	81	2	81	82	2	82	83	2	83	84	2	113	114	2	114	115	2	115	116	2	116	117	2	117	118	2	118	119	2	119	120	2	120	121	2	121	122	2	122	123	2	123	124	2	124	125	2	125	126	2	126	127	2	127	128	2	128	129	2	129	130	2	130	131	2	131	132	2	132	133	2	133	134	2	134	135	2	135	136	2	136	137	2	137	138	2	138	139	2	139	140	2	140	141	2	141	142	2	142	143	2	143	144	2	144	145	2	145	146	2	146	147	2	147	148	2	148	149	2	84	85	2	85	86	2	86	87	2	87	88	2	88	89	2	89	90	2	90	91	2	91	92	2	92	93	2	93	94	2	94	95	2	95	96	2	96	97	2	97	98	2	98	99	2	99	100	2	100	101	2	101	102	2	102	103	2	103	104	2	104	105	2	105	106	2	106	107	2	107	108	2	108	109	2	109	110	2	110	111	2	111	112	2	112	113	2	199	0	2	0	1	2	1	2	2	2	3	2	3	4	2	4	5	2	5	6	2	6	7	2	182	183	2	183	184	2	184	185	2	185	186	2	186	187	2	187	188	2	188	189	2	189	190	2	190	191	2	191	192	2	192	193	2	193	194	2	194	195	2	195	196	2	196	197	2	197	198	2	198	199	2	7	8	2	8	9	2	9	10	2	10	11	2	11	12	2	12	13	2	13	14	2	14	15	2	15	16	2	16	17	2	17	18	2	18	19	2	19	20	2	20	21	2	21	22	2	22	23	2	23	24	2	24	25	2	25	26	2	26	27	2	27	28	2	28	29	2	29	30	2	30	31	
CELL_TYPES 200
3	3	3	3	3	3	3	3	3	3	3	3	3	3	3	3	3	3	3	3	3	3	3	3	3	3	3	3	3	3	3	3	3	3	3	3	3	3	3	3	3	3	3	3	3	3	3	3	3	3	3	3	3	3	3	3	3	3	3	3	3	3	3	3	3	3	3	3	3	3	3	3	3	3	3	3	3	3	3	3	3	3	3	3	3	3	3	3	3	3	3	3	3	3	3	3	3	3	3	3	3	3	3	3	3	3	3	3	3	3	3	3	3	3	3	3	3	3	3	3	3	3	3	3	3	3	3	3	3	3	3	3	3	3	3	3	3	3	3	3	3	3	3	3	3	3	3	3	3	3	3	3	3	3	3	3	3	3	3	3	3	3	3	3	3	3	3	3	3	3	3	3	3	3	3	3	3	3	3	3	3	3	3	3	3	3	3	3	3	3	3	3	3	3	3	3	3	3	3	3	
POINT_DATA 200

SCALARS Conservative_1 float 1
LOOKUP_TABLE default
1.199829e+00	1.181603e+00	1.171179e+00	1.164739e+00	1.160166e+00	1.155701e+00	1.148816e+00	1.137898e+00	1.121717e+00	1.100362e+00	1.075074e+00	1.048463e+00	1.024896e+00	1.008362e+00	9.999885e-01	9.979304e-01	9.990398e-01	1.000483e+00	1.000510e+00	9.985215e-01	9.947380e-01	9.897164e-01	9.840421e-01	9.781866e-01	9.724277e-01	9.668761e-01	9.615233e-01	9.563226e-01	9.512095e-01	9.461526e-01	9.411358e-01	9.361154e-01	9.310573e-01	9.259780e-01	9.209287e-01	9.159579e-01	9.110841e-01	9.063119e-01	9.016527e-01	8.971227e-01	8.927219e-01	8.884609e-01	8.843223e-01	8.803225e-01	8.764761e-01	8.728349e-01	8.693885e-01	8.660733e-01	8.627423e-01	8.593853e-01	8.562043e-01	8.535533e-01	8.515463e-01	8.498918e-01	8.479170e-01	8.448702e-01	8.402519e-01	8.342100e-01	8.276244e-01	8.217520e-01	8.174790e-01	8.149979e-01	8.140362e-01	8.141608e-01	8.150621e-01	8.165413e-01	8.185489e-01	8.210015e-01	8.238128e-01	8.268702e-01	8.301927e-01	8.339433e-01	8.383689e-01	8.435375e-01	8.493728e-01	8.557284e-01	8.626690e-01	8.703727e-01	8.788968e-01	8.882805e-01	8.986356e-01	9.100211e-01	9.225882e-01	9.364548e-01	9.518108e-01	9.689334e-01	9.880506e-01	1.009521e+00	1.033831e+00	1.061295e+00	1.092443e+00	1.127744e+00	1.167045e+00	1.209885e+00	1.254555e+00	1.298041e+00	1.331744e+00	1.350900e+00	1.339533e+00	1.308267e+00	1.284252e+00	1.221084e+00	1.099435e+00	1.001952e+00	9.259580e-01	8.702554e-01	8.322807e-01	8.072831e-01	7.904566e-01	7.790618e-01	7.714033e-01	7.663122e-01	7.632291e-01	7.614165e-01	7.605007e-01	7.604778e-01	7.612197e-01	7.624893e-01	7.639653e-01	7.653206e-01	7.665722e-01	7.680439e-01	7.699942e-01	7.722731e-01	7.744816e-01	7.763917e-01	7.780955e-01	7.797395e-01	7.814263e-01	7.832264e-01	7.851947e-01	7.873158e-01	7.895178e-01	7.916998e-01	7.938189e-01	7.958476e-01	7.977754e-01	7.995645e-01	8.012240e-01	8.028711e-01	8.047185e-01	8.069203e-01	8.095248e-01	8.124939e-01	8.158334e-01	8.196104e-01	8.238591e-01	8.285478e-01	8.335005e-01	8.385036e-01	8.433497e-01	8.480987e-01	8.530524e-01	8.585647e-01	8.646977e-01	8.712199e-01	8.779087e-01	8.847630e-01	8.919498e-01	8.995167e-01	9.074122e-01	9.155485e-01	9.238770e-01	9.323855e-01	9.410441e-01	9.498395e-01	9.587216e-01	9.676726e-01	9.766184e-01	9.855613e-01	9.944184e-01	1.003109e+00	1.011571e+00	1.019719e+00	1.027508e+00	1.034917e+00	1.041992e+00	1.048912e+00	1.055939e+00	1.063460e+00	1.071774e+00	1.080975e+00	1.090683e+00	1.100036e+00	1.107782e+00	1.112587e+00	1.113361e+00	1.109742e+00	1.102492e+00	1.093778e+00	1.086677e+00	1.084160e+00	1.088065e+00	1.098280e+00	1.112853e+00	1.130017e+00	1.148479e+00	1.168636e+00	1.192714e+00	1.181127e+00	
SCALARS Conservative_2 float 1
LOOKUP_TABLE default
7.195756e-01	7.459512e-01	7.640421e-01	7.748515e-01	7.807435e-01	7.855171e-01	7.913231e-01	8.009883e-01	8.159977e-01	8.364045e-01	8.604928e-01	8.849356e-01	9.060897e-01	9.215744e-01	9.308006e-01	9.347634e-01	9.355174e-01	9.351567e-01	9.351402e-01	9.360795e-01	9.380282e-01	9.406854e-01	9.436754e-01	9.467078e-01	9.495959e-01	9.522739e-01	9.547369e-01	9.570269e-01	9.591544e-01	9.611515e-01	9.630534e-01	9.648523e-01	9.665625e-01	9.681816e-01	9.696972e-01	9.710970e-01	9.723956e-01	9.735742e-01	9.746429e-01	9.756169e-01	9.764773e-01	9.772589e-01	9.779354e-01	9.785440e-01	9.790519e-01	9.795001e-01	9.798658e-01	9.802011e-01	9.804742e-01	9.807243e-01	9.808924e-01	9.810054e-01	9.810482e-01	9.810777e-01	9.811132e-01	9.811870e-01	9.812258e-01	9.811489e-01	9.808248e-01	9.803293e-01	9.798254e-01	9.794123e-01	9.791627e-01	9.790116e-01	9.789593e-01	9.789155e-01	9.789027e-01	9.788494e-01	9.787690e-01	9.785943e-01	9.783390e-01	9.779492e-01	9.774267e-01	9.766915e-01	9.757310e-01	9.744047e-01	9.727328e-01	9.706206e-01	9.678374e-01	9.642285e-01	9.597036e-01	9.539709e-01	9.467671e-01	9.376753e-01	9.261801e-01	9.115533e-01	8.928631e-01	8.690348e-01	8.384960e-01	7.990971e-01	7.483521e-01	6.832136e-01	6.000177e-01	4.965594e-01	3.728463e-01	2.366382e-01	1.074526e-01	1.080521e-02	-2.158045e-02	5.237543e-03	7.307224e-02	2.105354e-01	4.135728e-01	5.903348e-01	7.153331e-01	7.968951e-01	8.484683e-01	8.813708e-01	9.026352e-01	9.169627e-01	9.269999e-01	9.341658e-01	9.396347e-01	9.439114e-01	9.473428e-01	9.502847e-01	9.527995e-01	9.549731e-01	9.569033e-01	9.585685e-01	9.600542e-01	9.614738e-01	9.628431e-01	9.640742e-01	9.651720e-01	9.661352e-01	9.670199e-01	9.678307e-01	9.686099e-01	9.693542e-01	9.700960e-01	9.708151e-01	9.715147e-01	9.721637e-01	9.727758e-01	9.733353e-01	9.738556e-01	9.743273e-01	9.747647e-01	9.751853e-01	9.756370e-01	9.760991e-01	9.765777e-01	9.770566e-01	9.775325e-01	9.780035e-01	9.784388e-01	9.788393e-01	9.791214e-01	9.793172e-01	9.794114e-01	9.794413e-01	9.793874e-01	9.792214e-01	9.788783e-01	9.783294e-01	9.776104e-01	9.766663e-01	9.755020e-01	9.740595e-01	9.723365e-01	9.703076e-01	9.679776e-01	9.653300e-01	9.623602e-01	9.590619e-01	9.554338e-01	9.515159e-01	9.472423e-01	9.427244e-01	9.379687e-01	9.329940e-01	9.279161e-01	9.227898e-01	9.176699e-01	9.125825e-01	9.074718e-01	9.022149e-01	8.965193e-01	8.900887e-01	8.825875e-01	8.740085e-01	8.647775e-01	8.559770e-01	8.491467e-01	8.458524e-01	8.471036e-01	8.528048e-01	8.614968e-01	8.705144e-01	8.765518e-01	8.769669e-01	8.704529e-01	8.577429e-01	8.395688e-01	8.174782e-01	7.911820e-01	7.596445e-01	7.213182e-01	6.623527e-01	
SCALARS Conservative_3 float 1
LOOKUP_TABLE default
1.010185e-01	1.066669e-01	1.128621e-01	1.197578e-01	1.301704e-01	1.447845e-01	1.632536e-01	1.836649e-01	2.028702e-01	2.169476e-01	2.227152e-01	2.185960e-01	2.055565e-01	1.873910e-01	1.688243e-01	1.535243e-01	1.431290e-01	1.373978e-01	1.349792e-01	1.342411e-01	1.338877e-01	1.331555e-01	1.317590e-01	1.297258e-01	1.272241e-01	1.244534e-01	1.215473e-01	1.185950e-01	1.156223e-01	1.126168e-01	1.095674e-01	1.064535e-01	1.032636e-01	9.999036e-02	9.661975e-02	9.316665e-02	8.962748e-02	8.602074e-02	8.235282e-02	7.863565e-02	7.488247e-02	7.110010e-02	6.730701e-02	6.350477e-02	5.970096e-02	5.588688e-02	5.206633e-02	4.825130e-02	4.446530e-02	4.071284e-02	3.695759e-02	3.314267e-02	2.924564e-02	2.525342e-02	2.119832e-02	1.712441e-02	1.307665e-02	9.041873e-03	4.912380e-03	5.516782e-04	-4.076804e-03	-8.951481e-03	-1.406101e-02	-1.939400e-02	-2.498871e-02	-3.087319e-02	-3.710373e-02	-4.369718e-02	-5.068713e-02	-5.809350e-02	-6.596321e-02	-7.436033e-02	-8.335521e-02	-9.298036e-02	-1.032785e-01	-1.143014e-01	-1.261602e-01	-1.389214e-01	-1.526611e-01	-1.675033e-01	-1.835665e-01	-2.009632e-01	-2.198488e-01	-2.403582e-01	-2.626119e-01	-2.867282e-01	-3.127780e-01	-3.407068e-01	-3.701285e-01	-4.003123e-01	-4.297832e-01	-4.554361e-01	-4.721976e-01	-4.716531e-01	-4.408842e-01	-3.644589e-01	-2.306542e-01	-3.806450e-02	1.858146e-01	3.519153e-01	4.964268e-01	6.611574e-01	7.236657e-01	6.883998e-01	6.111840e-01	5.275026e-01	4.530396e-01	3.912919e-01	3.411183e-01	3.001188e-01	2.665539e-01	2.386377e-01	2.151956e-01	1.952756e-01	1.781419e-01	1.632807e-01	1.503067e-01	1.388682e-01	1.287110e-01	1.195634e-01	1.112268e-01	1.036323e-01	9.673031e-02	9.042831e-02	8.459611e-02	7.908773e-02	7.387773e-02	6.894152e-02	6.426948e-02	5.981145e-02	5.553537e-02	5.140981e-02	4.740366e-02	4.347877e-02	3.961123e-02	3.578092e-02	3.197384e-02	2.816902e-02	2.433684e-02	2.045746e-02	1.653447e-02	1.256953e-02	8.552074e-03	4.449734e-03	2.443360e-04	-4.069802e-03	-8.489564e-03	-1.300621e-02	-1.763635e-02	-2.239029e-02	-2.728962e-02	-3.235446e-02	-3.753447e-02	-4.280060e-02	-4.810134e-02	-5.345671e-02	-5.888257e-02	-6.435885e-02	-6.982806e-02	-7.524655e-02	-8.057380e-02	-8.579676e-02	-9.085693e-02	-9.572533e-02	-1.003321e-01	-1.046531e-01	-1.086177e-01	-1.121913e-01	-1.153183e-01	-1.179549e-01	-1.200604e-01	-1.216008e-01	-1.225772e-01	-1.230153e-01	-1.229877e-01	-1.226401e-01	-1.221471e-01	-1.216866e-01	-1.213300e-01	-1.209133e-01	-1.199045e-01	-1.174079e-01	-1.123067e-01	-1.037169e-01	-9.144906e-02	-7.642494e-02	-6.080679e-02	-4.768002e-02	-4.028821e-02	-4.083400e-02	-4.941269e-02	-6.379040e-02	-8.016180e-02	-9.480000e-02	-1.049852e-01	-1.097972e-01	-1.102825e-01	-1.061985e-01	-1.003424e-01	2.575595e-03	
SCALARS Conservative_4 float 1
LOOKUP_TABLE default
3.446400e+00	3.400790e+00	3.375501e+00	3.359981e+00	3.348831e+00	3.337958e+00	3.320861e+00	3.293673e+00	3.253301e+00	3.199973e+00	3.136707e+00	3.069894e+00	3.010549e+00	2.968893e+00	2.947826e+00	2.942638e+00	2.945385e+00	2.948943e+00	2.948918e+00	2.943787e+00	2.934115e+00	2.921301e+00	2.906815e+00	2.891851e+00	2.877110e+00	2.862879e+00	2.849134e+00	2.835764e+00	2.822600e+00	2.809564e+00	2.796623e+00	2.783657e+00	2.770578e+00	2.757430e+00	2.744345e+00	2.731448e+00	2.718793e+00	2.706384e+00	2.694255e+00	2.682453e+00	2.670971e+00	2.659848e+00	2.649029e+00	2.638567e+00	2.628490e+00	2.618948e+00	2.609903e+00	2.601205e+00	2.592456e+00	2.583640e+00	2.575271e+00	2.568287e+00	2.562981e+00	2.558603e+00	2.553391e+00	2.545382e+00	2.533246e+00	2.517352e+00	2.499973e+00	2.484426e+00	2.473080e+00	2.466463e+00	2.463884e+00	2.464189e+00	2.466571e+00	2.470480e+00	2.475799e+00	2.482290e+00	2.489735e+00	2.497821e+00	2.506608e+00	2.516512e+00	2.528190e+00	2.541805e+00	2.557165e+00	2.573854e+00	2.592067e+00	2.612263e+00	2.634545e+00	2.659001e+00	2.685941e+00	2.715477e+00	2.747994e+00	2.783758e+00	2.823221e+00	2.867039e+00	2.915727e+00	2.970164e+00	3.031502e+00	3.100392e+00	3.178095e+00	3.265660e+00	3.362448e+00	3.467276e+00	3.575828e+00	3.681278e+00	3.762485e+00	3.809725e+00	3.781236e+00	3.702858e+00	3.649617e+00	3.499802e+00	3.190694e+00	2.942776e+00	2.747792e+00	2.604057e+00	2.505841e+00	2.441111e+00	2.397377e+00	2.367665e+00	2.347667e+00	2.334312e+00	2.326245e+00	2.321525e+00	2.319169e+00	2.319205e+00	2.321262e+00	2.324709e+00	2.328716e+00	2.332400e+00	2.335818e+00	2.339839e+00	2.345130e+00	2.351265e+00	2.357200e+00	2.362337e+00	2.366931e+00	2.371362e+00	2.375908e+00	2.380751e+00	2.386042e+00	2.391734e+00	2.397640e+00	2.403485e+00	2.409161e+00	2.414590e+00	2.419751e+00	2.424539e+00	2.428983e+00	2.433395e+00	2.438347e+00	2.444234e+00	2.451186e+00	2.459099e+00	2.467989e+00	2.478032e+00	2.489311e+00	2.501746e+00	2.514849e+00	2.528075e+00	2.540875e+00	2.553417e+00	2.566490e+00	2.581018e+00	2.597148e+00	2.614266e+00	2.631800e+00	2.649731e+00	2.668505e+00	2.688233e+00	2.708782e+00	2.729915e+00	2.751507e+00	2.773522e+00	2.795881e+00	2.818548e+00	2.841390e+00	2.864371e+00	2.887274e+00	2.910136e+00	2.932735e+00	2.954858e+00	2.976364e+00	2.997041e+00	3.016774e+00	3.035516e+00	3.053381e+00	3.070828e+00	3.088494e+00	3.107364e+00	3.128162e+00	3.151141e+00	3.175348e+00	3.198667e+00	3.218026e+00	3.230129e+00	3.232244e+00	3.223403e+00	3.205424e+00	3.183663e+00	3.165776e+00	3.159223e+00	3.168683e+00	3.194033e+00	3.230163e+00	3.272673e+00	3.318105e+00	3.367492e+00	3.426997e+00	3.383858e+00	
SCALARS Pressure float 1
LOOKUP_TABLE default
1.290549e+00	1.264206e+00	1.248338e+00	1.238435e+00	1.231530e+00	1.224774e+00	1.214689e+00	1.198774e+00	1.175262e+00	1.144281e+00	1.107707e+00	1.069460e+00	1.035763e+00	1.012141e+00	1.000150e+00	9.972126e-01	9.988460e-01	1.000984e+00	1.001117e+00	9.983971e-01	9.931317e-01	9.861208e-01	9.782046e-01	9.700511e-01	9.620551e-01	9.543691e-01	9.469808e-01	9.398180e-01	9.327960e-01	9.258671e-01	9.190017e-01	9.121473e-01	9.052564e-01	8.983509e-01	8.915012e-01	8.847730e-01	8.781871e-01	8.717551e-01	8.654893e-01	8.594069e-01	8.535141e-01	8.478149e-01	8.422952e-01	8.369656e-01	8.318563e-01	8.270233e-01	8.224613e-01	8.180709e-01	8.136695e-01	8.092313e-01	8.050418e-01	8.015598e-01	7.989425e-01	7.967884e-01	7.942038e-01	7.901838e-01	7.840872e-01	7.761273e-01	7.675064e-01	7.598687e-01	7.543452e-01	7.511665e-01	7.499481e-01	7.501351e-01	7.513123e-01	7.532427e-01	7.558494e-01	7.590417e-01	7.626958e-01	7.666803e-01	7.710107e-01	7.759143e-01	7.817085e-01	7.884994e-01	7.961771e-01	8.045802e-01	8.137689e-01	8.239875e-01	8.353589e-01	8.479493e-01	8.618924e-01	8.773061e-01	8.944039e-01	9.133854e-01	9.345490e-01	9.583314e-01	9.851188e-01	1.015448e+00	1.050085e+00	1.089622e+00	1.134893e+00	1.186697e+00	1.245070e+00	1.309378e+00	1.377182e+00	1.443417e+00	1.495270e+00	1.523658e+00	1.507270e+00	1.462207e+00	1.420636e+00	1.321064e+00	1.149897e+00	1.012953e+00	9.079100e-01	8.317302e-01	7.800212e-01	7.460606e-01	7.233625e-01	7.080881e-01	6.978495e-01	6.911048e-01	6.870002e-01	6.845644e-01	6.833041e-01	6.831776e-01	6.840499e-01	6.856156e-01	6.874358e-01	6.891019e-01	6.906254e-01	6.924152e-01	6.948234e-01	6.976860e-01	7.004694e-01	7.028736e-01	7.050064e-01	7.070667e-01	7.091797e-01	7.114440e-01	7.139235e-01	7.166058e-01	7.193936e-01	7.221636e-01	7.248536e-01	7.274332e-01	7.298840e-01	7.321592e-01	7.342666e-01	7.363574e-01	7.386992e-01	7.415048e-01	7.448356e-01	7.486446e-01	7.529394e-01	7.578075e-01	7.633025e-01	7.693789e-01	7.758284e-01	7.823550e-01	7.886884e-01	7.948951e-01	8.013793e-01	8.086137e-01	8.166969e-01	8.253290e-01	8.342030e-01	8.433327e-01	8.529324e-01	8.630784e-01	8.737007e-01	8.846897e-01	8.959792e-01	9.075556e-01	9.193813e-01	9.314385e-01	9.436634e-01	9.560212e-01	9.684363e-01	9.808812e-01	9.932503e-01	1.005439e+00	1.017339e+00	1.028833e+00	1.039851e+00	1.050358e+00	1.060425e+00	1.070301e+00	1.080376e+00	1.091200e+00	1.103223e+00	1.116572e+00	1.130694e+00	1.144298e+00	1.155521e+00	1.162389e+00	1.163329e+00	1.157880e+00	1.147239e+00	1.134596e+00	1.124449e+00	1.121064e+00	1.127019e+00	1.141999e+00	1.163405e+00	1.188659e+00	1.216116e+00	1.246309e+00	1.281864e+00	1.279255e+00	
SCALARS Temperature float 1
LOOKUP_TABLE default
1.075611e+00	1.069907e+00	1.065881e+00	1.063272e+00	1.061512e+00	1.059767e+00	1.057340e+00	1.053498e+00	1.047735e+00	1.039913e+00	1.030354e+00	1.020027e+00	1.010603e+00	1.003748e+00	1.000162e+00	9.992807e-01	9.998060e-01	1.000501e+00	1.000607e+00	9.998754e-01	9.983852e-01	9.963670e-01	9.940679e-01	9.916831e-01	9.893333e-01	9.870646e-01	9.848756e-01	9.827416e-01	9.806420e-01	9.785600e-01	9.764815e-01	9.743961e-01	9.722885e-01	9.701644e-01	9.680458e-01	9.659538e-01	9.638924e-01	9.618709e-01	9.598921e-01	9.579591e-01	9.560806e-01	9.542512e-01	9.524753e-01	9.507488e-01	9.490919e-01	9.475140e-01	9.460227e-01	9.445746e-01	9.431200e-01	9.416397e-01	9.402449e-01	9.390858e-01	9.382255e-01	9.375175e-01	9.366527e-01	9.352724e-01	9.331573e-01	9.303739e-01	9.273608e-01	9.246935e-01	9.227701e-01	9.216791e-01	9.212712e-01	9.213599e-01	9.217853e-01	9.224797e-01	9.234017e-01	9.245315e-01	9.258121e-01	9.272076e-01	9.287129e-01	9.304161e-01	9.324160e-01	9.347532e-01	9.373706e-01	9.402285e-01	9.433153e-01	9.467065e-01	9.504630e-01	9.545963e-01	9.591122e-01	9.640504e-01	9.694509e-01	9.753652e-01	9.818643e-01	9.890581e-01	9.970327e-01	1.005871e+00	1.015722e+00	1.026692e+00	1.038858e+00	1.052276e+00	1.066857e+00	1.082233e+00	1.097745e+00	1.111996e+00	1.122791e+00	1.127884e+00	1.125220e+00	1.117667e+00	1.106198e+00	1.081878e+00	1.045899e+00	1.010979e+00	9.805089e-01	9.557311e-01	9.372093e-01	9.241623e-01	9.151198e-01	9.088986e-01	9.046493e-01	9.018580e-01	9.001232e-01	8.990669e-01	8.984925e-01	8.983530e-01	8.986236e-01	8.991806e-01	8.998260e-01	9.004094e-01	9.009267e-01	9.015307e-01	9.023749e-01	9.034188e-01	9.044365e-01	9.053080e-01	9.060667e-01	9.067987e-01	9.075453e-01	9.083504e-01	9.092312e-01	9.101885e-01	9.111810e-01	9.121684e-01	9.131222e-01	9.140357e-01	9.148992e-01	9.156976e-01	9.164312e-01	9.171552e-01	9.179597e-01	9.189320e-01	9.200899e-01	9.214157e-01	9.229082e-01	9.245948e-01	9.264964e-01	9.285873e-01	9.308074e-01	9.330371e-01	9.351854e-01	9.372671e-01	9.394256e-01	9.418203e-01	9.444884e-01	9.473257e-01	9.502161e-01	9.531736e-01	9.562560e-01	9.594912e-01	9.628488e-01	9.662948e-01	9.698035e-01	9.733696e-01	9.769800e-01	9.806272e-01	9.842935e-01	9.879593e-01	9.916220e-01	9.952513e-01	9.988253e-01	1.002323e+00	1.005702e+00	1.008938e+00	1.012012e+00	1.014920e+00	1.017690e+00	1.020391e+00	1.023142e+00	1.026084e+00	1.029343e+00	1.032931e+00	1.036684e+00	1.040237e+00	1.043095e+00	1.044762e+00	1.044881e+00	1.043378e+00	1.040587e+00	1.037318e+00	1.034759e+00	1.034040e+00	1.035802e+00	1.039807e+00	1.045426e+00	1.051895e+00	1.058892e+00	1.066464e+00	1.074745e+00	1.083081e+00	
SCALARS Pressure_Coefficient float 1
LOOKUP_TABLE default
6.485460e-01	5.897448e-01	5.543253e-01	5.322202e-01	5.168076e-01	5.017277e-01	4.792175e-01	4.436920e-01	3.912101e-01	3.220565e-01	2.404174e-01	1.550447e-01	7.982809e-02	2.710082e-02	3.348984e-04	-6.221916e-03	-2.575954e-03	2.196533e-03	2.492831e-03	-3.577979e-03	-1.533098e-02	-3.098030e-02	-4.865034e-02	-6.685015e-02	-8.469838e-02	-1.018546e-01	-1.183464e-01	-1.343349e-01	-1.500090e-01	-1.654753e-01	-1.807998e-01	-1.960999e-01	-2.114814e-01	-2.268952e-01	-2.421849e-01	-2.572031e-01	-2.719039e-01	-2.862610e-01	-3.002471e-01	-3.138240e-01	-3.269774e-01	-3.396989e-01	-3.520196e-01	-3.639162e-01	-3.753207e-01	-3.861087e-01	-3.962918e-01	-4.060918e-01	-4.159162e-01	-4.258229e-01	-4.351746e-01	-4.429470e-01	-4.487891e-01	-4.535974e-01	-4.593666e-01	-4.683396e-01	-4.819483e-01	-4.997159e-01	-5.189589e-01	-5.360074e-01	-5.483366e-01	-5.554318e-01	-5.581515e-01	-5.577342e-01	-5.551066e-01	-5.507975e-01	-5.449789e-01	-5.378534e-01	-5.296969e-01	-5.208028e-01	-5.111369e-01	-5.001913e-01	-4.872577e-01	-4.720996e-01	-4.549618e-01	-4.362049e-01	-4.156945e-01	-3.928851e-01	-3.675024e-01	-3.393988e-01	-3.082759e-01	-2.738702e-01	-2.357055e-01	-1.933362e-01	-1.460959e-01	-9.301028e-02	-3.321697e-02	3.448324e-02	1.117961e-01	2.000500e-01	3.011013e-01	4.167353e-01	5.470320e-01	6.905752e-01	8.419240e-01	9.897700e-01	1.105514e+00	1.168880e+00	1.132299e+00	1.031711e+00	9.389205e-01	7.166609e-01	3.345923e-01	2.891250e-02	-2.055579e-01	-3.756022e-01	-4.910242e-01	-5.668289e-01	-6.174943e-01	-6.515890e-01	-6.744432e-01	-6.894982e-01	-6.986603e-01	-7.040973e-01	-7.069105e-01	-7.071930e-01	-7.052457e-01	-7.017508e-01	-6.976879e-01	-6.939690e-01	-6.905684e-01	-6.865733e-01	-6.811977e-01	-6.748080e-01	-6.685951e-01	-6.632285e-01	-6.584678e-01	-6.538689e-01	-6.491524e-01	-6.440982e-01	-6.385637e-01	-6.325763e-01	-6.263536e-01	-6.201706e-01	-6.141660e-01	-6.084081e-01	-6.029374e-01	-5.978588e-01	-5.931548e-01	-5.884880e-01	-5.832608e-01	-5.769981e-01	-5.695634e-01	-5.610611e-01	-5.514746e-01	-5.406082e-01	-5.283426e-01	-5.147792e-01	-5.003830e-01	-4.858147e-01	-4.716778e-01	-4.578235e-01	-4.433499e-01	-4.272016e-01	-4.091587e-01	-3.898907e-01	-3.700826e-01	-3.497037e-01	-3.282759e-01	-3.056286e-01	-2.819180e-01	-2.573890e-01	-2.321894e-01	-2.063490e-01	-1.799526e-01	-1.530391e-01	-1.257513e-01	-9.816701e-02	-7.045467e-02	-4.267598e-02	-1.506633e-02	1.214044e-02	3.870316e-02	6.436041e-02	8.895308e-02	1.124065e-01	1.348770e-01	1.569217e-01	1.794100e-01	2.035711e-01	2.304082e-01	2.602064e-01	2.917273e-01	3.220933e-01	3.471461e-01	3.624744e-01	3.645746e-01	3.524117e-01	3.286584e-01	3.004369e-01	2.777890e-01	2.702331e-01	2.835253e-01	3.169629e-01	3.647443e-01	4.211149e-01	4.824012e-01	5.497967e-01	6.291607e-01	6.233378e-01	
SCALARS Mach float 1
LOOKUP_TABLE default
4.935187e-01	5.210711e-01	5.398373e-01	5.517339e-01	5.596488e-01	5.674081e-01	5.780731e-01	5.946601e-01	6.189268e-01	6.508141e-01	6.883855e-01	7.275289e-01	7.621398e-01	7.867472e-01	7.994496e-01	8.025525e-01	8.007030e-01	7.982514e-01	7.978795e-01	8.004586e-01	8.057003e-01	8.127704e-01	8.207849e-01	8.290549e-01	8.371617e-01	8.449516e-01	8.524334e-01	8.596967e-01	8.668138e-01	8.738437e-01	8.808353e-01	8.878243e-01	8.948626e-01	9.019310e-01	9.089570e-01	9.158714e-01	9.226633e-01	9.293035e-01	9.357844e-01	9.420980e-01	9.482174e-01	9.541624e-01	9.599197e-01	9.655044e-01	9.708529e-01	9.759359e-01	9.807316e-01	9.853804e-01	9.900422e-01	9.947788e-01	9.992346e-01	1.002933e+00	1.005674e+00	1.007929e+00	1.010680e+00	1.015067e+00	1.021778e+00	1.030588e+00	1.040100e+00	1.048500e+00	1.054545e+00	1.057970e+00	1.059249e+00	1.058971e+00	1.057637e+00	1.055457e+00	1.052561e+00	1.049009e+00	1.044980e+00	1.040583e+00	1.035835e+00	1.030455e+00	1.024127e+00	1.016716e+00	1.008397e+00	9.992872e-01	9.894167e-01	9.785339e-01	9.664278e-01	9.530419e-01	9.383338e-01	9.221436e-01	9.042999e-01	8.845797e-01	8.626740e-01	8.381089e-01	8.104421e-01	7.791728e-01	7.434589e-01	7.024261e-01	6.550323e-01	5.998684e-01	5.353360e-01	4.598654e-01	3.712564e-01	2.683051e-01	1.523972e-01	2.330929e-02	1.112635e-01	2.150650e-01	3.139636e-01	4.617201e-01	6.265146e-01	7.607758e-01	8.672638e-01	9.493542e-01	1.008910e+00	1.050170e+00	1.078499e+00	1.097883e+00	1.111078e+00	1.119728e+00	1.125097e+00	1.128364e+00	1.130140e+00	1.130571e+00	1.129734e+00	1.128012e+00	1.126016e+00	1.124212e+00	1.122611e+00	1.120741e+00	1.118127e+00	1.114893e+00	1.111738e+00	1.109035e+00	1.106680e+00	1.104408e+00	1.102089e+00	1.099587e+00	1.096849e+00	1.093871e+00	1.090781e+00	1.087705e+00	1.084732e+00	1.081883e+00	1.079188e+00	1.076695e+00	1.074403e+00	1.072140e+00	1.069623e+00	1.066580e+00	1.062953e+00	1.058796e+00	1.054111e+00	1.048810e+00	1.042824e+00	1.036231e+00	1.029218e+00	1.022159e+00	1.015344e+00	1.008726e+00	1.001849e+00	9.942012e-01	9.856570e-01	9.765421e-01	9.672251e-01	9.576573e-01	9.476467e-01	9.370952e-01	9.260937e-01	9.147458e-01	9.031294e-01	8.912556e-01	8.791608e-01	8.668636e-01	8.544177e-01	8.418837e-01	8.292659e-01	8.166649e-01	8.041542e-01	7.918093e-01	7.797768e-01	7.681586e-01	7.570246e-01	7.464030e-01	7.362004e-01	7.261697e-01	7.158631e-01	7.047371e-01	6.922802e-01	6.783969e-01	6.636671e-01	6.495163e-01	6.379793e-01	6.311803e-01	6.306946e-01	6.368256e-01	6.481109e-01	6.611562e-01	6.712468e-01	6.740670e-01	6.671479e-01	6.512386e-01	6.284590e-01	6.014829e-01	5.712707e-01	5.371516e-01	4.977780e-01	4.554091e-01	