# vtk DataFile Version 3.0
vtk output
ASCII
DATASET UNSTRUCTURED_GRID
POINTS 5233 float
9.997500e-01	-3.632490e-05	0.0	9.990000e-01	-1.449975e-04	0.0	9.977600e-01	-3.223144e-04	0.0	9.960200e-01	-5.620157e-04	0.0	9.937800e-01	-8.469570e-04	0.0	9.910500e-01	-1.148183e-03	0.0	9.878400e-01	-1.431975e-03	0.0	9.841300e-01	-1.675071e-03	0.0	9.799500e-01	-1.877648e-03	0.0	9.752800e-01	-2.086486e-03	0.0	9.701500e-01	-2.391895e-03	0.0	9.645400e-01	-2.915426e-03	0.0	9.584700e-01	-3.770048e-03	0.0	9.519400e-01	-5.026340e-03	0.0	9.449600e-01	-6.684616e-03	0.0	9.375400e-01	-8.674510e-03	0.0	9.296900e-01	-1.087625e-02	0.0	9.214000e-01	-1.315860e-02	0.0	9.127000e-01	-1.539255e-02	0.0	9.035800e-01	-1.749308e-02	0.0	8.940600e-01	-1.940803e-02	0.0	8.841500e-01	-2.112484e-02	0.0	8.738500e-01	-2.265932e-02	0.0	8.631800e-01	-2.403955e-02	0.0	8.521600e-01	-2.529968e-02	0.0	8.407700e-01	-2.647627e-02	0.0	8.290500e-01	-2.759348e-02	0.0	8.170100e-01	-2.867175e-02	0.0	8.046400e-01	-2.972647e-02	0.0	7.919700e-01	-3.076452e-02	0.0	7.790100e-01	-3.179137e-02	0.0	7.657800e-01	-3.281010e-02	0.0	7.522800e-01	-3.382484e-02	0.0	7.385200e-01	-3.483893e-02	0.0	7.245300e-01	-3.585438e-02	0.0	7.103200e-01	-3.687451e-02	0.0	6.958900e-01	-3.790283e-02	0.0	6.812700e-01	-3.893977e-02	0.0	6.664700e-01	-3.998607e-02	0.0	6.515000e-01	-4.104118e-02	0.0	6.363800e-01	-4.210266e-02	0.0	6.211300e-01	-4.316705e-02	0.0	6.057600e-01	-4.423076e-02	0.0	5.902800e-01	-4.528970e-02	0.0	5.747100e-01	-4.633875e-02	0.0	5.590600e-01	-4.737337e-02	0.0	5.433600e-01	-4.838771e-02	0.0	5.276100e-01	-4.937795e-02	0.0	5.118400e-01	-5.033849e-02	0.0	4.960500e-01	-5.126566e-02	0.0	4.802700e-01	-5.215408e-02	0.0	4.645100e-01	-5.299962e-02	0.0	4.487800e-01	-5.379815e-02	0.0	4.331100e-01	-5.454463e-02	0.0	4.175000e-01	-5.523559e-02	0.0	4.019700e-01	-5.586672e-02	0.0	3.865400e-01	-5.643399e-02	0.0	3.712300e-01	-5.693372e-02	0.0	3.560400e-01	-5.736318e-02	0.0	3.409900e-01	-5.771933e-02	0.0	3.261100e-01	-5.799948e-02	0.0	3.114000e-01	-5.820203e-02	0.0	2.968700e-01	-5.832547e-02	0.0	2.825500e-01	-5.836861e-02	0.0	2.684500e-01	-5.833091e-02	0.0	2.545700e-01	-5.821195e-02	0.0	2.409400e-01	-5.801181e-02	0.0	2.275700e-01	-5.773069e-02	0.0	2.144700e-01	-5.736884e-02	0.0	2.016600e-01	-5.692686e-02	0.0	1.891400e-01	-5.640463e-02	0.0	1.769300e-01	-5.580257e-02	0.0	1.650400e-01	-5.512056e-02	0.0	1.534900e-01	-5.435881e-02	0.0	1.422900e-01	-5.351671e-02	0.0	1.314400e-01	-5.259230e-02	0.0	1.209500e-01	-5.158369e-02	0.0	1.108500e-01	-5.049071e-02	0.0	1.011300e-01	-4.930852e-02	0.0	9.181000e-02	-4.803495e-02	0.0	8.290000e-02	-4.666628e-02	0.0	7.440000e-02	-4.519656e-02	0.0	6.633000e-02	-4.362279e-02	0.0	5.869000e-02	-4.193803e-02	0.0	5.149000e-02	-4.013699e-02	0.0	4.474000e-02	-3.821462e-02	0.0	3.844000e-02	-3.616318e-02	0.0	3.260000e-02	-3.397815e-02	0.0	2.723000e-02	-3.165668e-02	0.0	2.232000e-02	-2.918768e-02	0.0	1.790000e-02	-2.658205e-02	0.0	1.395000e-02	-2.382576e-02	0.0	1.049000e-02	-2.093221e-02	0.0	7.520000e-03	-1.790714e-02	0.0	5.040000e-03	-1.476036e-02	0.0	3.050000e-03	-1.150635e-02	0.0	1.560000e-03	-8.190277e-03	0.0	5.600000e-04	-4.829579e-03	0.0	6.000000e-05	-1.516062e-03	0.0	0.000000e+00	0.000000e+00	0.0	6.000000e-05	1.290184e-03	0.0	5.600000e-04	3.735174e-03	0.0	1.560000e-03	5.995414e-03	0.0	3.050000e-03	8.118392e-03	0.0	5.040000e-03	1.015132e-02	0.0	7.520000e-03	1.210396e-02	0.0	1.049000e-02	1.399405e-02	0.0	1.395000e-02	1.583436e-02	0.0	1.790000e-02	1.763438e-02	0.0	2.232000e-02	1.939355e-02	0.0	2.723000e-02	2.112574e-02	0.0	3.260000e-02	2.282436e-02	0.0	3.844000e-02	2.449548e-02	0.0	4.474000e-02	2.613706e-02	0.0	5.149000e-02	2.774622e-02	0.0	5.869000e-02	2.932134e-02	0.0	6.633000e-02	3.085740e-02	0.0	7.440000e-02	3.234870e-02	0.0	8.290000e-02	3.379061e-02	0.0	9.181000e-02	3.517446e-02	0.0	1.011300e-01	3.649452e-02	0.0	1.108500e-01	3.774306e-02	0.0	1.209500e-01	3.891122e-02	0.0	1.314400e-01	3.999359e-02	0.0	1.422900e-01	4.098061e-02	0.0	1.534900e-01	4.186551e-02	0.0	1.650400e-01	4.264266e-02	0.0	1.769300e-01	4.330610e-02	0.0	1.891400e-01	4.385030e-02	0.0	2.016600e-01	4.427139e-02	0.0	2.144700e-01	4.456634e-02	0.0	2.275700e-01	4.473380e-02	0.0	2.409400e-01	4.477327e-02	0.0	2.545700e-01	4.468574e-02	0.0	2.684500e-01	4.447348e-02	0.0	2.825500e-01	4.414060e-02	0.0	2.968700e-01	4.369199e-02	0.0	3.114000e-01	4.313387e-02	0.0	3.261100e-01	4.247455e-02	0.0	3.409900e-01	4.172281e-02	0.0	3.560400e-01	4.088776e-02	0.0	3.712300e-01	3.998106e-02	0.0	3.865400e-01	3.901476e-02	0.0	4.019700e-01	3.800028e-02	0.0	4.175000e-01	3.695087e-02	0.0	4.331100e-01	3.588021e-02	0.0	4.487800e-01	3.480229e-02	0.0	4.645100e-01	3.372985e-02	0.0	4.802700e-01	3.267767e-02	0.0	4.960500e-01	3.165893e-02	0.0	5.118400e-01	3.068639e-02	0.0	5.276100e-01	2.977334e-02	0.0	5.433600e-01	2.893022e-02	0.0	5.590600e-01	2.816777e-02	0.0	5.747100e-01	2.749336e-02	0.0	5.902800e-01	2.691349e-02	0.0	6.057600e-01	2.643098e-02	0.0	6.211300e-01	2.604580e-02	0.0	6.363800e-01	2.575404e-02	0.0	6.515000e-01	2.554806e-02	0.0	6.664700e-01	2.541637e-02	0.0	6.812700e-01	2.534357e-02	0.0	6.958900e-01	2.531073e-02	0.0	7.103200e-01	2.529627e-02	0.0	7.245300e-01	2.527690e-02	0.0	7.385200e-01	2.522890e-02	0.0	7.522800e-01	2.512943e-02	0.0	7.657800e-01	2.495814e-02	0.0	7.790100e-01	2.469816e-02	0.0	7.919700e-01	2.433634e-02	0.0	8.046400e-01	2.386408e-02	0.0	8.170100e-01	2.327587e-02	0.0	8.290500e-01	2.256915e-02	0.0	8.407700e-01	2.173871e-02	0.0	8.521600e-01	2.077718e-02	0.0	8.631800e-01	1.967559e-02	0.0	8.738500e-01	1.841434e-02	0.0	8.841500e-01	1.697477e-02	0.0	8.940600e-01	1.534224e-02	0.0	9.035800e-01	1.351220e-02	0.0	9.127000e-01	1.150697e-02	0.0	9.214000e-01	9.389024e-03	0.0	9.296900e-01	7.256709e-03	0.0	9.375400e-01	5.254578e-03	0.0	9.449600e-01	3.530100e-03	0.0	9.519400e-01	2.212640e-03	0.0	9.584700e-01	1.368450e-03	0.0	9.645400e-01	9.750077e-04	0.0	9.701500e-01	9.245352e-04	0.0	9.752800e-01	1.058739e-03	0.0	9.799500e-01	1.220333e-03	0.0	9.841300e-01	1.295811e-03	0.0	9.878400e-01	1.238913e-03	0.0	9.910500e-01	1.063362e-03	0.0	9.937800e-01	8.162972e-04	0.0	9.960200e-01	5.535359e-04	0.0	9.977600e-01	3.207447e-04	0.0	9.990000e-01	1.448544e-04	0.0	9.997500e-01	3.632263e-05	0.0	1.000000e+00	0.000000e+00	0.0	1.984229e+01	2.506660e+00	0.0	1.937166e+01	4.973800e+00	0.0	1.859553e+01	7.362490e+00	0.0	1.752613e+01	9.635070e+00	0.0	1.618034e+01	1.175571e+01	0.0	1.457937e+01	1.369094e+01	0.0	1.274848e+01	1.541027e+01	0.0	1.071654e+01	1.688656e+01	0.0	8.515590e+00	1.809654e+01	0.0	6.180340e+00	1.902113e+01	0.0	3.747630e+00	1.964575e+01	0.0	1.255810e+00	1.996053e+01	0.0	-1.255810e+00	1.996053e+01	0.0	-3.747630e+00	1.964574e+01	0.0	-6.180340e+00	1.902113e+01	0.0	-8.515590e+00	1.809654e+01	0.0	-1.071654e+01	1.688656e+01	0.0	-1.274848e+01	1.541026e+01	0.0	-1.457937e+01	1.369094e+01	0.0	-1.618034e+01	1.175570e+01	0.0	-1.752613e+01	9.635070e+00	0.0	-1.859553e+01	7.362490e+00	0.0	-1.937166e+01	4.973800e+00	0.0	-1.984229e+01	2.506660e+00	0.0	-2.000000e+01	0.000000e+00	0.0	-1.984229e+01	-2.506670e+00	0.0	-1.937166e+01	-4.973800e+00	0.0	-1.859553e+01	-7.362490e+00	0.0	-1.752613e+01	-9.635080e+00	0.0	-1.618034e+01	-1.175571e+01	0.0	-1.457937e+01	-1.369094e+01	0.0	-1.274848e+01	-1.541027e+01	0.0	-1.071653e+01	-1.688656e+01	0.0	-8.515580e+00	-1.809654e+01	0.0	-6.180340e+00	-1.902113e+01	0.0	-3.747620e+00	-1.964575e+01	0.0	-1.255810e+00	-1.996053e+01	0.0	1.255810e+00	-1.996053e+01	0.0	3.747630e+00	-1.964574e+01	0.0	6.180340e+00	-1.902113e+01	0.0	8.515590e+00	-1.809654e+01	0.0	1.071654e+01	-1.688656e+01	0.0	1.274848e+01	-1.541026e+01	0.0	1.457937e+01	-1.369094e+01	0.0	1.618034e+01	-1.175570e+01	0.0	1.752614e+01	-9.635070e+00	0.0	1.859553e+01	-7.362490e+00	0.0	1.937166e+01	-4.973790e+00	0.0	1.984229e+01	-2.506660e+00	0.0	2.000000e+01	0.000000e+00	0.0	6.070868e-02	-4.969001e-02	0.0	6.600829e-01	-5.433022e-02	0.0	4.260646e-01	5.089414e-02	0.0	6.891452e-01	3.890479e-02	0.0	3.793443e-01	-7.076729e-02	0.0	9.994646e-01	-7.013537e-04	0.0	9.985554e-01	-1.283035e-03	0.0	7.736371e-01	-4.439713e-02	0.0	6.897130e-01	-5.191047e-02	0.0	-1.300181e-03	5.687192e-03	0.0	7.465958e-01	-4.696210e-02	0.0	5.831850e-01	4.186276e-02	0.0	9.927714e-01	-3.427673e-03	0.0	9.898502e-01	-4.178379e-03	0.0	5.986767e-01	4.124023e-02	0.0	7.185903e-01	-4.945542e-02	0.0	-1.604058e-03	5.532404e-04	0.0	9.864312e-01	-4.930539e-03	0.0	9.825279e-01	-5.673095e-03	0.0	-1.568451e-03	-7.443133e-03	0.0	6.450243e-01	-5.552715e-02	0.0	8.243760e-01	-3.895701e-02	0.0	7.995929e-01	-4.175049e-02	0.0	3.490605e-01	5.511565e-02	0.0	8.478503e-01	-3.596476e-02	0.0	2.477679e-01	5.713077e-02	0.0	8.699482e-01	-3.262725e-02	0.0	1.031653e-02	1.819021e-02	0.0	8.905436e-01	-2.877482e-02	0.0	7.704774e-02	-5.369381e-02	0.0	9.095329e-01	-2.431791e-02	0.0	-1.948751e-03	-3.665986e-03	0.0	9.423066e-01	-1.473184e-02	0.0	9.268101e-01	-1.944513e-02	0.0	1.769010e-02	-3.166543e-02	0.0	4.259428e-01	-6.924580e-02	0.0	8.590813e-01	-3.434768e-02	0.0	9.560292e-01	-1.088871e-02	0.0	9.781406e-01	-6.444646e-03	0.0	9.679857e-01	-8.230709e-03	0.0	1.584481e-01	-6.542960e-02	0.0	9.002481e-01	-2.661908e-02	0.0	7.602469e-01	-4.568932e-02	0.0	9.971329e-01	-1.998870e-03	0.0	5.990500e-01	-5.903671e-02	0.0	4.416364e-01	-6.858933e-02	0.0	5.364216e-01	-6.337844e-02	0.0	4.731859e-01	-6.707742e-02	0.0	5.048176e-01	-6.532856e-02	0.0	4.889909e-01	-6.622982e-02	0.0	1.250899e-01	-6.177197e-02	0.0	2.764350e-02	-3.751096e-02	0.0	3.947845e-01	-7.033910e-02	0.0	4.611893e-02	-4.521661e-02	0.0	4.103187e-01	-6.983151e-02	0.0	3.189482e-01	-7.163486e-02	0.0	3.488418e-01	-7.137919e-02	0.0	3.334008e-02	-4.020475e-02	0.0	2.897448e-01	-7.153142e-02	0.0	9.347826e-01	-1.702002e-02	0.0	1.469764e-01	-6.430173e-02	0.0	1.948559e-01	-6.824283e-02	0.0	8.584920e-02	-5.552391e-02	0.0	1.046886e-01	-5.886180e-02	0.0	5.678760e-01	-6.127551e-02	0.0	1.702616e-01	-6.646434e-02	0.0	6.145000e-01	-5.788075e-02	0.0	8.804442e-01	-3.077600e-02	0.0	2.243733e-02	-3.466429e-02	0.0	9.952042e-01	-2.706768e-03	0.0	6.428373e-03	-2.191370e-02	0.0	1.834280e-02	2.271737e-02	0.0	9.183897e-01	-2.190599e-02	0.0	9.49392
[...]
POINT_DATA 5233

SCALARS Conservative_1 float 1
LOOKUP_TABLE default
1.171488e+00	1.144786e+00	1.125896e+00	1.109021e+00	1.094887e+00	1.086189e+00	1.085844e+00	1.094780e+00	1.110670e+00	1.128973e+00	1.144317e+00	1.152602e+00	1.151698e+00	1.141028e+00	1.121012e+00	1.093019e+00	1.059268e+00	1.022393e+00	9.855954e-01	9.533944e-01	9.298594e-01	9.165733e-01	9.122930e-01	9.141294e-01	9.190881e-01	9.249254e-01	9.303635e-01	9.348783e-01	9.383927e-01	9.410867e-01	9.431683e-01	9.448064e-01	9.460986e-01	9.470459e-01	9.476403e-01	9.478146e-01	9.475211e-01	9.467132e-01	9.453753e-01	9.435143e-01	9.411658e-01	9.383587e-01	9.351496e-01	9.315879e-01	9.277424e-01	9.236568e-01	9.193501e-01	9.148519e-01	9.101375e-01	9.052580e-01	9.002809e-01	8.951572e-01	8.896852e-01	8.837715e-01	8.780267e-01	8.738860e-01	8.721788e-01	8.711183e-01	8.654710e-01	8.497045e-01	8.250587e-01	8.027799e-01	7.913431e-01	7.890417e-01	7.907444e-01	7.930751e-01	7.949974e-01	7.965001e-01	7.978050e-01	7.990259e-01	8.003479e-01	8.019699e-01	8.039535e-01	8.060695e-01	8.081657e-01	8.103618e-01	8.130871e-01	8.166993e-01	8.212307e-01	8.267571e-01	8.335059e-01	8.417120e-01	8.517638e-01	8.639982e-01	8.788988e-01	8.970788e-01	9.190321e-01	9.453510e-01	9.767886e-01	1.013685e+00	1.056244e+00	1.104099e+00	1.155618e+00	1.208763e+00	1.260263e+00	1.305074e+00	1.335814e+00	1.350785e+00	1.338649e+00	1.308215e+00	1.285606e+00	1.229714e+00	1.121100e+00	1.034495e+00	9.668536e-01	9.176930e-01	8.849752e-01	8.640499e-01	8.499899e-01	8.400732e-01	8.326450e-01	8.265243e-01	8.210994e-01	8.157543e-01	8.102261e-01	8.044883e-01	7.983535e-01	7.916216e-01	7.842353e-01	7.762302e-01	7.678348e-01	7.592860e-01	7.506097e-01	7.416075e-01	7.322006e-01	7.225962e-01	7.131962e-01	7.040401e-01	6.950066e-01	6.859803e-01	6.771780e-01	6.688605e-01	6.612743e-01	6.544314e-01	6.483567e-01	6.429604e-01	6.382772e-01	6.342043e-01	6.307384e-01	6.283692e-01	6.280953e-01	6.284623e-01	6.262597e-01	6.308730e-01	7.289203e-01	9.253970e-01	1.004046e+00	1.000974e+00	9.940714e-01	9.968539e-01	9.998748e-01	1.001437e+00	1.002753e+00	1.003849e+00	1.004406e+00	1.004214e+00	1.003235e+00	1.001314e+00	9.984257e-01	9.944553e-01	9.894475e-01	9.833574e-01	9.763295e-01	9.684326e-01	9.599611e-01	9.511390e-01	9.424187e-01	9.341156e-01	9.267146e-01	9.205104e-01	9.157633e-01	9.125700e-01	9.108781e-01	9.107195e-01	9.121846e-01	9.158202e-01	9.226552e-01	9.341182e-01	9.515406e-01	9.755683e-01	1.005318e+00	1.038322e+00	1.071063e+00	1.100582e+00	1.124268e+00	1.140009e+00	1.146388e+00	1.142734e+00	1.129249e+00	1.107879e+00	1.083411e+00	1.062567e+00	1.051617e+00	1.053850e+00	1.067289e+00	1.086710e+00	1.107712e+00	1.129570e+00	1.152500e+00	1.146868e+00	9.994824e-01	9.998807e-01	9.999300e-01	9.998864e-01	9.998628e-01	9.998315e-01	9.997899e-01	9.997336e-01	9.996696e-01	9.996238e-01	9.996003e-01	9.996310e-01	9.997065e-01	9.998411e-01	9.999523e-01	1.000039e+00	1.000084e+00	1.000110e+00	1.000123e+00	1.000127e+00	1.000128e+00	1.000127e+00	1.000126e+00	1.000127e+00	1.000129e+00	1.000132e+00	1.000140e+00	1.000149e+00	1.000163e+00	1.000183e+00	1.000205e+00	1.000239e+00	1.000269e+00	1.000315e+00	1.000349e+00	1.000379e+00	1.000400e+00	1.000391e+00	1.000376e+00	1.000342e+00	1.000312e+00	1.000270e+00	1.000230e+00	1.000188e+00	1.000149e+00	1.000096e+00	1.000052e+00	1.000075e+00	9.996996e-01	9.992039e-01	8.773412e-01	9.449411e-01	8.332107e-01	9.797634e-01	8.759052e-01	1.150267e+00	1.135819e+00	9.455580e-01	9.476434e-01	1.227575e+00	9.476709e-01	1.002336e+00	1.097092e+00	1.092893e+00	1.001754e+00	9.484656e-01	1.309242e+00	1.095225e+00	1.103487e+00	1.340158e+00	9.428933e-01	9.361755e-01	9.419888e-01	6.321414e-01	9.280647e-01	6.664742e-01	9.228588e-01	9.274280e-01	9.358457e-01	8.530339e-01	9.807500e-01	1.345795e+00	1.099060e+00	1.043667e+00	1.068475e+00	8.831975e-01	9.243927e-01	1.131309e+00	1.115109e+00	1.134413e+00	8.122897e-01	9.544110e-01	9.467662e-01	1.119773e+00	9.342345e-01	8.891314e-01	9.185697e-01	8.998749e-01	9.094735e-01	9.047248e-01	8.208335e-01	9.928512e-01	8.758931e-01	9.123706e-01	8.782427e-01	8.149697e-01	8.635769e-01	9.617614e-01	7.936069e-01	1.073462e+00	8.149361e-01	8.057406e-01	8.439059e-01	8.300101e-01	9.268559e-01	8.097349e-01	9.375003e-01	9.258358e-01	1.028462e+00	1.106719e+00	1.205479e+00	8.801760e-01	1.011755e+00	1.118724e+00	1.126541e+00	1.153408e+00	9.322860e-01	7.993679e-01	9.228122e-01	9.482415e-01	9.439919e-01	8.248620e-01	8.027192e-01	9.306740e-01	9.465382e-01	8.933049e-01	1.250638e+00	1.112187e+00	8.741438e-01	8.075344e-01	1.186472e+00	8.011662e-01	8.363280e-01	7.986474e-01	7.971167e-01	8.947648e-01	9.482804e-01	1.283836e+00	1.322442e+00	1.000419e+00	1.325367e+00	8.541429e-01	8.224427e-01	8.369829e-01	7.659431e-01	6.413970e-01	1.101300e+00	9.992509e-01	9.929540e-01	1.109131e+00	1.127933e+00	9.544154e-01	9.939160e-01	1.003572e+00	6.291703e-01	1.054904e+00	9.991341e-01	8.003838e-01	1.092992e+00	1.126867e+00	1.102500e+00	7.835772e-01	8.153522e-01	6.476188e-01	6.595256e-01	7.189282e-01	6.382230e-01	1.004164e+00	6.261101e-01	7.380133e-01	7.569567e-01	9.981027e-01	7.004461e-01	6.824526e-01	9.907925e-01	1.002257e+00	9.499481e-01	9.656279e-01	9.242553e-01	9.352310e-01	9.200966e-01	9.189848e-01	9.744268e-01	9.297377e-01	1.118220e+00	1.026804e+00	1.121622e+00	9.235622e-01	9.396914e-01	9.208609e-01	9.186982e-01	9.422737e-01	9.291078e-01	9.729940e-01	9.578260e-01	9.949032e-01	9.857063e-01	1.001522e+00	1.000344e+00	6.913210e-01	6.741605e-01	7.283878e-01	7.096874e-01	8.295713e-01	7.476646e-01	9.000075e-01	8.449847e-01	8.042061e-01	1.017535e+00	1.136422e+00	9.394238e-01	8.409148e-01	9.141175e-01	1.081588e+00	8.654254e-01	9.657425e-01	7.921890e-01	8.080668e-01	6.532179e-01	7.747857e-01	1.077334e+00	1.066749e+00	6.426109e-01	1.064666e+00	1.071408e+00	6.344126e-01	6.318278e-01	1.080838e+00	1.166627e+00	1.119728e+00	1.136818e+00	9.403928e-01	9.350491e-01	1.084720e+00	9.974906e-01	1.290968e+00	1.158518e+00	8.640463e-01	8.176669e-01	7.945664e-01	8.182323e-01	1.212597e+00	1.267054e+00	7.998025e-01	9.486002e-01	1.004834e+00	1.194187e+00	1.000201e+00	9.476543e-01	9.466319e-01	1.098333e+00	8.327027e-01	9.337316e-01	9.386112e-01	8.553537e-01	1.320831e+00	8.100683e-01	1.112389e+00	1.119812e+00	8.224155e-01	9.491158e-01	9.445008e-01	8.946090e-01	8.653169e-01	8.787496e-01	9.589516e-01	9.452155e-01	9.951503e-01	9.066988e-01	9.871785e-01	9.283976e-01	7.826688e-01	9.822611e-01	7.354026e-01	9.464709e-01	1.074200e+00	6.400611e-01	9.971045e-01	1.108191e+00	9.590326e-01	1.076072e+00	1.112863e+00	1.086548e+00	6.811237e-01	6.437447e-01	6.893850e-01	7.916793e-01	9.462992e-01	8.119674e-01	9.580797e-01	7.544926e-01	8.435929e-01	1.106186e+00	1.083772e+00	9.756144e-01	8.191337e-01	1.181179e+00	1.109055e+00	1.095209e+00	1.041389e+00	1.152930e+00	1.233933e+00	1.333239e+00	1.317267e+00	1.073387e+00	1.190120e+00	8.910693e-01	1.125622e+00	1.105051e+00	7.100561e-01	9.221832e-01	1.101351e+00	9.361166e-01	9.999346e-01	1.099464e+00	1.335243e+00	8.891488e-01	6.305399e-01	9.358894e-01	6.597630e-01	9.332264e-01	9.442684e-01	8.771162e-01	9.798381e-01	1.031212e+00	1.098007e+00	1.004396e+00	1.111670e+00	1.122490e+00	1.107565e+00	8.296341e-01	9.485404e-01	9.477527e-01	1.114122e+00	8.997160e-01	9.045301e-01	9.091747e-01	1.037406e+00	8.801842e-01	8.839274e-01	8.568445e-01	9.492306e-01	1.056588e+00	1.079326e+00	8.258825e-01	8.469196e-01	9.261649e-01	9.367620e-01	1.120332e+00	1.114677e+00	9.492520e-01	9.490682e-01	8.399371e-01	8.342224e-01	9.299443e-01	9.334852e-01	9.269370e-01	9.076090e-01	1.152919e+00	8.725081e-01	8.779403e-01	8.163422e-01	8.140016e-01	8.082538e-01	8.063685e-01	8.014172e-01	8.117427e-01	8.042426e-01	1.302090e+00	1.270584e+00	8.527676e-01	1.077984e+00	9.980219e-01	9.952529e-01	9.910503e-01	9.923325e-01	1.096914e+00	1.111991e+00	1.041462e+00	1.005074e+00	9.549172e-01	6.245764e-01	1.018294e+00	1.097986e+00	8.266004e-01	8.349666e-01	6.734526e-01	6.662580e-01	7.448962e-01	7.642298e-01	7.736026e-01	9.328448e-01	9.566033e-01	9.634822e-01	9.375151e-01	9.270659e-01	9.957362e-01	9.375910e-01	9.318121e-01	9.274536e-01	9.294566e-01	9.433078e-01	9.497143e-01	9.702637e-01	9.765150e-01	9.913970e-01	9.946934e-01	9.999501e-01	9.991001e-01	9.972565e-01	9.989295e-01	6.980061e-01	7.071515e-01	7.165082e-01	7.260301e-01	9.293160e-01	8.630072e-01	8.748845e-01	9.434348e-01	9.412030e-01	9.136775e-01	9.180186e-01	1.095530e+00	8.890562e-01	8.007023e-01	8.095967e-01	6.485183e-01	6.537746e-01	6.373526e-01	6.380977e-01	1.082787e+00	1.063492e+00	9.397067e-01	9.423038e-01	9.749105e-01	1.301530e+00	8.017468e-01	1.316290e+00	8.831581e-01	8.067700e-01	9.483873e-01	9.219979e-01	1.023139e+00	1.080108e+00	1.079681e+00	1.101180e+00	1.104734e+00	1.084891e+00	1.123203e+00	1.143567e+00	1.118421e+00	1.169796e+00	1.078511e+00	1.288807e+00	8.669937e-01	1.044710e+00	1.100711e+00	9.980009e-01	1.138939e+00	1.219527e+00	9.497911e-01	1.279681e+00	9.502629e-01	1.112884e+00	9.452627e-01	1.184715e+00	8.489922e-01	9.422990e-01	9.489810e-01	1.104445e+00	1.148955e+00	1.088652e+00	9.962939e-01	1.092671e+00	9.878173e-01	1.092854e+00	9.961942e-01	6.736038e-01	6.501197e-01	7.529652e-01	8.377929e-01	1.134875e+00	1.297574e+00	1.198575e+00	9.524686e-01	1.249911e+00	1.109990e+00	8.776768e-01	1.315656e+00	8.298625e-01	8.998074e-01	1.045846e+00	1.016387e+00	9.369526e-01	9.411365e-01	9.838329e-01	1.082910e+00	1.099028e+00	9.777398e-01	9.638265e-01	6.548806e-01	6.666918e-01	6.970700e-01	8.005985e-01	9.462241e-01	9.477809e-01	8.184180e-01	9.815232e-01	7.622419e-01	1.094803e+00	1.101677e+00	1.057945e+00	1.152824e+00	1.251441e+00	1.319443e+00	1.015041e+00	1.158303e+00	1.147511e+00	1.111305e+00	1.100277e+00	9.980197e-01	8.947941e-01	6.401075e-01	9.428041e-01	9.419049e-01	9.521673e-01	9.640233e-01	9.046294e-01	8.901515e-01	9.807528e-01	1.001140e+00	1.095375e+00	1.104808e+00	1.102410e+00	9.499027e-01	9.492650e-01	1.110840e+00	9.045943e-01	9.092350e-01	8.856230e-01	8.897586e-01	9.874568e-01	1.064674e+00	1.081800e+00	8.387388e-01	8.341835e-01	9.258877e-01	9.295878e-01	1.109575e+00	1.106069e+00	9.504269e-01	9.502972e-01	8.579313e-01	8.500560e-01	8.436710e-01	9.330833e-01	9.363443e-01	9.630728e-01	9.410536e-01	9.215105e-01	8.688545e-01	8.790989e-01	8.820147e-01	8.263435e-01	8.234201e-01	8.208327e-01	8.162092e-01	8.140995e-01	8.118641e-01	8.265110e-01	8.119911e-01	8.676586e-01	9.935669e-01	9.904048e-01	1.099466e+00	1.001350e+00	1.002338e+00	8.339626e-01	6.224138e-01	1.032242e+00	8.472783e-01	8.571473e-01	6.808959e-01	6.888715e-01	7.717672e-01	7.818247e-01	7.914992e-01	9.621583e-01	1.012985e+00	9.943418e-01	9.530166e-01	9.451795e-01	9.400867e-01	9.356387e-01	9.360766e-01	9.379053e-01	9.453899e-01	9.505331e-01	9.561954e-01	9.680306e-01	9.738010e-01	9.790026e-01	9.913406e-01	9.976488e-01	9.969248e-01	9.939073e-01	9.960169e-01	9.971703e-01	7.057385e-01	7.145650e-01	7.240136e-01	7.336855e-01	7.435352e-01	8.794256e-01	8.932238e-01	9.472740e-01	9.458716e-01	9.442928e-01	9.136594e-01	9.179202e-01	9.094943e-01	9.287632e-01	8.097475e-01	8.191430e-01	8.284867e-01	6.605906e-01	6.384988e-01	6.434228e-01	6.471588e-01	1.082197e+00	1.068044e+00	1.051043e+00	9.393094e-01	9.419692e-01	9.442655e-01	8.096474e-01	8.073847e-01	1.295163e+00	8.789485e-01	1.097217e+00	1.084423e+00	9.256639e-01	1.269742e+00	1.126783e+00	1.036604e+00	1.053858e+00	1.023870e+00	1.085190e+00	9.927948e-01	1.275578e+00	1.000604e+00	1.204103e+00	1.090399e+00	1.090315e+00	1.186203e+00	9.880951e-01	1.148423e+00	1.147326e+00	1.161450e+00	9.505940e-01	8.385201e-01	1.081889e+00	8.884159e-01	8.902288e-01	9.003705e-01	8.172243e-01	1.082376e+00	9.952991e-01	1.086304e+00	1.079195e+00	9.490344e-01	7.718025e-01	6.905083e-01	1.100416e+00	8.593316e-01	9.542872e-01	1.111495e+00	1.082413e+00	1.113337e+00	1.102613e+00	1.111728e+00	9.504314e-01	1.232531e+00	9.513761e-01	9.516506e-01	1.143229e+00	1.102929e+00	1.174407e+00	9.440337e-01	9.945673e-01	6.692180e-01	1.230019e+00	1.032748e+00	9.845142e-01	9.816105e-01	6.641306e-01	6.759675e-01	6.826859e-01	9.479581e-01	9.495060e-01	1.087509e+00	1.068527e+00	1.108252e+00	1.257889e+00	1.302396e+00	1.052077e+00	1.101468e+00	1.099892e+00	9.956657e-01	9.494725e-01	9.506702e-01	9.605126e-01	9.706004e-01	9.178844e-01	9.031559e-01	9.841435e-01	1.000639e+00	1.018631e+00	1.091161e+00	1.097839e+00	9.515835e-01	9.516592e-01	1.107373e+00	9.050628e-01	9.097088e-01	8.913476e-01	8.956303e-01	1.069022e+00	1.081408e+00	8.487950e-01	8.429457e-01	9.295643e-01	1.102011e+00	1.100730e+00	9.520766e-01	9.520917e-01	8.690458e-01	8.608111e-01	8.544829e-01	9.328431e-01	9.362615e-01	9.991138e-01	9.757457e-01	9.538059e-01	9.344541e-01	8.631375e-01	8.775386e-01	8.840001e-01	8.864639e-01	8.349589e-01	8.317165e-01	8.286803e-01	8.258662e-01	8.233319e-01	8.431170e-01	8.260423e-01	8.209907e-01	9.889773e-01	1.090286e+00	1.091540e+00	9.903972e-01	1.003466e+00	9.486217e-01	7.103022e-01	6.337270e-01	8.705848e-01	8.827486e-01	6.982311e-01	7.069171e-01	7.810010e-01	7.905654e-01	8.007905e-01	8.106119e-01	1.026551e+00	1.010724e+00	9.953457e-01	9.696636e-01	9.604557e-01	9.533982e-01	9.487430e-01	9.440221e-01	9.445448e-01	9.450828e-01	9.519623e-01	9.571336e-01	9.614196e-01	9.668367e-01	9.715796e-01	9.764074e-01	9.808119e-01	9.943794e-01	9.954638e-01	9.904512e-01	9.929641e-01	9.939842e-01	9.955299e-01	7.152140e-01	7.241927e-01	7.328245e-01	7.423666e-01	7.519703e-01	7.619354e-01	8.956226e-01	9.104860e-01	9.505799e-01	9.496828e-01	9.491612e-01	9.142080e-01	9.177159e-01	9.220077e-01	9.283552e-01	9.488419e-01	9.724037e-01	8.198202e-01	8.291533e-01	8.391647e-01	8.491733e-01	6.340744e-01	6.474530e-01	6.555798e-01	6.586551e-01	1.042224e+00	1.069085e+00	1.056722e+00	9.390617e-01	9.418961e-01	9.441464e-01	9.463517e-01	8.186866e-01	8.165103e-01	8.151838e-01	1.137863e+00	1.094459e+00	1.094813e+00	1.139941e+00	1.165210e+00	9.533669e-01	8.913330e-01	1.190916e+00	1.083131e+00	1.237959e+00	1.056888e+00	8.485615e-01	7.923367e-01	1.045355e+00	1.144028e+00	1.244113e+00	1.297810e+00	1.299151e+00	1.287901e+00	1.254906e+00	1.110188e+00	6.801641e-01	1.096290e+00	1.100748e+00	1.058622e+00	9.543715e-01	8.945683e-01	1.088151e+00	1.036616e+00	1.068602e+00	9.917296e-01	9.899549e-01	9.860284e-01	9.567879e-01	9.921010e-01	9.274266e-01	6.725696e-01	1.084760e+00	9.031095e-01	1.128564e+00	1.082449e+00	1.298397e+00	1.153864e+00	1.142921e+00	1.045997e+00	1.032512e+00	1.272166e+00	1.015998e+00	1.215474e+00	1.080554e+00	1.176057e+00	1.141766e+00	1.147947e+00	1.110862e+00	8.394221e-01	8.300007e-01	1.082818e+00	9.926027e-01	1.075746e+00	1.098554e+00	9.517825e-01	1.211545e+00	6.848415e-01	6.939039e-01	6.995124e-01	9.491325e-01	1.076502e+00	1.109895e+00	1.281587e+00	1.084494e+00	9.585443e-01	9.607782e-01	9.687142e-01	9.757979e-01	9.161914e-01	9.317716e-01	9.888818e-01	1.001129e+00	1.016782e+00	1.032726e+00	1.086960e+00	1.091879e+00	9.541754e-01	1.103961e+00	9.051042e-01	9.099503e-01	8.965185e-01	9.009991e-01	1.071171e+00	1.079838e+00	8.585482e-01	8.511124e-01	1.096951e+00	1.097459e+00	9.541971e-01	8.806647e-01	8.708106e-01	8.665899e-01	9.344641e-01	1.009595e+00	9.871700e-01	9.660780e-01	9.484591e-01	8.563405e-01	8.727869e-01	8.834900e-01	8.891920e-01	8.923619e-01	8.430375e-01	8.408220e-01	8.358561e-01	8.341021e-01	8.299896e-01	1.084026e+00	1.084368e+00	1.083388e+00	9.953308e-01	1.000946e+00	9.846616e-01	8.160830e-01	6.660726e-01	8.844927e-01	8.978574e-01	7.097909e-01	7.161868e-01	7.989257e-01	8.104178e-01	8.213149e-01	1.023431e+00	1.009666e+00	9.976313e-01	9.847398e-01	9.758883e-01	9.659730e-01	9.607730e-01	9.534925e-01	9.517123e-01	9.519977e-01	9.640873e-01	9.722998e-01	9.799301e-01	9.901164e-01	9.924274e-01	7.270827e-01	7.336100e-01	7.445952e-01	7.511244e-01	7.624286e-01	7.721583e-01	7.821956e-01	9.121759e-01	9.275145e-01	9.549059e-01	9.542406e-01	9.563194e-01	9.150801e-01	9.202903e-01	9.455726e-01	9.669495e-01	9.899493e-01	8.312474e-01	8.407918e-01	8.509328e-01	8.624233e-01	8.733899e-01	6.431994e-01	6.438570e-01	6.581325e-01	6.688825e-01	1.059952e+00	1.048038e+00	9.404729e-01	9.453542e-01	8.287246e-01	8.251538e-01	8.250337e-01	8.237144e-01	1.133087e+00	1.118399e+00	1.178447e+00	1.262545e+00	1.153000e+00	1.091879e+00	1.083499e+00	1.195143e+00	1.075754e+00	1.112968e+00	1.095504e+00	1.261689e+00	1.061173e+00	1.155832e+00	6.864564e-01	1.140377e+00	1.081704e+00	1.166068e+00	1.132313e+00	1.089902e+00	9.260664e-01	1.081714e+00	8.463911e-01	1.061872e+00	1.046195e+00	9.443589e-01	9.037514e-01	8.547993e-01	1.234944e+00	9.008124e-01	9.306880e-01	9.172843e-01	8.153720e-01	1.080009e+00	1.036605e+00	1.223003e+00	1.054402e+00	1.087181e+00	1.133954e+00	1.080581e+00	1.296839e+00	1.250169e+00	1.097791e+00	9.558323e-01	9.897808e-01	1.006760e+00	1.086335e+00	1.141011e+00	1.098010e+00	1.282059e+00	1.147427e+00	1.039933e+00	1.219044e+00	1.199706e+00	9.887766e-01	1.084965e+00	1.072517e+00	1.066415e+00	9.854212e-01	6.998899e-01	7.152745e-01	9.542564e-01	1.110040e+00	1.138640e+00	1.109554e+00	9.711079e-01	9.863739e-01	9.447332e-01	1.008421e+00	1.029790e+00	1.083233e+00	1.100852e+00	9.072864e-01	1.071524e+00	1.077808e+00	8.644373e-01	1.093560e+00	9.567284e-01	9.575946e-01	8.878972e-01	8.769580e-01	9.327235e-01	1.018824e+00	9.966784e-01	9.765313e-01	9.637124e-01	8.722878e-01	8.918061e-01	8.985246e-01	8.463820e-01	8.394710e-01	1.079368e+00	1.078138e+00	9.296101e-01	6.873716e-01	9.126110e-01	7.324115e-01	8.319326e-01	9.583036e-01	1.014969e+00	9.932996e-01	9.758406e-01	9.660254e-01	9.604826e-01	9.592502e-01	9.635533e-01	9.696251e-01	9.760522e-01	9.817291e-01	9.858982e-01	9.884588e-01	9.896849e-01	7.502061e-01	7.676652e-01	7.838222e-01	7.911649e-01	8.031902e-01	9.286068e-01	9.444233e-01	9.589195e-01	9.604664e-01	9.649616e-01	9.147803e-01	9.203559e-01	9.617898e-01	9.825411e-01	1.005099e+00	1.028552e+00	8.436388e-01	8.534633e-01	8.636042e-01	8.754495e-01	8.892541e-01	8.974700e-01	6.583048e-01	6.723613e-01	1.061417e+00	1.052441e+00	9.390851e-01	9.485999e-01	9.518926e-01	8.345284e-01	8.342922e-01	1.089628e+00	1.135363e+00	1.129907e+00	1.103359e+00	9.970689e-01	1.084082e+00	1.136911e+00	1.109546e+00	1.185339e+00	1.127347e+00	1.118053e+00	1.104015e+00	1.109107e+00	1.204084e+00	1.241783e+00	1.074454e+00	9.587654e-01	6.947357e-01	1.094858e+00	1.023817e+00	1.085314e+00	9.198892e-01	1.085156e+00	1.167051e+00	9.035808e-01	1.063981e+00	9.479738e-01	9.314535e-01	1.086574e+00	1.089144e+00	1.064856e+00	1.046952e+00	1.134527e+00	1.079357e+00	1.081275e+00	1.069501e+00	7.237905e-01	9.866233e-01	9.547400e-01	9.561143e-01	1.115264e+00	1.121541e+00	1.278963e+00	1.083666e+00	1.072150e+00	1.147445e+00	1.091555e+00	1.180762e+00	1.147180e+00	9.255278e-01	1.229754e+00	9.459014e-01	9.293212e-01	1.077785e+00	1.242343e+00	1.080230e+00	1.094122e+00	9.570324e-01	1.261342e+00	1.147447e+00	9.741191e-01	1.216464e+00	1.201864e+00	9.824064e-01	1.106769e+00	1.064802e+00	9.832198e-01	7.084590e-01	9.865769e-01	1.133144e+00	1.156634e+00	9.868462e-01	1.004199e+00	1.039825e+00	1.053169e+00	1.097505e+00	9.072237e-01	1.070544e+00	1.075730e+00	8.989547e-01	9.650537e-01	9.694864e-01	9.602942e-01	9.138128e-01	8.989148e-01	8.855523e-01	1.025620e+00	8.638371e-01	8.855516e-01	8.733135e-01	8.625674e-01	9.517429e-01	1.076199e+00	9.981486e-01	9.857353e-01	8.417563e-01	1.028116e+00	1.009294e+00	9.665436e-01	9.919463e-01	9.792912e-01	9.714370e-01	9.644662e-01	9.654726e-01	9.689539e-01	9.736704e-01	9.784681e-01	9.824181e-01	9.850447e-01	7.403198e-01	7.581791e-01	7.762188e-01	7.933784e-01	8.080157e-01	8.259937e-01	9.434311e-01	9.606543e-01	9.623125e-01	9.760492e-01	9.134660e-01	9.199116e-01	9.771114e-01	9.960887e-01	1.017552e+00	1.038969e+00	1.061487e+00	8.566990e-01	8.683077e-01	8.777699e-01	8.886794e-01	9.025723e-01	8.011942e-01	6.734552e-01	6.717469e-01	1.056887e+00	1.044522e+00	9.376917e-01	9.433416e-01	8.535462e-01	8.467479e-01	8.433712e-01	8.475248e-01	1.117171e+00	1.121592e+00	1.117203e+00	1.091915e+00	1.167585e+00	1.106362e+00	1.127405e+00	1.064090e+00	1.145445e+00	1.100780e+00	1.099175e+00	1.077741e+00	1.129745e+00	1.069441e+00	7.493598e-01	1.111530e+00	1.114528e+00	1.121620e+00	1.131922e+00	1.087437e+00	8.950025e-01	1.002976e+00	1.034222e+00	9.628917e-01	1.107110e+00	1.100293e+00	1.097388e+00	1.142484e+00	1.171920e+00	9.825448e-01	9.