# vtk DataFile Version 3.0
vtk output
ASCII
DATASET UNSTRUCTURED_GRID
POINTS 200 float
9.997500e-01	-3.632490e-05	0.0	9.990000e-01	-1.449975e-04	0.0	9.977600e-01	-3.223144e-04	0.0	9.960200e-01	-5.620157e-04	0.0	9.937800e-01	-8.469570e-04	0.0	9.910500e-01	-1.148183e-03	0.0	9.878400e-01	-1.431975e-03	0.0	9.841300e-01	-1.675071e-03	0.0	9.799500e-01	-1.877648e-03	0.0	9.752800e-01	-2.086486e-03	0.0	9.701500e-01	-2.391895e-03	0.0	9.645400e-01	-2.915426e-03	0.0	9.584700e-01	-3.770048e-03	0.0	9.519400e-01	-5.026340e-03	0.0	9.449600e-01	-6.684616e-03	0.0	9.375400e-01	-8.674510e-03	0.0	9.296900e-01	-1.087625e-02	0.0	9.214000e-01	-1.315860e-02	0.0	9.127000e-01	-1.539255e-02	0.0	9.035800e-01	-1.749308e-02	0.0	8.940600e-01	-1.940803e-02	0.0	8.841500e-01	-2.112484e-02	0.0	8.738500e-01	-2.265932e-02	0.0	8.631800e-01	-2.403955e-02	0.0	8.521600e-01	-2.529968e-02	0.0	8.407700e-01	-2.647627e-02	0.0	8.290500e-01	-2.759348e-02	0.0	8.170100e-01	-2.867175e-02	0.0	8.046400e-01	-2.972647e-02	0.0	7.919700e-01	-3.076452e-02	0.0	7.790100e-01	-3.179137e-02	0.0	7.657800e-01	-3.281010e-02	0.0	7.522800e-01	-3.382484e-02	0.0	7.385200e-01	-3.483893e-02	0.0	7.245300e-01	-3.585438e-02	0.0	7.103200e-01	-3.687451e-02	0.0	6.958900e-01	-3.790283e-02	0.0	6.812700e-01	-3.893977e-02	0.0	6.664700e-01	-3.998607e-02	0.0	6.515000e-01	-4.104118e-02	0.0	6.363800e-01	-4.210266e-02	0.0	6.211300e-01	-4.316705e-02	0.0	6.057600e-01	-4.423076e-02	0.0	5.902800e-01	-4.528970e-02	0.0	5.747100e-01	-4.633875e-02	0.0	5.590600e-01	-4.737337e-02	0.0	5.433600e-01	-4.838771e-02	0.0	5.276100e-01	-4.937795e-02	0.0	5.118400e-01	-5.033849e-02	0.0	4.960500e-01	-5.126566e-02	0.0	4.802700e-01	-5.215408e-02	0.0	4.645100e-01	-5.299962e-02	0.0	4.487800e-01	-5.379815e-02	0.0	4.331100e-01	-5.454463e-02	0.0	4.175000e-01	-5.523559e-02	0.0	4.019700e-01	-5.586672e-02	0.0	3.865400e-01	-5.643399e-02	0.0	3.712300e-01	-5.693372e-02	0.0	3.560400e-01	-5.736318e-02	0.0	3.409900e-01	-5.771933e-02	0.0	3.261100e-01	-5.799948e-02	0.0	3.114000e-01	-5.820203e-02	0.0	2.968700e-01	-5.832547e-02	0.0	2.825500e-01	-5.836861e-02	0.0	2.684500e-01	-5.833091e-02	0.0	2.545700e-01	-5.821195e-02	0.0	2.409400e-01	-5.801181e-02	0.0	2.275700e-01	-5.773069e-02	0.0	2.144700e-01	-5.736884e-02	0.0	2.016600e-01	-5.692686e-02	0.0	1.891400e-01	-5.640463e-02	0.0	1.769300e-01	-5.580257e-02	0.0	1.650400e-01	-5.512056e-02	0.0	1.534900e-01	-5.435881e-02	0.0	1.422900e-01	-5.351671e-02	0.0	1.314400e-01	-5.259230e-02	0.0	1.209500e-01	-5.158369e-02	0.0	1.108500e-01	-5.049071e-02	0.0	1.011300e-01	-4.930852e-02	0.0	9.181000e-02	-4.803495e-02	0.0	8.290000e-02	-4.666628e-02	0.0	7.440000e-02	-4.519656e-02	0.0	6.633000e-02	-4.362279e-02	0.0	5.869000e-02	-4.193803e-02	0.0	5.149000e-02	-4.013699e-02	0.0	4.474000e-02	-3.821462e-02	0.0	3.844000e-02	-3.616318e-02	0.0	3.260000e-02	-3.397815e-02	0.0	2.723000e-02	-3.165668e-02	0.0	2.232000e-02	-2.918768e-02	0.0	1.790000e-02	-2.658205e-02	0.0	1.395000e-02	-2.382576e-02	0.0	1.049000e-02	-2.093221e-02	0.0	7.520000e-03	-1.790714e-02	0.0	5.040000e-03	-1.476036e-02	0.0	3.050000e-03	-1.150635e-02	0.0	1.560000e-03	-8.190277e-03	0.0	5.600000e-04	-4.829579e-03	0.0	6.000000e-05	-1.516062e-03	0.0	0.000000e+00	0.000000e+00	0.0	6.000000e-05	1.290184e-03	0.0	5.600000e-04	3.735174e-03	0.0	1.560000e-03	5.995414e-03	0.0	3.050000e-03	8.118392e-03	0.0	5.040000e-03	1.015132e-02	0.0	7.520000e-03	1.210396e-02	0.0	1.049000e-02	1.399405e-02	0.0	1.395000e-02	1.583436e-02	0.0	1.790000e-02	1.763438e-02	0.0	2.232000e-02	1.939355e-02	0.0	2.723000e-02	2.112574e-02	0.0	3.260000e-02	2.282436e-02	0.0	3.844000e-02	2.449548e-02	0.0	4.474000e-02	2.613706e-02	0.0	5.149000e-02	2.774622e-02	0.0	5.869000e-02	2.932134e-02	0.0	6.633000e-02	3.085740e-02	0.0	7.440000e-02	3.234870e-02	0.0	8.290000e-02	3.379061e-02	0.0	9.181000e-02	3.517446e-02	0.0	1.011300e-01	3.649452e-02	0.0	1.108500e-01	3.774306e-02	0.0	1.209500e-01	3.891122e-02	0.0	1.314400e-01	3.999359e-02	0.0	1.422900e-01	4.098061e-02	0.0	1.534900e-01	4.186551e-02	0.0	1.650400e-01	4.264266e-02	0.0	1.769300e-01	4.330610e-02	0.0	1.891400e-01	4.385030e-02	0.0	2.016600e-01	4.427139e-02	0.0	2.144700e-01	4.456634e-02	0.0	2.275700e-01	4.473380e-02	0.0	2.409400e-01	4.477327e-02	0.0	2.545700e-01	4.468574e-02	0.0	2.684500e-01	4.447348e-02	0.0	2.825500e-01	4.414060e-02	0.0	2.968700e-01	4.369199e-02	0.0	3.114000e-01	4.313387e-02	0.0	3.261100e-01	4.247455e-02	0.0	3.409900e-01	4.172281e-02	0.0	3.560400e-01	4.088776e-02	0.0	3.712300e-01	3.998106e-02	0.0	3.865400e-01	3.901476e-02	0.0	4.019700e-01	3.800028e-02	0.0	4.175000e-01	3.695087e-02	0.0	4.331100e-01	3.588021e-02	0.0	4.487800e-01	3.480229e-02	0.0	4.645100e-01	3.372985e-02	0.0	4.802700e-01	3.267767e-02	0.0	4.960500e-01	3.165893e-02	0.0	5.118400e-01	3.068639e-02	0.0	5.276100e-01	2.977334e-02	0.0	5.433600e-01	2.893022e-02	0.0	5.590600e-01	2.816777e-02	0.0	5.747100e-01	2.749336e-02	0.0	5.902800e-01	2.691349e-02	0.0	6.057600e-01	2.643098e-02	0.0	6.211300e-01	2.604580e-02	0.0	6.363800e-01	2.575404e-02	0.0	6.515000e-01	2.554806e-02	0.0	6.664700e-01	2.541637e-02	0.0	6.812700e-01	2.534357e-02	0.0	6.958900e-01	2.531073e-02	0.0	7.103200e-01	2.529627e-02	0.0	7.245300e-01	2.527690e-02	0.0	7.385200e-01	2.522890e-02	0.0	7.522800e-01	2.512943e-02	0.0	7.657800e-01	2.495814e-02	0.0	7.790100e-01	2.469816e-02	0.0	7.919700e-01	2.433634e-02	0.0	8.046400e-01	2.386408e-02	0.0	8.170100e-01	2.327587e-02	0.0	8.290500e-01	2.256915e-02	0.0	8.407700e-01	2.173871e-02	0.0	8.521600e-01	2.077718e-02	0.0	8.631800e-01	1.967559e-02	0.0	8.738500e-01	1.841434e-02	0.0	8.841500e-01	1.697477e-02	0.0	8.940600e-01	1.534224e-02	0.0	9.035800e-01	1.351220e-02	0.0	9.127000e-01	1.150697e-02	0.0	9.214000e-01	9.389024e-03	0.0	9.296900e-01	7.256709e-03	0.0	9.375400e-01	5.254578e-03	0.0	9.449600e-01	3.530100e-03	0.0	9.519400e-01	2.212640e-03	0.0	9.584700e-01	1.368450e-03	0.0	9.645400e-01	9.750077e-04	0.0	9.701500e-01	9.245352e-04	0.0	9.752800e-01	1.058739e-03	0.0	9.799500e-01	1.220333e-03	0.0	9.841300e-01	1.295811e-03	0.0	9.878400e-01	1.238913e-03	0.0	9.910500e-01	1.063362e-03	0.0	9.937800e-01	8.162972e-04	0.0	9.960200e-01	5.535359e-04	0.0	9.977600e-01	3.207447e-04	0.0	9.990000e-01	1.448544e-04	0.0	9.997500e-01	3.632263e-05	0.0	1.000000e+00	0.000000e+00	0.0	
CELLS 200	600
2	199	0	2	0	1	2	1	2	2	2	3	2	3	4	2	4	5	2	5	6	2	6	7	2	7	8	2	8	9	2	9	10	2	10	11	2	11	12	2	12	13	2	13	14	2	14	15	2	15	16	2	16	17	2	17	18	2	18	19	2	19	20	2	20	21	2	21	22	2	22	23	2	23	24	2	24	25	2	25	26	2	26	27	2	27	28	2	28	29	2	29	30	2	30	31	2	31	32	2	32	33	2	33	34	2	34	35	2	35	36	2	36	37	2	37	38	2	38	39	2	39	40	2	40	41	2	41	42	2	42	43	2	43	44	2	44	45	2	45	46	2	46	47	2	47	48	2	48	49	2	49	50	2	50	51	2	51	52	2	52	53	2	53	54	2	54	55	2	55	56	2	56	57	2	57	58	2	58	59	2	59	60	2	60	61	2	61	62	2	62	63	2	63	64	2	64	65	2	65	66	2	66	67	2	67	68	2	68	69	2	69	70	2	70	71	2	71	72	2	72	73	2	73	74	2	74	75	2	75	76	2	76	77	2	77	78	2	78	79	2	79	80	2	80	81	2	81	82	2	82	83	2	83	84	2	84	85	2	85	86	2	86	87	2	87	88	2	88	89	2	89	90	2	90	91	2	91	92	2	92	93	2	93	94	2	94	95	2	95	96	2	96	97	2	97	98	2	98	99	2	99	100	2	100	101	2	101	102	2	102	103	2	103	104	2	104	105	2	105	106	2	106	107	2	107	108	2	108	109	2	109	110	2	110	111	2	111	112	2	112	113	2	113	114	2	114	115	2	115	116	2	116	117	2	117	118	2	118	119	2	119	120	2	120	121	2	121	122	2	122	123	2	123	124	2	124	125	2	125	126	2	126	127	2	127	128	2	128	129	2	129	130	2	130	131	2	131	132	2	132	133	2	133	134	2	134	135	2	135	136	2	136	137	2	137	138	2	138	139	2	139	140	2	140	141	2	141	142	2	142	143	2	143	144	2	144	145	2	145	146	2	146	147	2	147	148	2	148	149	2	149	150	2	150	151	2	151	152	2	152	153	2	153	154	2	154	155	2	155	156	2	156	157	2	157	158	2	158	159	2	159	160	2	160	161	2	161	162	2	162	163	2	163	164	2	164	165	2	165	166	2	166	167	2	167	168	2	168	169	2	169	170	2	170	171	2	171	172	2	172	173	2	173	174	2	174	175	2	175	176	2	176	177	2	177	178	2	178	179	2	179	180	2	180	181	2	181	182	2	182	183	2	183	184	2	184	185	2	185	186	2	186	187	2	187	188	2	188	189	2	189	190	2	190	191	2	191	192	2	192	193	2	193	194	2	194	195	2	195	196	2	196	197	2	197	198	2	198	199	
CELL_TYPES 200
3	3	3	3	3	3	3	3	3	3	3	3	3	3	3	3	3	3	3	3	3	3	3	3	3	3	3	3	3	3	3	3	3	3	3	3	3	3	3	3	3	3	3	3	3	3	3	3	3	3	3	3	3	3	3	3	3	3	3	3	3	3	3	3	3	3	3	3	3	3	3	3	3	3	3	3	3	3	3	3	3	3	3	3	3	3	3	3	3	3	3	3	3	3	3	3	3	3	3	3	3	3	3	3	3	3	3	3	3	3	3	3	3	3	3	3	3	3	3	3	3	3	3	3	3	3	3	3	3	3	3	3	3	3	3	3	3	3	3	3	3	3	3	3	3	3	3	3	3	3	3	3	3	3	3	3	3	3	3	3	3	3	3	3	3	3	3	3	3	3	3	3	3	3	3	3	3	3	3	3	3	3	3	3	3	3	3	3	3	3	3	3	3	3	3	3	3	3	3	3	
POINT_DATA 200

SCALARS Conservative_1 float 1
LOOKUP_TABLE default
1.171488e+00	1.144786e+00	1.125896e+00	1.109021e+00	1.094887e+00	1.086189e+00	1.085844e+00	1.094780e+00	1.110670e+00	1.128973e+00	1.144317e+00	1.152602e+00	1.151698e+00	1.141028e+00	1.121012e+00	1.093019e+00	1.059268e+00	1.022393e+00	9.855954e-01	9.533944e-01	9.298594e-01	9.165733e-01	9.122930e-01	9.141294e-01	9.190881e-01	9.249254e-01	9.303635e-01	9.348783e-01	9.383927e-01	9.410867e-01	9.431683e-01	9.448064e-01	9.460986e-01	9.470459e-01	9.476403e-01	9.478146e-01	9.475211e-01	9.467132e-01	9.453753e-01	9.435143e-01	9.411658e-01	9.383587e-01	9.351496e-01	9.315879e-01	9.277424e-01	9.236568e-01	9.193501e-01	9.148519e-01	9.101375e-01	9.052580e-01	9.002809e-01	8.951572e-01	8.896852e-01	8.837715e-01	8.780267e-01	8.738860e-01	8.721788e-01	8.711183e-01	8.654710e-01	8.497045e-01	8.250587e-01	8.027799e-01	7.913431e-01	7.890417e-01	7.907444e-01	7.930751e-01	7.949974e-01	7.965001e-01	7.978050e-01	7.990259e-01	8.003479e-01	8.019699e-01	8.039535e-01	8.060695e-01	8.081657e-01	8.103618e-01	8.130871e-01	8.166993e-01	8.212307e-01	8.267571e-01	8.335059e-01	8.417120e-01	8.517638e-01	8.639982e-01	8.788988e-01	8.970788e-01	9.190321e-01	9.453510e-01	9.767886e-01	1.013685e+00	1.056244e+00	1.104099e+00	1.155618e+00	1.208763e+00	1.260263e+00	1.305074e+00	1.335814e+00	1.350785e+00	1.338649e+00	1.308215e+00	1.285606e+00	1.229714e+00	1.121100e+00	1.034495e+00	9.668536e-01	9.176930e-01	8.849752e-01	8.640499e-01	8.499899e-01	8.400732e-01	8.326450e-01	8.265243e-01	8.210994e-01	8.157543e-01	8.102261e-01	8.044883e-01	7.983535e-01	7.916216e-01	7.842353e-01	7.762302e-01	7.678348e-01	7.592860e-01	7.506097e-01	7.416075e-01	7.322006e-01	7.225962e-01	7.131962e-01	7.040401e-01	6.950066e-01	6.859803e-01	6.771780e-01	6.688605e-01	6.612743e-01	6.544314e-01	6.483567e-01	6.429604e-01	6.382772e-01	6.342043e-01	6.307384e-01	6.283692e-01	6.280953e-01	6.284623e-01	6.262597e-01	6.308730e-01	7.289203e-01	9.253970e-01	1.004046e+00	1.000974e+00	9.940714e-01	9.968539e-01	9.998748e-01	1.001437e+00	1.002753e+00	1.003849e+00	1.004406e+00	1.004214e+00	1.003235e+00	1.001314e+00	9.984257e-01	9.944553e-01	9.894475e-01	9.833574e-01	9.763295e-01	9.684326e-01	9.599611e-01	9.511390e-01	9.424187e-01	9.341156e-01	9.267146e-01	9.205104e-01	9.157633e-01	9.125700e-01	9.108781e-01	9.107195e-01	9.121846e-01	9.158202e-01	9.226552e-01	9.341182e-01	9.515406e-01	9.755683e-01	1.005318e+00	1.038322e+00	1.071063e+00	1.100582e+00	1.124268e+00	1.140009e+00	1.146388e+00	1.142734e+00	1.129249e+00	1.107879e+00	1.083411e+00	1.062567e+00	1.051617e+00	1.053850e+00	1.067289e+00	1.086710e+00	1.107712e+00	1.129570e+00	1.152500e+00	1.146868e+00	
SCALARS Conservative_2 float 1
LOOKUP_TABLE default
7.688604e-01	7.961434e-01	8.221038e-01	8.437142e-01	8.606057e-01	8.721582e-01	8.758772e-01	8.701645e-01	8.551216e-01	8.342589e-01	8.132320e-01	7.974720e-01	7.910352e-01	7.959483e-01	8.119423e-01	8.367413e-01	8.664324e-01	8.963652e-01	9.222572e-01	9.418629e-01	9.551787e-01	9.631075e-01	9.671090e-01	9.685493e-01	9.684936e-01	9.677307e-01	9.667537e-01	9.658452e-01	9.650565e-01	9.644394e-01	9.639449e-01	9.635530e-01	9.632565e-01	9.630097e-01	9.628777e-01	9.628432e-01	9.629627e-01	9.632436e-01	9.636817e-01	9.642989e-01	9.650478e-01	9.659389e-01	9.669158e-01	9.679727e-01	9.690622e-01	9.701770e-01	9.712875e-01	9.723758e-01	9.734328e-01	9.744530e-01	9.754169e-01	9.763647e-01	9.772883e-01	9.781483e-01	9.787825e-01	9.790593e-01	9.789900e-01	9.789816e-01	9.795550e-01	9.805880e-01	9.805864e-01	9.782750e-01	9.759740e-01	9.750351e-01	9.749960e-01	9.752296e-01	9.755268e-01	9.756945e-01	9.757761e-01	9.757440e-01	9.756607e-01	9.755222e-01	9.753545e-01	9.750828e-01	9.747046e-01	9.741171e-01	9.734059e-01	9.725597e-01	9.713235e-01	9.696201e-01	9.673657e-01	9.642221e-01	9.599152e-01	9.538546e-01	9.453105e-01	9.332610e-01	9.162224e-01	8.924172e-01	8.594045e-01	8.140981e-01	7.532725e-01	6.739751e-01	5.740136e-01	4.552446e-01	3.243160e-01	1.937080e-01	8.156116e-02	3.798605e-03	-2.070087e-02	5.180843e-03	7.023041e-02	1.976802e-01	3.886912e-01	5.605943e-01	6.874532e-01	7.737460e-01	8.307084e-01	8.685591e-01	8.940003e-01	9.117391e-01	9.244706e-01	9.337609e-01	9.408123e-01	9.462291e-01	9.503997e-01	9.536361e-01	9.560468e-01	9.577191e-01	9.587960e-01	9.592883e-01	9.592544e-01	9.587686e-01	9.577919e-01	9.561800e-01	9.540949e-01	9.515443e-01	9.487416e-01	9.455480e-01	9.420687e-01	9.381844e-01	9.341675e-01	9.300526e-01	9.261377e-01	9.223425e-01	9.188604e-01	9.155455e-01	9.126108e-01	9.099087e-01	9.076317e-01	9.059782e-01	9.055609e-01	9.057195e-01	9.052296e-01	8.973073e-01	9.199669e-01	9.000951e-01	8.946153e-01	8.981119e-01	8.986004e-01	8.963973e-01	8.942819e-01	8.927844e-01	8.916049e-01	8.906967e-01	8.903341e-01	8.904404e-01	8.912138e-01	8.925541e-01	8.946325e-01	8.972876e-01	9.006259e-01	9.044066e-01	9.086603e-01	9.130661e-01	9.175892e-01	9.218781e-01	9.258894e-01	9.292897e-01	9.321134e-01	9.342081e-01	9.355569e-01	9.362586e-01	9.363041e-01	9.357974e-01	9.344827e-01	9.320415e-01	9.277028e-01	9.203629e-01	9.084556e-01	8.906295e-01	8.660769e-01	8.354626e-01	8.016277e-01	7.694120e-01	7.437912e-01	7.288948e-01	7.271977e-01	7.391349e-01	7.625639e-01	7.926980e-01	8.223917e-01	8.433852e-01	8.504274e-01	8.437415e-01	8.261379e-01	8.017679e-01	7.727391e-01	7.389635e-01	6.974566e-01	6.710873e-01	
SCALARS Conservative_3 float 1
LOOKUP_TABLE default
1.047841e-01	1.120704e-01	1.138966e-01	1.105144e-01	1.014747e-01	8.604927e-02	6.684121e-02	4.925800e-02	3.977467e-02	4.368552e-02	6.267931e-02	9.399569e-02	1.323708e-01	1.714617e-01	2.053242e-01	2.291975e-01	2.402086e-01	2.380164e-01	2.243980e-01	2.032090e-01	1.789462e-01	1.553217e-01	1.346937e-01	1.180274e-01	1.053186e-01	9.598902e-02	8.924925e-02	8.432728e-02	8.061120e-02	7.766915e-02	7.527076e-02	7.328262e-02	7.166919e-02	7.040822e-02	6.947406e-02	6.883567e-02	6.842737e-02	6.817631e-02	6.799789e-02	6.780773e-02	6.753774e-02	6.712250e-02	6.653165e-02	6.572360e-02	6.469400e-02	6.342413e-02	6.193445e-02	6.020024e-02	5.825794e-02	5.607876e-02	5.363820e-02	5.094763e-02	4.807427e-02	4.508603e-02	4.193207e-02	3.833807e-02	3.400332e-02	2.893640e-02	2.385455e-02	1.981004e-02	1.685952e-02	1.259490e-02	6.800625e-03	7.079669e-04	-5.314981e-03	-1.127247e-02	-1.734294e-02	-2.361523e-02	-3.015115e-02	-3.697600e-02	-4.415977e-02	-5.178474e-02	-5.990495e-02	-6.856230e-02	-7.784403e-02	-8.792427e-02	-9.900818e-02	-1.112686e-01	-1.248709e-01	-1.401080e-01	-1.572742e-01	-1.766835e-01	-1.987318e-01	-2.237827e-01	-2.522243e-01	-2.843659e-01	-3.203430e-01	-3.599481e-01	-4.022933e-01	-4.454637e-01	-4.860351e-01	-5.179104e-01	-5.326824e-01	-5.195983e-01	-4.667531e-01	-3.655887e-01	-2.145693e-01	-1.962261e-02	1.966411e-01	3.544296e-01	4.871964e-01	6.423867e-01	7.103105e-01	6.883687e-01	6.242654e-01	5.506395e-01	4.831233e-01	4.261174e-01	3.790947e-01	3.400741e-01	3.075687e-01	2.799672e-01	2.561628e-01	2.352786e-01	2.166179e-01	1.996792e-01	1.840744e-01	1.694426e-01	1.555592e-01	1.422230e-01	1.293059e-01	1.167836e-01	1.046131e-01	9.268537e-02	8.096768e-02	6.940528e-02	5.816069e-02	4.720517e-02	3.663339e-02	2.635377e-02	1.645896e-02	6.957143e-03	-2.008853e-03	-1.046602e-02	-1.831177e-02	-2.561055e-02	-3.226678e-02	-3.832835e-02	-4.375975e-02	-4.874759e-02	-5.276488e-02	-5.616176e-02	-5.662798e-02	-5.878211e-02	-7.957866e-02	-5.188175e-02	-5.969385e-02	-5.962111e-02	-5.897288e-02	-5.648669e-02	-5.320965e-02	-4.959639e-02	-4.540809e-02	-4.071981e-02	-3.564699e-02	-3.035003e-02	-2.493502e-02	-1.960601e-02	-1.452241e-02	-9.934073e-03	-6.042992e-03	-3.110175e-03	-1.342701e-03	-9.545417e-04	-2.087547e-03	-4.828138e-03	-9.168103e-03	-1.501524e-02	-2.221059e-02	-3.052534e-02	-3.979098e-02	-4.986228e-02	-6.078777e-02	-7.278223e-02	-8.625297e-02	-1.017532e-01	-1.196986e-01	-1.400634e-01	-1.619618e-01	-1.831882e-01	-2.001652e-01	-2.085878e-01	-2.047785e-01	-1.872884e-01	-1.567764e-01	-1.164176e-01	-7.134426e-02	-2.812177e-02	5.827199e-03	2.376550e-02	2.172565e-02	1.720155e-03	-2.876211e-02	-6.017434e-02	-8.464161e-02	-9.888781e-02	-1.043758e-01	-1.021743e-01	-1.001855e-01	6.882173e-03	
SCALARS Conservative_4 float 1
LOOKUP_TABLE default
3.377059e+00	3.308994e+00	3.262461e+00	3.220742e+00	3.185594e+00	3.164101e+00	3.163628e+00	3.186433e+00	3.226379e+00	3.272046e+00	3.310059e+00	3.330287e+00	3.327610e+00	3.300731e+00	3.250670e+00	3.180717e+00	3.096191e+00	3.003360e+00	2.909989e+00	2.827710e+00	2.767318e+00	2.733093e+00	2.721991e+00	2.726647e+00	2.739370e+00	2.754382e+00	2.768382e+00	2.780016e+00	2.789064e+00	2.796001e+00	2.801357e+00	2.805572e+00	2.808902e+00	2.811333e+00	2.812863e+00	2.813305e+00	2.812547e+00	2.810465e+00	2.807014e+00	2.802222e+00	2.796166e+00	2.788929e+00	2.780647e+00	2.771448e+00	2.761508e+00	2.750939e+00	2.739787e+00	2.728118e+00	2.715877e+00	2.703193e+00	2.690242e+00	2.676919e+00	2.662671e+00	2.647245e+00	2.632216e+00	2.621319e+00	2.616738e+00	2.613886e+00	2.599128e+00	2.557918e+00	2.493228e+00	2.434193e+00	2.403571e+00	2.397242e+00	2.401664e+00	2.407832e+00	2.412974e+00	2.416994e+00	2.420486e+00	2.423739e+00	2.427261e+00	2.431572e+00	2.436850e+00	2.442475e+00	2.448056e+00	2.453884e+00	2.461125e+00	2.470731e+00	2.482725e+00	2.497321e+00	2.515136e+00	2.536742e+00	2.563162e+00	2.595214e+00	2.634106e+00	2.681363e+00	2.738134e+00	2.805843e+00	2.886256e+00	2.979985e+00	3.087328e+00	3.207066e+00	3.334682e+00	3.465144e+00	3.590595e+00	3.699083e+00	3.772676e+00	3.809302e+00	3.779212e+00	3.702932e+00	3.652372e+00	3.520307e+00	3.245077e+00	3.026140e+00	2.853963e+00	2.728316e+00	2.644728e+00	2.591392e+00	2.555475e+00	2.530055e+00	2.510943e+00	2.495069e+00	2.480935e+00	2.466939e+00	2.452393e+00	2.437249e+00	2.420996e+00	2.403099e+00	2.383431e+00	2.362071e+00	2.339624e+00	2.316724e+00	2.293416e+00	2.269126e+00	2.243709e+00	2.217697e+00	2.192206e+00	2.167278e+00	2.142635e+00	2.117928e+00	2.093814e+00	2.070963e+00	2.050110e+00	2.031242e+00	2.014488e+00	1.999552e+00	1.986599e+00	1.975299e+00	1.965715e+00	1.959162e+00	1.958392e+00	1.959467e+00	1.953724e+00	1.962183e+00	2.222684e+00	2.735127e+00	2.945813e+00	2.938395e+00	2.919848e+00	2.926762e+00	2.934339e+00	2.938131e+00	2.941336e+00	2.944014e+00	2.945375e+00	2.944832e+00	2.942337e+00	2.937443e+00	2.930133e+00	2.920061e+00	2.907382e+00	2.891921e+00	2.874084e+00	2.853984e+00	2.832412e+00	2.809884e+00	2.787606e+00	2.766333e+00	2.747368e+00	2.731450e+00	2.719261e+00	2.711082e+00	2.706769e+00	2.706448e+00	2.710308e+00	2.719757e+00	2.737382e+00	2.766780e+00	2.811209e+00	2.872195e+00	2.947302e+00	3.030114e+00	3.111726e+00	3.185061e+00	3.243883e+00	3.283130e+00	3.299374e+00	3.290934e+00	3.258079e+00	3.205344e+00	3.144487e+00	3.092098e+00	3.063944e+00	3.068878e+00	3.102093e+00	3.150340e+00	3.202189e+00	3.255798e+00	3.311618e+00	3.290302e+00	
SCALARS Pressure float 1
LOOKUP_TABLE default
1.248027e+00	1.210668e+00	1.182624e+00	1.157719e+00	1.137066e+00	1.124217e+00	1.123326e+00	1.135803e+00	1.158592e+00	1.185185e+00	1.207749e+00	1.220229e+00	1.219338e+00	1.204093e+00	1.175130e+00	1.134564e+00	1.085842e+00	1.033088e+00	9.811795e-01	9.363273e-01	9.038022e-01	8.855723e-01	8.797755e-01	8.823693e-01	8.892234e-01	8.972572e-01	9.047272e-01	9.109177e-01	9.157452e-01	9.194440e-01	9.223057e-01	9.245578e-01	9.263297e-01	9.276379e-01	9.284546e-01	9.287003e-01	9.282993e-01	9.271914e-01	9.253590e-01	9.228058e-01	9.195897e-01	9.157455e-01	9.113598e-01	9.064963e-01	9.012564e-01	8.956967e-01	8.898484e-01	8.837518e-01	8.773788e-01	8.707950e-01	8.640929e-01	8.571998e-01	8.498453e-01	8.419173e-01	8.342657e-01	8.288132e-01	8.266536e-01	8.253221e-01	8.177844e-01	7.967483e-01	7.641359e-01	7.352108e-01	7.206803e-01	7.179226e-01	7.202226e-01	7.232565e-01	7.257037e-01	7.276170e-01	7.292768e-01	7.308442e-01	7.325419e-01	7.346337e-01	7.371876e-01	7.399168e-01	7.426105e-01	7.454530e-01	7.489718e-01	7.536274e-01	7.595230e-01	7.667457e-01	7.755747e-01	7.863667e-01	7.996315e-01	8.158819e-01	8.358179e-01	8.603363e-01	8.902372e-01	9.264371e-01	9.701400e-01	1.022081e+00	1.082760e+00	1.151955e+00	1.227741e+00	1.307096e+00	1.384973e+00	1.453400e+00	1.501181e+00	1.523662e+00	1.505843e+00	1.461964e+00	1.423256e+00	1.334653e+00	1.181070e+00	1.058088e+00	9.632128e-01	8.947712e-01	8.491882e-01	8.199094e-01	8.003170e-01	7.865849e-01	7.763703e-01	7.680790e-01	7.607951e-01	7.536892e-01	7.464095e-01	7.389002e-01	7.309326e-01	7.222524e-01	7.127587e-01	7.025135e-01	6.918157e-01	6.809650e-01	6.700184e-01	6.587667e-01	6.470458e-01	6.351390e-01	6.235180e-01	6.122979e-01	6.012764e-01	5.903463e-01	5.797088e-01	5.697225e-01	5.606250e-01	5.524770e-01	5.452474e-01	5.388782e-01	5.333425e-01	5.285625e-01	5.244628e-01	5.216620e-01	5.213505e-01	5.217243e-01	5.187721e-01	5.285251e-01	6.551191e-01	9.183722e-01	1.018193e+00	1.013484e+00	1.004780e+00	1.008852e+00	1.013201e+00	1.015577e+00	1.017568e+00	1.019215e+00	1.020054e+00	1.019838e+00	1.018471e+00	1.015779e+00	1.011685e+00	1.006082e+00	9.989898e-01	9.904074e-01	9.804972e-01	9.694204e-01	9.575464e-01	9.452451e-01	9.330945e-01	9.215870e-01	9.113321e-01	9.027558e-01	8.962031e-01	8.917753e-01	8.894083e-01	8.891028e-01	8.910270e-01	8.959317e-01	9.052916e-01	9.211497e-01	9.455057e-01	9.793812e-01	1.021726e+00	1.069218e+00	1.116866e+00	1.160072e+00	1.194766e+00	1.217667e+00	1.226604e+00	1.220619e+00	1.200236e+00	1.168599e+00	1.132856e+00	1.102956e+00	1.087875e+00	1.091759e+00	1.111600e+00	1.140028e+00	1.171096e+00	1.203785e+00	1.238489e+00	1.237575e+00	
SCALARS Temperature float 1
LOOKUP_TABLE default
1.065334e+00	1.057549e+00	1.050384e+00	1.043911e+00	1.038523e+00	1.035010e+00	1.034519e+00	1.037472e+00	1.043147e+00	1.049790e+00	1.055432e+00	1.058674e+00	1.058731e+00	1.055270e+00	1.048275e+00	1.038010e+00	1.025086e+00	1.010460e+00	9.955196e-01	9.820986e-01	9.719773e-01	9.661773e-01	9.643562e-01	9.652565e-01	9.675062e-01	9.700860e-01	9.724448e-01	9.743704e-01	9.758656e-01	9.770025e-01	9.778804e-01	9.785685e-01	9.791049e-01	9.795068e-01	9.797542e-01	9.798333e-01	9.797137e-01	9.793794e-01	9.788271e-01	9.780517e-01	9.770752e-01	9.759014e-01	9.745604e-01	9.730658e-01	9.714511e-01	9.697289e-01	9.679102e-01	9.660052e-01	9.640069e-01	9.619302e-01	9.598037e-01	9.575969e-01	9.552203e-01	9.526414e-01	9.501599e-01	9.484226e-01	9.478028e-01	9.474284e-01	9.449009e-01	9.376769e-01	9.261594e-01	9.158311e-01	9.107052e-01	9.098665e-01	9.108159e-01	9.119647e-01	9.128379e-01	9.135177e-01	9.141042e-01	9.146689e-01	9.152794e-01	9.160365e-01	9.169531e-01	9.179317e-01	9.188840e-01	9.199015e-01	9.211458e-01	9.227722e-01	9.248595e-01	9.274135e-01	9.304969e-01	9.342468e-01	9.387950e-01	9.443098e-01	9.509830e-01	9.590421e-01	9.686683e-01	9.799927e-01	9.931934e-01	1.008282e+00	1.025104e+00	1.043344e+00	1.062410e+00	1.081350e+00	1.098955e+00	1.113654e+00	1.123795e+00	1.127983e+00	1.124898e+00	1.117526e+00	1.107070e+00	1.085336e+00	1.053492e+00	1.022806e+00	9.962344e-01	9.750223e-01	9.595616e-01	9.489144e-01	9.415606e-01	9.363290e-01	9.324145e-01	9.292879e-01	9.265567e-01	9.239169e-01	9.212361e-01	9.184723e-01	9.155500e-01	9.123707e-01	9.088582e-01	9.050324e-01	9.009954e-01	8.968492e-01	8.926321e-01	8.882956e-01	8.837002e-01	8.789680e-01	8.742587e-01	8.696918e-01	8.651376e-01	8.605879e-01	8.560656e-01	8.517807e-01	8.477950e-01	8.442092e-01	8.409683e-01	8.381203e-01	8.355970e-01	8.334263e-01	8.315060e-01	8.301839e-01	8.300499e-01	8.301601e-01	8.283657e-01	8.377679e-01	8.987527e-01	9.924089e-01	1.014090e+00	1.012497e+00	1.010772e+00	1.012036e+00	1.013328e+00	1.014120e+00	1.014774e+00	1.015308e+00	1.015579e+00	1.015558e+00	1.015186e+00	1.014446e+00	1.013280e+00	1.011691e+00	1.009644e+00	1.007169e+00	1.004269e+00	1.001020e+00	9.974846e-01	9.938033e-01	9.901062e-01	9.865878e-01	9.834010e-01	9.807121e-01	9.786405e-01	9.772131e-01	9.764296e-01	9.762642e-01	9.768056e-01	9.782835e-01	9.811808e-01	9.861169e-01	9.936577e-01	1.003908e+00	1.016321e+00	1.029755e+00	1.042764e+00	1.054053e+00	1.062705e+00	1.068120e+00	1.069973e+00	1.068157e+00	1.062862e+00	1.054808e+00	1.045639e+00	1.038010e+00	1.034478e+00	1.035972e+00	1.041518e+00	1.049064e+00	1.057221e+00	1.065702e+00	1.074612e+00	1.079092e+00	
SCALARS Pressure_Coefficient float 1
LOOKUP_TABLE default
5.536310e-01	4.702404e-01	4.076419e-01	3.520519e-01	3.059503e-01	2.772690e-01	2.752817e-01	3.031321e-01	3.540011e-01	4.133584e-01	4.637251e-01	4.915836e-01	4.895931e-01	4.555649e-01	3.909146e-01	3.003668e-01	1.916109e-01	7.385603e-02	-4.201011e-02	-1.421266e-01	-2.147272e-01	-2.554190e-01	-2.683583e-01	-2.625684e-01	-2.472692e-01	-2.293366e-01	-2.126625e-01	-1.988443e-01	-1.880688e-01	-1.798124e-01	-1.734247e-01	-1.683978e-01	-1.644426e-01	-1.615226e-01	-1.596996e-01	-1.591511e-01	-1.600462e-01	-1.625192e-01	-1.666095e-01	-1.723084e-01	-1.794872e-01	-1.880680e-01	-1.978576e-01	-2.087137e-01	-2.204098e-01	-2.328199e-01	-2.458741e-01	-2.594827e-01	-2.737079e-01	-2.884040e-01	-3.033641e-01	-3.187505e-01	-3.351667e-01	-3.528632e-01	-3.699425e-01	-3.821135e-01	-3.869340e-01	-3.899059e-01	-4.067313e-01	-4.536868e-01	-5.264823e-01	-5.910473e-01	-6.234815e-01	-6.296370e-01	-6.245032e-01	-6.177310e-01	-6.122685e-01	-6.079977e-01	-6.042927e-01	-6.007942e-01	-5.970046e-01	-5.923355e-01	-5.866347e-01	-5.805429e-01	-5.745301e-01	-5.681853e-01	-5.603308e-01	-5.499388e-01	-5.367790e-01	-5.206570e-01	-5.009493e-01	-4.768601e-01	-4.472511e-01	-4.109779e-01	-3.664780e-01	-3.117494e-01	-2.450062e-01	-1.642030e-01	-6.665185e-02	4.928716e-02	1.847316e-01	3.391856e-01	5.083498e-01	6.854815e-01	8.593137e-01	1.012054e+00	1.118708e+00	1.168887e+00	1.129115e+00	1.031169e+00	9.447668e-01	7.469922e-01	4.041751e-01	1.296615e-01	-8.211422e-02	-2.348858e-01	-3.366334e-01	-4.019879e-01	-4.457210e-01	-4.763730e-01	-4.991735e-01	-5.176808e-01	-5.339394e-01	-5.498010e-01	-5.660503e-01	-5.828120e-01	-6.005970e-01	-6.199723e-01	-6.411637e-01	-6.640324e-01	-6.879115e-01	-7.121316e-01	-7.365662e-01	-7.616815e-01	-7.878442e-01	-8.144220e-01	-8.403617e-01	-8.654065e-01	-8.900081e-01	-9.144055e-01	-9.381500e-01	-9.604408e-01	-9.807477e-01	-9.989352e-01	-1.015073e+00	-1.029290e+00	-1.041646e+00	-1.052316e+00	-1.061467e+00	-1.067719e+00	-1.068414e+00	-1.067580e+00	-1.074169e+00	-1.052399e+00	-7.698235e-01	-1.822048e-01	4.060975e-02	3.009787e-02	1.066957e-02	1.975833e-02	2.946675e-02	3.477008e-02	3.921415e-02	4.289169e-02	4.476273e-02	4.428108e-02	4.122893e-02	3.522139e-02	2.608273e-02	1.357528e-02	-2.254952e-03	-2.141209e-02	-4.353315e-02	-6.825802e-02	-9.476255e-02	-1.222208e-01	-1.493425e-01	-1.750290e-01	-1.979194e-01	-2.170630e-01	-2.316896e-01	-2.415729e-01	-2.468564e-01	-2.475384e-01	-2.432433e-01	-2.322953e-01	-2.114028e-01	-1.760050e-01	-1.216391e-01	-4.602410e-02	4.849493e-02	1.545040e-01	2.608607e-01	3.573029e-01	4.347450e-01	4.858628e-01	5.058119e-01	4.924530e-01	4.469559e-01	3.763373e-01	2.965535e-01	2.298115e-01	1.961490e-01	2.048202e-01	2.491068e-01	3.125635e-01	3.819115e-01	4.548775e-01	5.323426e-01	5.303019e-01	
SCALARS Mach float 1
LOOKUP_TABLE default
5.423739e-01	5.771828e-01	6.078811e-01	6.346785e-01	6.563883e-01	6.702814e-01	6.722078e-01	6.605673e-01	6.377863e-01	6.103749e-01	5.863746e-01	5.722516e-01	5.720020e-01	5.870735e-01	6.166992e-01	6.584293e-01	7.085398e-01	7.626733e-01	8.157439e-01	8.618929e-01	8.959132e-01	9.151465e-01	9.211493e-01	9.181837e-01	9.107550e-01	9.022039e-01	8.943541e-01	8.879232e-01	8.829150e-01	8.790979e-01	8.761453e-01	8.738272e-01	8.720186e-01	8.706619e-01	8.698263e-01	8.695590e-01	8.699629e-01	8.710905e-01	8.729529e-01	8.755668e-01	8.788518e-01	8.827950e-01	8.872884e-01	8.922836e-01	8.976673e-01	9.033940e-01	9.094241e-01	9.157149e-01	9.222980e-01	9.291176e-01	9.360794e-01	9.432957e-01	9.510326e-01	9.593936e-01	9.674183e-01	9.730205e-01	9.750154e-01	9.762248e-01	9.843462e-01	1.007434e+00	1.043899e+00	1.076289e+00	1.092273e+00	1.094883e+00	1.091928e+00	1.088350e+00	1.085629e+00	1.083509e+00	1.081680e+00	1.079918e+00	1.078012e+00	1.075647e+00	1.072782e+00	1.069721e+00	1.066741e+00	1.063554e+00	1.059653e+00	1.054549e+00	1.047988e+00	1.039945e+00	1.030210e+00	1.018334e+00	1.003870e+00	9.862405e-01	9.647585e-01	9.385741e-01	9.069063e-01	8.690209e-01	8.238347e-01	7.705348e-01	7.084697e-01	6.369793e-01	5.556374e-01	4.644893e-01	3.635905e-01	2.538924e-01	1.369997e-01	1.177454e-02	1.177010e-01	2.166230e-01	3.075464e-01	4.433975e-01	5.947064e-01	7.171437e-01	8.132488e-01	8.857421e-01	9.368785e-01	9.714374e-01	9.950439e-01	1.011721e+00	1.024143e+00	1.034031e+00	1.042646e+00	1.050953e+00	1.059371e+00	1.068030e+00	1.077167e+00	1.087085e+00	1.098019e+00	1.109900e+00	1.122408e+00	1.135227e+00	1.148238e+00	1.161592e+00	1.175718e+00	1.190241e+00	1.204674e+00	1.218653e+00	1.232580e+00	1.246483e+00	1.260294e+00	1.273375e+00	1.285540e+00	1.296483e+00	1.306375e+00	1.315068e+00	1.322772e+00	1.329401e+00	1.335266e+00	1.339305e+00	1.339714e+00	1.339377e+00	1.344861e+00	1.316144e+00	1.129345e+00	8.265540e-01	7.494541e-01	7.552686e-01	7.615379e-01	7.569508e-01	7.522413e-01	7.493478e-01	7.469510e-01	7.449927e-01	7.439960e-01	7.440709e-01	7.454390e-01	7.481529e-01	7.524148e-01	7.582022e-01	7.656200e-01	7.745325e-01	7.849042e-01	7.964301e-01	8.088699e-01	8.217150e-01	8.345101e-01	8.465943e-01	8.574655e-01	8.665863e-01	8.735822e-01	8.783872e-01	8.810195e-01	8.815747e-01	8.797567e-01	8.747852e-01	8.650002e-01	8.482049e-01	8.222208e-01	7.861871e-01	7.412648e-01	6.907077e-01	6.393342e-01	5.922991e-01	5.543065e-01	5.294834e-01	5.207757e-01	5.293113e-01	5.536006e-01	5.890606e-01	6.275991e-01	6.584239e-01	6.723622e-01	6.664908e-01	6.443782e-01	6.134065e-01	5.786091e-01	5.406797e-01	4.984500e-01	4.760969e-01	