# vtk DataFile Version 3.0
vtk output
ASCII
DATASET UNSTRUCTURED_GRID
POINTS 5233 float
9.997500e-01	-3.633567e-05	0.0	9.990000e-01	-1.456766e-04	0.0	9.977600e-01	-3.297401e-04	0.0	9.960200e-01	-6.019186e-04	0.0	9.937800e-01	-9.900673e-04	0.0	9.910500e-01	-1.539445e-03	0.0	9.878400e-01	-2.307745e-03	0.0	9.841300e-01	-3.355756e-03	0.0	9.799500e-01	-4.699161e-03	0.0	9.752800e-01	-6.311306e-03	0.0	9.701500e-01	-8.084271e-03	0.0	9.645400e-01	-9.881396e-03	0.0	9.584700e-01	-1.154883e-02	0.0	9.519400e-01	-1.298353e-02	0.0	9.449600e-01	-1.415581e-02	0.0	9.375400e-01	-1.511474e-02	0.0	9.296900e-01	-1.596247e-02	0.0	9.214000e-01	-1.681743e-02	0.0	9.127000e-01	-1.777342e-02	0.0	9.035800e-01	-1.888736e-02	0.0	8.940600e-01	-2.016730e-02	0.0	8.841500e-01	-2.158492e-02	0.0	8.738500e-01	-2.309013e-02	0.0	8.631800e-01	-2.462129e-02	0.0	8.521600e-01	-2.611993e-02	0.0	8.407700e-01	-2.754343e-02	0.0	8.290500e-01	-2.885543e-02	0.0	8.170100e-01	-3.003839e-02	0.0	8.046400e-01	-3.108921e-02	0.0	7.919700e-01	-3.201116e-02	0.0	7.790100e-01	-3.281634e-02	0.0	7.657800e-01	-3.351995e-02	0.0	7.522800e-01	-3.413922e-02	0.0	7.385200e-01	-3.468963e-02	0.0	7.245300e-01	-3.518363e-02	0.0	7.103200e-01	-3.563158e-02	0.0	6.958900e-01	-3.604104e-02	0.0	6.812700e-01	-3.641611e-02	0.0	6.664700e-01	-3.675960e-02	0.0	6.515000e-01	-3.707317e-02	0.0	6.363800e-01	-3.735797e-02	0.0	6.211300e-01	-3.761552e-02	0.0	6.057600e-01	-3.784834e-02	0.0	5.902800e-01	-3.805997e-02	0.0	5.747100e-01	-3.825495e-02	0.0	5.590600e-01	-3.843888e-02	0.0	5.433600e-01	-3.861781e-02	0.0	5.276100e-01	-3.879840e-02	0.0	5.118400e-01	-3.898678e-02	0.0	4.960500e-01	-3.918882e-02	0.0	4.802700e-01	-3.940902e-02	0.0	4.645100e-01	-3.965078e-02	0.0	4.487800e-01	-3.991602e-02	0.0	4.331100e-01	-4.020458e-02	0.0	4.175000e-01	-4.051517e-02	0.0	4.019700e-01	-4.084447e-02	0.0	3.865400e-01	-4.118765e-02	0.0	3.712300e-01	-4.153854e-02	0.0	3.560400e-01	-4.189038e-02	0.0	3.409900e-01	-4.223513e-02	0.0	3.261100e-01	-4.256396e-02	0.0	3.114000e-01	-4.286844e-02	0.0	2.968700e-01	-4.313980e-02	0.0	2.825500e-01	-4.336903e-02	0.0	2.684500e-01	-4.354785e-02	0.0	2.545700e-01	-4.366840e-02	0.0	2.409400e-01	-4.372306e-02	0.0	2.275700e-01	-4.370505e-02	0.0	2.144700e-01	-4.360812e-02	0.0	2.016600e-01	-4.342679e-02	0.0	1.891400e-01	-4.315595e-02	0.0	1.769300e-01	-4.279142e-02	0.0	1.650400e-01	-4.232949e-02	0.0	1.534900e-01	-4.176757e-02	0.0	1.422900e-01	-4.110347e-02	0.0	1.314400e-01	-4.033490e-02	0.0	1.209500e-01	-3.946063e-02	0.0	1.108500e-01	-3.848222e-02	0.0	1.011300e-01	-3.739841e-02	0.0	9.181000e-02	-3.621167e-02	0.0	8.290000e-02	-3.492454e-02	0.0	7.440000e-02	-3.353888e-02	0.0	6.633000e-02	-3.206074e-02	0.0	5.869000e-02	-3.049388e-02	0.0	5.149000e-02	-2.884481e-02	0.0	4.474000e-02	-2.712128e-02	0.0	3.844000e-02	-2.532938e-02	0.0	3.260000e-02	-2.347856e-02	0.0	2.723000e-02	-2.157949e-02	0.0	2.232000e-02	-1.963571e-02	0.0	1.790000e-02	-1.766677e-02	0.0	1.395000e-02	-1.567090e-02	0.0	1.049000e-02	-1.366358e-02	0.0	7.520000e-03	-1.164962e-02	0.0	5.040000e-03	-9.629988e-03	0.0	3.050000e-03	-7.599013e-03	0.0	1.560000e-03	-5.554508e-03	0.0	5.600000e-04	-3.448955e-03	0.0	6.000000e-05	-1.209949e-03	0.0	0.000000e+00	0.000000e+00	0.0	6.000000e-05	1.165983e-03	0.0	5.600000e-04	3.217605e-03	0.0	1.560000e-03	5.046258e-03	0.0	3.050000e-03	6.742078e-03	0.0	5.040000e-03	8.361103e-03	0.0	7.520000e-03	9.917876e-03	0.0	1.049000e-02	1.142808e-02	0.0	1.395000e-02	1.290097e-02	0.0	1.790000e-02	1.434211e-02	0.0	2.232000e-02	1.574881e-02	0.0	2.723000e-02	1.713017e-02	0.0	3.260000e-02	1.847954e-02	0.0	3.844000e-02	1.980114e-02	0.0	4.474000e-02	2.109361e-02	0.0	5.149000e-02	2.235585e-02	0.0	5.869000e-02	2.358863e-02	0.0	6.633000e-02	2.479093e-02	0.0	7.440000e-02	2.596202e-02	0.0	8.290000e-02	2.710269e-02	0.0	9.181000e-02	2.821122e-02	0.0	1.011300e-01	2.928867e-02	0.0	1.108500e-01	3.033495e-02	0.0	1.209500e-01	3.134914e-02	0.0	1.314400e-01	3.233345e-02	0.0	1.422900e-01	3.328628e-02	0.0	1.534900e-01	3.420817e-02	0.0	1.650400e-01	3.510037e-02	0.0	1.769300e-01	3.596322e-02	0.0	1.891400e-01	3.679634e-02	0.0	2.016600e-01	3.760003e-02	0.0	2.144700e-01	3.837381e-02	0.0	2.275700e-01	3.911824e-02	0.0	2.409400e-01	3.983242e-02	0.0	2.545700e-01	4.051574e-02	0.0	2.684500e-01	4.116722e-02	0.0	2.825500e-01	4.178461e-02	0.0	2.968700e-01	4.236660e-02	0.0	3.114000e-01	4.291094e-02	0.0	3.261100e-01	4.341421e-02	0.0	3.409900e-01	4.387335e-02	0.0	3.560400e-01	4.428508e-02	0.0	3.712300e-01	4.464488e-02	0.0	3.865400e-01	4.494833e-02	0.0	4.019700e-01	4.519109e-02	0.0	4.175000e-01	4.536825e-02	0.0	4.331100e-01	4.547487e-02	0.0	4.487800e-01	4.550611e-02	0.0	4.645100e-01	4.545717e-02	0.0	4.802700e-01	4.532340e-02	0.0	4.960500e-01	4.510033e-02	0.0	5.118400e-01	4.478361e-02	0.0	5.276100e-01	4.436963e-02	0.0	5.433600e-01	4.385449e-02	0.0	5.590600e-01	4.323560e-02	0.0	5.747100e-01	4.250994e-02	0.0	5.902800e-01	4.167656e-02	0.0	6.057600e-01	4.073476e-02	0.0	6.211300e-01	3.968577e-02	0.0	6.363800e-01	3.853194e-02	0.0	6.515000e-01	3.727756e-02	0.0	6.664700e-01	3.593003e-02	0.0	6.812700e-01	3.449944e-02	0.0	6.958900e-01	3.299739e-02	0.0	7.103200e-01	3.143751e-02	0.0	7.245300e-01	2.983719e-02	0.0	7.385200e-01	2.821115e-02	0.0	7.522800e-01	2.657470e-02	0.0	7.657800e-01	2.494392e-02	0.0	7.790100e-01	2.332979e-02	0.0	7.919700e-01	2.173853e-02	0.0	8.046400e-01	2.017491e-02	0.0	8.170100e-01	1.863872e-02	0.0	8.290500e-01	1.712919e-02	0.0	8.407700e-01	1.563835e-02	0.0	8.521600e-01	1.415936e-02	0.0	8.631800e-01	1.268876e-02	0.0	8.738500e-01	1.121509e-02	0.0	8.841500e-01	9.732896e-03	0.0	8.940600e-01	8.239748e-03	0.0	9.035800e-01	6.737241e-03	0.0	9.127000e-01	5.241907e-03	0.0	9.214000e-01	3.792827e-03	0.0	9.296900e-01	2.449338e-03	0.0	9.375400e-01	1.298592e-03	0.0	9.449600e-01	4.270248e-04	0.0	9.519400e-01	-9.663583e-05	0.0	9.584700e-01	-2.543264e-04	0.0	9.645400e-01	-9.682023e-05	0.0	9.701500e-01	2.627950e-04	0.0	9.752800e-01	6.783850e-04	0.0	9.799500e-01	1.018743e-03	0.0	9.841300e-01	1.197864e-03	0.0	9.878400e-01	1.196092e-03	0.0	9.910500e-01	1.046808e-03	0.0	9.937800e-01	8.108982e-04	0.0	9.960200e-01	5.521544e-04	0.0	9.977600e-01	3.205025e-04	0.0	9.990000e-01	1.448331e-04	0.0	9.997500e-01	3.632230e-05	0.0	1.000000e+00	0.000000e+00	0.0	1.984229e+01	2.506660e+00	0.0	1.937166e+01	4.973800e+00	0.0	1.859553e+01	7.362490e+00	0.0	1.752613e+01	9.635070e+00	0.0	1.618034e+01	1.175571e+01	0.0	1.457937e+01	1.369094e+01	0.0	1.274848e+01	1.541027e+01	0.0	1.071654e+01	1.688656e+01	0.0	8.515590e+00	1.809654e+01	0.0	6.180340e+00	1.902113e+01	0.0	3.747630e+00	1.964575e+01	0.0	1.255810e+00	1.996053e+01	0.0	-1.255810e+00	1.996053e+01	0.0	-3.747630e+00	1.964574e+01	0.0	-6.180340e+00	1.902113e+01	0.0	-8.515590e+00	1.809654e+01	0.0	-1.071654e+01	1.688656e+01	0.0	-1.274848e+01	1.541026e+01	0.0	-1.457937e+01	1.369094e+01	0.0	-1.618034e+01	1.175570e+01	0.0	-1.752613e+01	9.635070e+00	0.0	-1.859553e+01	7.362490e+00	0.0	-1.937166e+01	4.973800e+00	0.0	-1.984229e+01	2.506660e+00	0.0	-2.000000e+01	0.000000e+00	0.0	-1.984229e+01	-2.506670e+00	0.0	-1.937166e+01	-4.973800e+00	0.0	-1.859553e+01	-7.362490e+00	0.0	-1.752613e+01	-9.635080e+00	0.0	-1.618034e+01	-1.175571e+01	0.0	-1.457937e+01	-1.369094e+01	0.0	-1.274848e+01	-1.541027e+01	0.0	-1.071653e+01	-1.688656e+01	0.0	-8.515580e+00	-1.809654e+01	0.0	-6.180340e+00	-1.902113e+01	0.0	-3.747620e+00	-1.964575e+01	0.0	-1.255810e+00	-1.996053e+01	0.0	1.255810e+00	-1.996053e+01	0.0	3.747630e+00	-1.964574e+01	0.0	6.180340e+00	-1.902113e+01	0.0	8.515590e+00	-1.809654e+01	0.0	1.071654e+01	-1.688656e+01	0.0	1.274848e+01	-1.541026e+01	0.0	1.457937e+01	-1.369094e+01	0.0	1.618034e+01	-1.175570e+01	0.0	1.752614e+01	-9.635070e+00	0.0	1.859553e+01	-7.362490e+00	0.0	1.937166e+01	-4.973790e+00	0.0	1.984229e+01	-2.506660e+00	0.0	2.000000e+01	0.000000e+00	0.0	6.108543e-02	-3.816078e-02	0.0	6.596172e-01	-5.067229e-02	0.0	4.254823e-01	5.960565e-02	0.0	6.898002e-01	4.694628e-02	0.0	3.791921e-01	-5.563833e-02	0.0	9.994689e-01	-7.250063e-04	0.0	9.985588e-01	-1.332457e-03	0.0	7.734184e-01	-4.509774e-02	0.0	6.892983e-01	-4.963694e-02	0.0	-8.295790e-04	4.943655e-03	0.0	7.463101e-01	-4.690705e-02	0.0	5.833279e-01	5.609672e-02	0.0	9.928466e-01	-3.842916e-03	0.0	9.899844e-01	-4.961132e-03	0.0	5.989134e-01	5.512238e-02	0.0	7.182378e-01	-4.839351e-02	0.0	-1.259561e-03	5.821327e-04	0.0	9.866441e-01	-6.298789e-03	0.0	9.828301e-01	-7.864171e-03	0.0	-9.282235e-04	-5.357309e-03	0.0	6.445386e-01	-5.112157e-02	0.0	8.242638e-01	-4.018573e-02	0.0	7.994356e-01	-4.289059e-02	0.0	3.484143e-01	5.784977e-02	0.0	8.477560e-01	-3.701394e-02	0.0	2.473350e-01	5.273731e-02	0.0	8.698460e-01	-3.351068e-02	0.0	1.069248e-02	1.538682e-02	0.0	8.904306e-01	-2.996792e-02	0.0	7.735916e-02	-4.190363e-02	0.0	9.094521e-01	-2.669817e-02	0.0	-1.478659e-03	-2.676460e-03	0.0	9.425480e-01	-2.093128e-02	0.0	9.268504e-01	-2.379020e-02	0.0	1.834955e-02	-2.265860e-02	0.0	4.256822e-01	-5.492425e-02	0.0	8.589855e-01	-3.528594e-02	0.0	9.564615e-01	-1.760704e-02	0.0	9.785310e-01	-9.669541e-03	0.0	9.684787e-01	-1.367021e-02	0.0	1.586193e-01	-5.258851e-02	0.0	9.001424e-01	-2.828514e-02	0.0	7.599951e-01	-4.604752e-02	0.0	9.971456e-01	-2.101231e-03	0.0	5.985333e-01	-5.222807e-02	0.0	4.413404e-01	-5.468197e-02	0.0	5.359436e-01	-5.329039e-02	0.0	4.728216e-01	-5.420876e-02	0.0	5.043907e-01	-5.375000e-02	0.0	4.885946e-01	-5.397706e-02	0.0	1.252951e-01	-4.941829e-02	0.0	2.822709e-02	-2.739313e-02	0.0	3.945962e-01	-5.540732e-02	0.0	4.657429e-02	-3.407457e-02	0.0	4.100942e-01	-5.516839e-02	0.0	3.189296e-01	-5.636470e-02	0.0	3.487596e-01	-5.605946e-02	0.0	3.387981e-02	-2.967081e-02	0.0	2.897807e-01	-5.650309e-02	0.0	9.349173e-01	-2.238669e-02	0.0	1.471574e-01	-5.164091e-02	0.0	1.950012e-01	-5.476438e-02	0.0	8.613286e-02	-4.362590e-02	0.0	1.049270e-01	-4.675265e-02	0.0	5.673664e-01	-5.280579e-02	0.0	1.704241e-01	-5.342558e-02	0.0	6.139885e-01	-5.189373e-02	0.0	8.803343e-01	-3.172395e-02	0.0	2.306074e-02	-2.505130e-02	0.0	9.952398e-01	-2.914819e-03	0.0	7.155021e-03	-1.536324e-02	0.0	1.868944e-02	1.918506e-02	0.0	9.183568e-01	-2.520860e-02	0.0	9.49
[...]
POINT_DATA 5233

SCALARS Conservative_1 float 1
LOOKUP_TABLE default
-2.162091e-01	-2.346739e-01	-2.346046e-01	-2.357321e-01	-2.379297e-01	-2.360862e-01	-2.263786e-01	-2.046846e-01	-1.670003e-01	-1.098727e-01	-3.250462e-02	6.137310e-02	1.582442e-01	2.259771e-01	2.273403e-01	1.674392e-01	9.665371e-02	5.076916e-02	3.083612e-02	2.915987e-02	4.195340e-02	6.678549e-02	1.005942e-01	1.401204e-01	1.822366e-01	2.247833e-01	2.662671e-01	3.029590e-01	3.273370e-01	3.311313e-01	3.128435e-01	2.816227e-01	2.503533e-01	2.261948e-01	2.090874e-01	1.960074e-01	1.847016e-01	1.745565e-01	1.655290e-01	1.574055e-01	1.497202e-01	1.421618e-01	1.346000e-01	1.270968e-01	1.197520e-01	1.127442e-01	1.062589e-01	1.004940e-01	9.564107e-02	9.186978e-02	8.932473e-02	8.810214e-02	8.826171e-02	8.983085e-02	9.284548e-02	9.728164e-02	1.031401e-01	1.103619e-01	1.189207e-01	1.287468e-01	1.398146e-01	1.520253e-01	1.653516e-01	1.797120e-01	1.950859e-01	2.113317e-01	2.282793e-01	2.455919e-01	2.632490e-01	2.816289e-01	3.017337e-01	3.240934e-01	3.474390e-01	3.671899e-01	3.760851e-01	3.687269e-01	3.463424e-01	3.167142e-01	2.881275e-01	2.636313e-01	2.406203e-01	2.153084e-01	1.865095e-01	1.551726e-01	1.221480e-01	8.749803e-02	5.095475e-02	1.254109e-02	-2.787800e-02	-7.036349e-02	-1.153381e-01	-1.630398e-01	-2.144928e-01	-2.693420e-01	-3.289821e-01	-3.896993e-01	-4.441129e-01	-4.855737e-01	-5.038320e-01	-4.829274e-01	-4.387728e-01	-3.401284e-01	-1.839395e-01	-3.238070e-02	8.737498e-02	1.727053e-01	2.288362e-01	2.658846e-01	2.908305e-01	3.080219e-01	3.201472e-01	3.288742e-01	3.358857e-01	3.422220e-01	3.480128e-01	3.527851e-01	3.555886e-01	3.554930e-01	3.522010e-01	3.462672e-01	3.388002e-01	3.307179e-01	3.225240e-01	3.145091e-01	3.069065e-01	2.999951e-01	2.939472e-01	2.887583e-01	2.843319e-01	2.805730e-01	2.775297e-01	2.753120e-01	2.739193e-01	2.731381e-01	2.723997e-01	2.711984e-01	2.696944e-01	2.695841e-01	2.738148e-01	2.852637e-01	3.047432e-01	3.300002e-01	3.558786e-01	3.759298e-01	3.848033e-01	3.804935e-01	3.653969e-01	3.451570e-01	3.255467e-01	3.095387e-01	2.967943e-01	2.856987e-01	2.748253e-01	2.632710e-01	2.503083e-01	2.353044e-01	2.182276e-01	1.994923e-01	1.796691e-01	1.591083e-01	1.381548e-01	1.170642e-01	9.618097e-02	7.587097e-02	5.647320e-02	3.829192e-02	2.156850e-02	6.468160e-03	-6.981252e-03	-1.888273e-02	-2.947912e-02	-3.909506e-02	-4.812964e-02	-5.700793e-02	-6.624609e-02	-7.620417e-02	-8.757000e-02	-1.009776e-01	-1.171870e-01	-1.367491e-01	-1.596317e-01	-1.847818e-01	-2.101115e-01	-2.326764e-01	-2.494445e-01	-2.576306e-01	-2.550000e-01	-2.399932e-01	-2.123512e-01	-1.742497e-01	-1.328855e-01	-1.018929e-01	-9.396894e-02	-1.109474e-01	-1.441566e-01	-1.831926e-01	-2.189482e-01	-2.514667e-01	-3.312993e-01	-2.853798e-01	-1.287661e-04	-1.285356e-04	-1.275202e-04	-1.268279e-04	-1.252740e-04	-1.216107e-04	-1.122743e-04	-9.740474e-05	-6.914733e-05	-3.034860e-05	3.753818e-05	1.307769e-04	2.267733e-04	2.727072e-04	2.718390e-04	2.515086e-04	2.213897e-04	1.890295e-04	1.551797e-04	1.231164e-04	9.324374e-05	7.348257e-05	9.161034e-05	2.852878e-05	-6.205709e-05	2.631133e-05	4.786423e-05	1.535633e-05	-1.361517e-05	-1.736936e-05	-1.908159e-05	-1.571796e-05	-8.242222e-06	3.617087e-06	1.839844e-05	3.324270e-05	3.618195e-05	1.546449e-05	-2.695544e-05	-6.195000e-05	-9.065435e-05	-1.118665e-04	-1.238040e-04	-1.304980e-04	-1.326179e-04	-1.325349e-04	-1.321820e-04	-1.316273e-04	-1.291586e-04	-1.295098e-04	1.408439e-01	1.567886e-01	3.757084e-01	1.017171e-01	1.066112e-01	-2.410735e-01	-2.395711e-01	2.808656e-01	1.739579e-01	-3.069066e-01	2.262525e-01	2.331168e-01	-2.284059e-01	-2.199780e-01	2.173847e-01	1.950046e-01	-4.447910e-01	-2.038918e-01	-1.773654e-01	-4.520221e-01	1.493289e-01	2.612389e-01	3.091104e-01	2.882281e-01	1.852492e-01	2.684646e-01	1.114011e-01	1.584627e-01	5.476128e-02	1.993210e-01	3.447866e-02	-4.804018e-01	1.607743e-01	6.643132e-02	-1.201866e-01	9.215687e-02	1.473659e-01	1.347860e-01	-1.376644e-01	-1.565408e-02	3.392576e-01	3.914004e-02	2.515227e-01	-2.349192e-01	1.279736e-01	8.997345e-02	1.026985e-01	8.951987e-02	9.399620e-02	9.117474e-02	3.329268e-01	-3.687460e-02	1.004940e-01	7.462853e-02	9.566222e-02	1.431881e-01	1.225654e-01	2.077752e-03	1.680396e-01	1.111816e-01	3.521554e-01	2.782587e-01	2.238020e-01	2.740384e-01	1.144694e-01	3.189554e-01	1.350149e-01	7.963629e-02	-7.757550e-02	-2.323869e-01	-2.614599e-01	2.355583e-01	4.221105e-02	1.753787e-01	-8.344680e-02	-1.931342e-01	2.237634e-01	2.121467e-01	1.082844e-01	2.081340e-01	3.040144e-01	3.044239e-01	2.442584e-01	1.210818e-01	1.648815e-01	1.084153e-01	-3.130074e-01	-1.649809e-01	1.139850e-01	2.976636e-01	-2.368154e-01	2.280836e-01	2.473787e-01	1.551170e-01	1.966608e-01	8.910513e-02	1.840062e-01	-3.941133e-01	-4.132822e-01	2.701779e-01	-4.763805e-01	2.779511e-01	3.228759e-01	3.036943e-01	3.143668e-01	3.737011e-01	-2.137088e-01	2.809814e-01	3.256033e-01	-1.860004e-01	-2.278439e-01	-1.096444e-01	3.071895e-01	3.652956e-01	3.360050e-01	-1.883316e-01	-1.458624e-01	3.348949e-01	-1.565824e-01	-2.352287e-01	-2.238298e-01	3.273105e-01	3.299237e-01	2.658943e-01	2.679690e-01	2.838613e-01	2.661950e-01	3.465753e-01	3.591639e-01	2.944229e-01	3.075264e-01	1.810811e-01	2.761203e-01	2.708293e-01	1.416975e-01	2.468843e-01	2.918600e-02	6.347056e-02	-2.323347e-02	2.906824e-04	-6.169762e-02	-4.300391e-02	-1.265533e-01	-8.266542e-02	-2.334832e-01	-1.669305e-01	-2.110196e-01	-7.168898e-02	-9.515015e-02	-3.343577e-02	-5.230088e-02	1.402509e-02	-1.207210e-02	8.222441e-02	4.572326e-02	1.615925e-01	1.216487e-01	2.590694e-01	1.998611e-01	2.731361e-01	2.693022e-01	2.887410e-01	2.796898e-01	3.139554e-01	3.007848e-01	2.027922e-01	2.919945e-01	2.607455e-01	1.925311e-02	6.144326e-02	2.926489e-01	1.323245e-01	9.788239e-02	-7.910201e-02	2.597974e-01	9.856759e-02	3.323085e-01	3.341555e-01	2.672089e-01	3.210726e-01	-1.306396e-01	-1.181457e-01	2.647788e-01	-1.242586e-01	-1.461826e-01	2.732923e-01	3.103825e-01	-2.080676e-01	-3.415855e-01	-2.524755e-01	-3.038278e-01	1.421330e-01	3.923791e-02	-1.776843e-01	2.927448e-01	-3.648337e-01	-2.121616e-01	1.715269e-01	3.506932e-01	1.819176e-01	3.138558e-01	-2.841475e-01	-3.552849e-01	1.699068e-01	1.734708e-01	4.192304e-02	-2.528701e-01	2.296561e-01	1.644724e-01	2.763491e-01	-1.991935e-01	1.353397e-01	1.511347e-01	2.197588e-01	2.079779e-01	-4.160860e-01	2.414885e-01	-1.653130e-01	5.304036e-02	3.257450e-01	1.831969e-01	1.490113e-01	9.045005e-02	1.836087e-01	1.035772e-01	4.924804e-02	2.869741e-01	4.687349e-02	1.913687e-01	1.246154e-01	-5.743740e-02	3.043489e-01	1.056654e-01	2.781603e-01	-9.001462e-02	-1.382681e-01	2.745297e-01	2.761106e-01	-2.148671e-01	-1.032853e-01	-1.499309e-01	-2.124062e-01	-1.499729e-01	2.635187e-01	2.637233e-01	2.644399e-01	3.093163e-01	1.563652e-01	2.569232e-01	1.067833e-01	2.879136e-01	2.889778e-01	-1.877127e-01	-1.699502e-01	-1.181882e-01	3.108537e-01	-2.954501e-01	-2.271890e-01	-1.965418e-01	-2.672731e-02	-1.988612e-01	-2.980794e-01	-4.592774e-01	-4.442475e-01	-1.235548e-01	-2.729228e-01	1.273792e-01	-2.322398e-01	-2.207323e-01	3.672170e-01	1.047510e-01	-1.789357e-01	8.995345e-02	2.150317e-01	-2.123987e-01	-4.472949e-01	9.191159e-02	3.597459e-01	1.850267e-01	2.614328e-01	1.189715e-01	6.605842e-02	1.569532e-01	4.087084e-02	5.426368e-02	1.264727e-01	-4.449794e-02	1.043402e-01	-6.775832e-03	-1.502467e-01	3.178411e-01	2.282978e-01	2.533113e-01	-2.270039e-01	9.017764e-02	9.106726e-02	9.307293e-02	-8.339343e-02	9.848222e-02	9.457811e-02	1.257770e-01	2.853975e-02	7.989985e-02	1.117526e-01	3.295642e-01	2.332981e-01	1.101228e-01	1.287052e-01	-6.299604e-02	-1.114666e-01	1.940431e-01	2.082220e-01	2.623766e-01	2.929880e-01	1.159963e-01	1.222279e-01	6.275940e-02	9.577607e-02	-2.086860e-01	1.172534e-01	1.098526e-01	2.919065e-01	2.735019e-01	2.265453e-01	2.117069e-01	1.574587e-01	1.459299e-01	1.971782e-01	-4.079652e-01	-3.417059e-01	2.756785e-01	-1.382698e-01	2.651365e-01	2.890288e-01	3.057383e-01	3.261396e-01	-1.685312e-01	-2.031009e-01	-1.703526e-01	3.467505e-01	3.621279e-01	3.414172e-01	-1.524283e-01	-2.107669e-01	3.087974e-01	3.002469e-01	2.630156e-01	2.624915e-01	2.827200e-01	2.934651e-01	2.990189e-01	-1.729461e-02	3.568229e-02	5.185709e-02	-5.752504e-03	-4.775335e-02	-1.347431e-01	-7.817852e-02	-6.740201e-02	-3.801062e-02	-2.796669e-02	6.850914e-03	2.064044e-02	6.903741e-02	8.704618e-02	1.436562e-01	1.625391e-01	2.427788e-01	2.544596e-01	1.810500e-01	1.987005e-01	2.660415e-01	2.682780e-01	2.710592e-01	2.743261e-01	1.543751e-01	2.604240e-01	2.422942e-01	2.781753e-01	2.529481e-01	9.609525e-02	1.000278e-01	-1.106100e-01	2.198805e-01	3.132995e-01	3.151726e-01	2.598862e-01	2.600819e-01	3.172079e-01	2.932002e-01	-2.010778e-01	-1.870768e-01	1.353328e-01	1.420802e-01	-7.123936e-03	-3.827630e-01	1.831615e-01	-4.142327e-01	1.014129e-01	1.590224e-01	2.625543e-01	1.024543e-01	5.049197e-02	-1.546173e-01	-1.487641e-01	-1.928625e-01	-1.291135e-01	-1.669558e-01	-2.618320e-01	-2.834167e-01	-2.232543e-01	-2.678008e-01	-1.259587e-01	-3.846489e-01	1.923040e-01	6.376345e-02	-1.936991e-01	2.250839e-01	-2.391581e-01	-2.840038e-01	1.738678e-01	-3.578602e-01	1.835544e-01	-1.644040e-01	9.811797e-02	-2.440603e-01	1.285527e-01	1.240373e-01	1.649920e-01	-2.051414e-01	-2.041053e-01	-1.602589e-01	2.591066e-01	-1.963537e-01	1.256063e-01	-1.881250e-01	2.710707e-01	2.564302e-01	2.632779e-01	2.714334e-01	2.870920e-01	-2.819068e-01	-3.864266e-01	-2.712391e-01	1.128922e-01	-3.318367e-01	-2.473577e-03	1.674188e-01	-4.261561e-01	2.971847e-01	9.148852e-02	-8.811595e-02	8.439886e-03	-5.392102e-02	-1.255418e-02	1.075102e-01	-1.511738e-01	-1.970480e-01	-1.112718e-01	-9.801014e-02	2.562844e-01	2.553038e-01	2.580398e-01	2.915272e-01	1.495088e-01	1.568718e-01	2.370133e-01	6.511294e-02	2.754859e-01	-1.725122e-01	-2.090713e-01	-5.724928e-02	-2.020692e-01	-3.222980e-01	-4.323851e-01	-5.125086e-02	-2.456708e-01	-2.444325e-01	-4.850813e-02	-1.772771e-01	2.110964e-01	9.231726e-02	3.541898e-01	1.829809e-01	1.525778e-01	7.609814e-02	5.931704e-02	1.133652e-01	1.415764e-01	4.895427e-02	4.580569e-02	7.738058e-02	4.276970e-02	-1.552750e-01	2.318090e-01	2.510736e-01	-2.149780e-01	9.170568e-02	9.299706e-02	9.726327e-02	9.421760e-02	-1.596872e-02	8.140105e-02	9.026433e-02	2.972025e-01	3.037929e-01	1.070605e-01	1.122396e-01	-9.048272e-02	-1.265196e-01	1.951454e-01	2.112584e-01	2.193099e-01	2.492091e-01	2.774769e-01	1.178224e-01	1.237395e-01	1.802511e-02	5.117448e-02	8.313425e-02	1.202552e-01	1.129308e-01	1.066501e-01	2.828667e-01	2.666952e-01	2.512325e-01	2.232933e-01	2.097732e-01	1.479844e-01	1.378260e-01	1.963377e-01	2.484081e-01	2.860320e-01	3.050962e-01	-1.842241e-01	3.256583e-01	3.436920e-01	3.543745e-01	3.426063e-01	-1.553470e-01	2.774693e-01	2.643196e-01	2.571107e-01	2.575252e-01	2.798553e-01	2.841097e-01	2.879671e-01	4.039649e-02	-1.404313e-01	-1.254846e-01	-8.581356e-02	-7.451921e-02	-6.404498e-02	-4.391488e-02	-3.373242e-02	-2.338879e-02	-7.187288e-04	1.189153e-02	2.570956e-02	5.617469e-02	7.259127e-02	8.990282e-02	1.435778e-01	2.377234e-01	2.485397e-01	1.615642e-01	1.789209e-01	1.956334e-01	2.590260e-01	2.605257e-01	2.625480e-01	2.649663e-01	2.678719e-01	2.302384e-01	2.089568e-01	2.595581e-01	2.411219e-01	2.137593e-01	9.530654e-02	9.849188e-02	1.830215e-01	1.515524e-01	2.942637e-01	2.951359e-01	2.929701e-01	2.546155e-01	3.225328e-01	2.990748e-01	2.778314e-01	-1.910744e-01	-1.818229e-01	-1.696123e-01	1.298676e-01	1.361830e-01	1.426895e-01	1.833138e-01	1.708100e-01	-3.798173e-01	1.762362e-01	-1.958701e-01	-1.581554e-01	1.048128e-01	-3.498534e-01	-2.269815e-01	5.371107e-02	6.075424e-02	-5.737004e-02	-1.673915e-01	2.653754e-01	-3.573277e-01	3.183593e-02	-2.683466e-01	-1.817030e-01	-1.808101e-01	-2.537675e-01	1.263437e-01	-1.969523e-01	-2.661087e-01	-2.558489e-01	2.431517e-01	2.687667e-01	-1.267776e-01	9.999790e-02	1.510986e-01	9.326406e-02	1.493271e-01	-1.560068e-01	2.201386e-01	-1.826526e-01	-1.801867e-01	-8.756285e-03	2.633693e-01	2.505559e-01	-1.759823e-01	2.538234e-01	1.027639e-01	-2.239039e-01	-1.589482e-01	-2.103250e-01	-7.693660e-02	-1.620110e-01	1.657867e-01	-3.016582e-01	1.738505e-01	1.845514e-01	-1.974498e-01	-1.901975e-01	-2.334861e-01	-5.040194e-02	2.544503e-01	2.499781e-01	-3.053891e-01	-2.009703e-02	1.079109e-01	-1.051049e-01	2.542426e-01	2.491345e-01	2.498302e-01	1.505362e-01	1.572912e-01	-1.639391e-01	-7.672710e-02	-1.368394e-01	-3.324390e-01	-4.013970e-01	-9.127770e-02	-4.162738e-02	-1.582518e-01	2.053810e-01	1.515550e-01	1.259326e-01	8.243402e-02	6.659024e-02	9.883240e-02	1.258397e-01	5.540942e-02	4.980325e-02	4.942374e-02	2.913718e-02	-4.845935e-03	2.330967e-01	2.400814e-01	-2.007346e-01	9.293099e-02	9.351667e-02	9.668477e-02	9.446361e-02	6.344730e-02	5.361210e-02	2.722431e-01	2.760442e-01	1.093638e-01	-1.088645e-01	-1.362196e-01	1.961935e-01	2.151807e-01	2.037195e-01	2.327744e-01	2.572040e-01	1.143961e-01	1.196315e-01	-2.464663e-02	7.813916e-03	3.982071e-02	7.008616e-02	1.227703e-01	1.157083e-01	1.094867e-01	1.042802e-01	2.565818e-01	2.435936e-01	2.306970e-01	2.184901e-01	2.062141e-01	1.308103e-01	1.396087e-01	1.941638e-01	2.834232e-01	-1.711506e-01	-1.775756e-01	3.028753e-01	3.215765e-01	3.357330e-01	3.416730e-01	3.375725e-01	2.392568e-01	2.209826e-01	2.510637e-01	2.514077e-01	2.665757e-01	2.696202e-01	2.719622e-01	2.740529e-01	-1.429679e-01	-1.303108e-01	-1.176246e-01	-9.320737e-02	-8.173623e-02	-7.101482e-02	-6.017672e-02	-4.087448e-02	-2.938282e-02	-1.960682e-02	3.473429e-03	1.593895e-02	2.994415e-02	4.382557e-02	5.961711e-02	7.468459e-02	9.212676e-02	2.413483e-01	2.327514e-01	1.420092e-01	1.606643e-01	1.756089e-01	1.934674e-01	2.519638e-01	2.528076e-01	2.541615e-01	2.558631e-01	2.578418e-01	2.605072e-01	2.002867e-01	1.769791e-01	2.267758e-01	2.039037e-01	1.785307e-01	9.524475e-02	9.750457e-02	1.009516e-01	1.491267e-01	1.156582e-01	7.709723e-02	2.753534e-01	2.749805e-01	2.716361e-01	2.645424e-01	3.236328e-01	3.037994e-01	2.819764e-01	2.644830e-01	-1.550136e-01	-1.742614e-01	-1.658306e-01	1.254563e-01	1.310627e-01	1.374442e-01	1.434134e-01	1.821501e-01	1.707268e-01	1.596500e-01	-1.903770e-01	-1.887996e-01	-6.976073e-02	-2.807549e-01	-2.223457e-01	1.776461e-01	1.593987e-01	-2.531429e-01	-1.598679e-01	-3.090567e-01	-9.399773e-02	2.422291e-01	2.536533e-01	-4.209055e-02	-1.903700e-01	-3.227810e-01	-4.039566e-01	-4.155629e-01	-3.788400e-01	-3.318067e-01	-2.018879e-01	2.453982e-01	-9.686372e-02	-1.752443e-01	4.343171e-02	2.167376e-01	9.865849e-02	-1.750287e-01	-1.439061e-01	-1.655326e-01	2.194664e-01	2.400017e-01	1.161056e-01	9.251387e-04	2.603399e-01	1.046825e-01	2.530640e-01	-1.667270e-01	1.346359e-01	-2.552488e-01	-1.590615e-01	-3.984500e-01	-2.542967e-01	-2.394221e-01	4.799791e-02	-6.363078e-02	-3.505488e-01	4.163495e-03	-2.820457e-01	-1.703638e-01	-2.377865e-01	-2.661723e-01	-2.592629e-01	-1.591190e-01	1.326162e-01	1.406592e-01	-1.611681e-01	1.995422e-01	-1.693184e-01	-1.601231e-01	1.603689e-01	-2.822510e-01	2.435290e-01	2.424404e-01	2.443291e-01	1.465302e-01	-9.084688e-02	-1.404548e-01	-3.695814e-01	-1.264060e-01	1.236693e-01	1.050618e-01	8.495047e-02	6.992385e-02	1.100689e-01	8.391424e-02	5.808253e-02	5.120097e-02	4.774205e-02	4.609647e-02	-1.180042e-02	-4.080653e-02	2.171569e-01	-1.869044e-01	9.399838e-02	9.410670e-02	9.616878e-02	9.477364e-02	3.279177e-02	1.411168e-02	2.470990e-01	2.528291e-01	-1.213185e-01	-1.424880e-01	1.971160e-01	1.886342e-01	2.189075e-01	2.336693e-01	1.132884e-01	-3.317569e-02	-2.156418e-03	2.800501e-02	5.651197e-02	1.246018e-01	1.178948e-01	1.117028e-01	1.065764e-01	1.025174e-01	2.355587e-01	2.225014e-01	2.138156e-01	2.013455e-01	1.919182e-01	-1.627863e-01	-1.663249e-01	-1.691923e-01	2.810654e-01	2.972052e-01	3.162637e-01	3.237762e-01	3.293766e-01	2.134185e-01	1.931545e-01	2.439386e-01	2.454815e-01	2.574194e-01	2.563728e-01	2.568789e-01	-1.325142e-01	-1.219221e-01	-1.101806e-01	-9.907293e-02	-8.790225e-02	-7.711421e-02	-6.664647e-02	-5.171833e-02	-3.664888e-02	-2.061086e-02	2.626256e-02	5.403047e-02	8.423095e-02	1.485224e-01	1.787199e-01	2.446513e-01	2.461817e-01	2.457780e-01	2.481201e-01	2.478371e-01	2.497047e-01	2.517913e-01	1.702634e-01	1.454470e-01	1.913789e-01	1.728573e-01	1.488236e-01	9.512876e-02	9.831631e-02	1.173039e-01	8.345106e-02	4.542563e-02	2.567122e-01	2.548037e-01	2.500009e-01	2.411710e-01	2.291255e-01	3.194914e-01	3.068272e-01	2.862116e-01	2.647004e-01	-1.597395e-01	-1.519863e-01	1.233454e-01	1.344270e-01	1.798549e-01	1.703683e-01	1.593577e-01	1.503446e-01	-2.337219e-01	-2.412199e-01	-2.381421e-01	-3.471446e-01	-2.527602e-01	-1.105072e-01	-1.648683e-01	-2.600462e-01	-1.602071e-01	-2.053087e-01	-1.466059e-01	-3.391726e-01	-9.658473e-02	-2.109414e-01	2.453127e-01	-2.647201e-01	-1.006070e-01	-2.226395e-01	-1.832972e-01	-8.942612e-02	1.004131e-01	-1.604058e-01	1.296716e-01	1.743496e-02	3.259946e-02	1.250328e-01	1.438311e-01	2.167333e-01	-3.074013e-01	9.645084e-02	9.385296e-02	1.168569e-01	2.425909e-01	-1.578398e-01	-1.363514e-01	-2.953986e-01	-5.881581e-02	-6.660113e-02	-2.655801e-01	-1.581424e-01	-3.989272e-01	-3.237176e-01	-1.618501e-01	1.779970e-01	2.354199e-01	2.657377e-01	-1.712610e-01	-2.553970e-01	-1.955828e-01	-3.775647e-01	-2.466365e-01	-6.917840e-02	-2.868154e-01	-2.633640e-01	1.951841e-01	-1.251175e-01	-1.594519e-01	-1.569257e-01	2.140610e-01	2.358162e-01	2.358823e-01	1.610834e-01	-1.419767e-01	-1.832269e-01	-1.552500e-01	9.313557e-02	6.486883e-02	6.889641e-02	4.790191e-02	3.941984e-02	-4.301833e-02	-1.749984e-01	9.449009e-02	4.399354e-04	-1.988410e-02	2.240876e-01	-1.295528e-01	1.940777e-01	1.973107e-01	1.845775e-01	2.100864e-01	1.070569e-01	-4.060325e-02	-1.025150e-02	1.977389e-02	4.196945e-02	1.163039e-01	1.064287e-01	1.003920e-01	2.004958e-01	1.820258e-01	-1.586959e-01	-1.597751e-01	2.967261e-01	3.099300e-01	1.666066e-01	2.372379e-01	2.397336e-01	-3.043454e-02	-1.181875e-01	-9.770490e-02	-7.761795e-02	-6.042192e-02	-4.537851e-02	-1.263499e-02	9.584612e-03	3.455575e-02	6.149854e-02	9.034339e-02	1.204709e-01	1.499933e-01	1.749986e-01	2.376522e-01	2.382903e-01	2.383073e-01	2.416934e-01	2.407922e-01	1.410873e-01	1.154441e-01	1.793213e-01	1.518416e-01	1.206292e-01	9.459285e-02	9.629023e-02	8.771904e-02	5.540619e-02	1.864538e-02	-1.893114e-02	2.377345e-01	2.340703e-01	2.276174e-01	2.173480e-01	2.026330e-01	1.922380e-01	2.942987e-01	2.656764e-01	-1.539405e-01	-1.470676e-01	1.154639e-01	1.355058e-01	1.471339e-01	1.632970e-01	1.455967e-01	-1.772245e-01	-2.337426e-01	-2.292291e-01	-2.036267e-01	-4.515794e-03	-1.678005e-01	-2.533540e-01	-1.976682e-01	-2.457922e-01	-1.761076e-01	-2.118504e-01	-1.832640e-01	-1.419948e-01	-2.702799e-01	-3.115248e-01	-1.530008e-01	1.740742e-01	2.440412e-01	-1.888190e-01	3.497305e-02	-1.233180e-01	1.525910e-01	-1.071177e-01	-2.236941e-01	9.754510e-02	-9.594701e-03	1.262799e-01	1.021959e-01	-1.026791e-01	-1.198203e-01	-9.868631e-02	-7.346530e-02	-2.591082e-01	-1.575707e-01	-1.616905e-01	-1.510632e-01	2.249509e-01	1.715384e-01	1.479122e-01	5.732086e-02	-2.323567e-01	-2.425911e-01	-3.650427e-01	-8.434276e-02	-1.523313e-01	-2.487725e-01	-1.355050e-01	-2.401072e-01	-1.999533e-01	9.738068e-02	-2.991502e-01	7.545247e-02	9.971916e-02	-1.550519e-01	-3.174944e-01	-6.531138e-02	-1.504075e-01	1.613920e-01	-3.497864e-01	-2.440764e-01	2.902858e-02	-2.841352e-01	-2.659337e-01	2.107556e-01	-1.503432e-01	-1.488724e-01	1.908751e-01	2.289047e-01	1.496156e-01	-1.762073e-01	-2.088711e-01	6.814794e-02	4.826324e-02	2.307882e-02	7.791188e-03	-1.650205e-01	9.481397e-02	-2.703993e-02	-4.593174e-02	1.021623e-01	1.425968e-01	1.172992e-01	1.780981e-01	1.311133e-01	1.648087e-01	1.880854e-01	-4.489735e-02	1.193765e-01	1.091007e-01	1.970117e-01	1.913298e-01	1.363179e-01	-1.537086e-01	2.352750e-01	2.642608e-01	2.227549e-01	-1.214177e-01	-1.046819e-01	-3.928854e-02	-8.646839e-02	-6.926883e-02	-5.381019e-02	-2.355786e-02	-4.527257e-03	1.771627e-02	4.208684e-02	6.811810e-02	9.569387e-02	1.237645e-01	2.261339e-01	2.267120e-01	2.261553e-01	2.259300e-01	2.277940e-01	2.256503e-01	1.146522e-01	8.730516e-02	1.660666e-01	9.244999e-02	9.409219e-02	9.484797e-02	6.084570e-02	3.131779e-02	-2.658679e-03	-3.733727e-02	-7.165176e-02	2.177898e-01	2.120385e-01	2.037946e-01	1.918780e-01	1.758052e-01	2.8