# vtk DataFile Version 3.0
vtk output
ASCII
DATASET UNSTRUCTURED_GRID
POINTS 200 float
9.997500e-01	-3.633567e-05	0.0	9.990000e-01	-1.456766e-04	0.0	9.977600e-01	-3.297401e-04	0.0	9.960200e-01	-6.019186e-04	0.0	9.937800e-01	-9.900673e-04	0.0	9.910500e-01	-1.539445e-03	0.0	9.878400e-01	-2.307745e-03	0.0	9.841300e-01	-3.355756e-03	0.0	9.799500e-01	-4.699161e-03	0.0	9.752800e-01	-6.311306e-03	0.0	9.701500e-01	-8.084271e-03	0.0	9.645400e-01	-9.881396e-03	0.0	9.584700e-01	-1.154883e-02	0.0	9.519400e-01	-1.298353e-02	0.0	9.449600e-01	-1.415581e-02	0.0	9.375400e-01	-1.511474e-02	0.0	9.296900e-01	-1.596247e-02	0.0	9.214000e-01	-1.681743e-02	0.0	9.127000e-01	-1.777342e-02	0.0	9.035800e-01	-1.888736e-02	0.0	8.940600e-01	-2.016730e-02	0.0	8.841500e-01	-2.158492e-02	0.0	8.738500e-01	-2.309013e-02	0.0	8.631800e-01	-2.462129e-02	0.0	8.521600e-01	-2.611993e-02	0.0	8.407700e-01	-2.754343e-02	0.0	8.290500e-01	-2.885543e-02	0.0	8.170100e-01	-3.003839e-02	0.0	8.046400e-01	-3.108921e-02	0.0	7.919700e-01	-3.201116e-02	0.0	7.790100e-01	-3.281634e-02	0.0	7.657800e-01	-3.351995e-02	0.0	7.522800e-01	-3.413922e-02	0.0	7.385200e-01	-3.468963e-02	0.0	7.245300e-01	-3.518363e-02	0.0	7.103200e-01	-3.563158e-02	0.0	6.958900e-01	-3.604104e-02	0.0	6.812700e-01	-3.641611e-02	0.0	6.664700e-01	-3.675960e-02	0.0	6.515000e-01	-3.707317e-02	0.0	6.363800e-01	-3.735797e-02	0.0	6.211300e-01	-3.761552e-02	0.0	6.057600e-01	-3.784834e-02	0.0	5.902800e-01	-3.805997e-02	0.0	5.747100e-01	-3.825495e-02	0.0	5.590600e-01	-3.843888e-02	0.0	5.433600e-01	-3.861781e-02	0.0	5.276100e-01	-3.879840e-02	0.0	5.118400e-01	-3.898678e-02	0.0	4.960500e-01	-3.918882e-02	0.0	4.802700e-01	-3.940902e-02	0.0	4.645100e-01	-3.965078e-02	0.0	4.487800e-01	-3.991602e-02	0.0	4.331100e-01	-4.020458e-02	0.0	4.175000e-01	-4.051517e-02	0.0	4.019700e-01	-4.084447e-02	0.0	3.865400e-01	-4.118765e-02	0.0	3.712300e-01	-4.153854e-02	0.0	3.560400e-01	-4.189038e-02	0.0	3.409900e-01	-4.223513e-02	0.0	3.261100e-01	-4.256396e-02	0.0	3.114000e-01	-4.286844e-02	0.0	2.968700e-01	-4.313980e-02	0.0	2.825500e-01	-4.336903e-02	0.0	2.684500e-01	-4.354785e-02	0.0	2.545700e-01	-4.366840e-02	0.0	2.409400e-01	-4.372306e-02	0.0	2.275700e-01	-4.370505e-02	0.0	2.144700e-01	-4.360812e-02	0.0	2.016600e-01	-4.342679e-02	0.0	1.891400e-01	-4.315595e-02	0.0	1.769300e-01	-4.279142e-02	0.0	1.650400e-01	-4.232949e-02	0.0	1.534900e-01	-4.176757e-02	0.0	1.422900e-01	-4.110347e-02	0.0	1.314400e-01	-4.033490e-02	0.0	1.209500e-01	-3.946063e-02	0.0	1.108500e-01	-3.848222e-02	0.0	1.011300e-01	-3.739841e-02	0.0	9.181000e-02	-3.621167e-02	0.0	8.290000e-02	-3.492454e-02	0.0	7.440000e-02	-3.353888e-02	0.0	6.633000e-02	-3.206074e-02	0.0	5.869000e-02	-3.049388e-02	0.0	5.149000e-02	-2.884481e-02	0.0	4.474000e-02	-2.712128e-02	0.0	3.844000e-02	-2.532938e-02	0.0	3.260000e-02	-2.347856e-02	0.0	2.723000e-02	-2.157949e-02	0.0	2.232000e-02	-1.963571e-02	0.0	1.790000e-02	-1.766677e-02	0.0	1.395000e-02	-1.567090e-02	0.0	1.049000e-02	-1.366358e-02	0.0	7.520000e-03	-1.164962e-02	0.0	5.040000e-03	-9.629988e-03	0.0	3.050000e-03	-7.599013e-03	0.0	1.560000e-03	-5.554508e-03	0.0	5.600000e-04	-3.448955e-03	0.0	6.000000e-05	-1.209949e-03	0.0	0.000000e+00	0.000000e+00	0.0	6.000000e-05	1.165983e-03	0.0	5.600000e-04	3.217605e-03	0.0	1.560000e-03	5.046258e-03	0.0	3.050000e-03	6.742078e-03	0.0	5.040000e-03	8.361103e-03	0.0	7.520000e-03	9.917876e-03	0.0	1.049000e-02	1.142808e-02	0.0	1.395000e-02	1.290097e-02	0.0	1.790000e-02	1.434211e-02	0.0	2.232000e-02	1.574881e-02	0.0	2.723000e-02	1.713017e-02	0.0	3.260000e-02	1.847954e-02	0.0	3.844000e-02	1.980114e-02	0.0	4.474000e-02	2.109361e-02	0.0	5.149000e-02	2.235585e-02	0.0	5.869000e-02	2.358863e-02	0.0	6.633000e-02	2.479093e-02	0.0	7.440000e-02	2.596202e-02	0.0	8.290000e-02	2.710269e-02	0.0	9.181000e-02	2.821122e-02	0.0	1.011300e-01	2.928867e-02	0.0	1.108500e-01	3.033495e-02	0.0	1.209500e-01	3.134914e-02	0.0	1.314400e-01	3.233345e-02	0.0	1.422900e-01	3.328628e-02	0.0	1.534900e-01	3.420817e-02	0.0	1.650400e-01	3.510037e-02	0.0	1.769300e-01	3.596322e-02	0.0	1.891400e-01	3.679634e-02	0.0	2.016600e-01	3.760003e-02	0.0	2.144700e-01	3.837381e-02	0.0	2.275700e-01	3.911824e-02	0.0	2.409400e-01	3.983242e-02	0.0	2.545700e-01	4.051574e-02	0.0	2.684500e-01	4.116722e-02	0.0	2.825500e-01	4.178461e-02	0.0	2.968700e-01	4.236660e-02	0.0	3.114000e-01	4.291094e-02	0.0	3.261100e-01	4.341421e-02	0.0	3.409900e-01	4.387335e-02	0.0	3.560400e-01	4.428508e-02	0.0	3.712300e-01	4.464488e-02	0.0	3.865400e-01	4.494833e-02	0.0	4.019700e-01	4.519109e-02	0.0	4.175000e-01	4.536825e-02	0.0	4.331100e-01	4.547487e-02	0.0	4.487800e-01	4.550611e-02	0.0	4.645100e-01	4.545717e-02	0.0	4.802700e-01	4.532340e-02	0.0	4.960500e-01	4.510033e-02	0.0	5.118400e-01	4.478361e-02	0.0	5.276100e-01	4.436963e-02	0.0	5.433600e-01	4.385449e-02	0.0	5.590600e-01	4.323560e-02	0.0	5.747100e-01	4.250994e-02	0.0	5.902800e-01	4.167656e-02	0.0	6.057600e-01	4.073476e-02	0.0	6.211300e-01	3.968577e-02	0.0	6.363800e-01	3.853194e-02	0.0	6.515000e-01	3.727756e-02	0.0	6.664700e-01	3.593003e-02	0.0	6.812700e-01	3.449944e-02	0.0	6.958900e-01	3.299739e-02	0.0	7.103200e-01	3.143751e-02	0.0	7.245300e-01	2.983719e-02	0.0	7.385200e-01	2.821115e-02	0.0	7.522800e-01	2.657470e-02	0.0	7.657800e-01	2.494392e-02	0.0	7.790100e-01	2.332979e-02	0.0	7.919700e-01	2.173853e-02	0.0	8.046400e-01	2.017491e-02	0.0	8.170100e-01	1.863872e-02	0.0	8.290500e-01	1.712919e-02	0.0	8.407700e-01	1.563835e-02	0.0	8.521600e-01	1.415936e-02	0.0	8.631800e-01	1.268876e-02	0.0	8.738500e-01	1.121509e-02	0.0	8.841500e-01	9.732896e-03	0.0	8.940600e-01	8.239748e-03	0.0	9.035800e-01	6.737241e-03	0.0	9.127000e-01	5.241907e-03	0.0	9.214000e-01	3.792827e-03	0.0	9.296900e-01	2.449338e-03	0.0	9.375400e-01	1.298592e-03	0.0	9.449600e-01	4.270248e-04	0.0	9.519400e-01	-9.663583e-05	0.0	9.584700e-01	-2.543264e-04	0.0	9.645400e-01	-9.682023e-05	0.0	9.701500e-01	2.627950e-04	0.0	9.752800e-01	6.783850e-04	0.0	9.799500e-01	1.018743e-03	0.0	9.841300e-01	1.197864e-03	0.0	9.878400e-01	1.196092e-03	0.0	9.910500e-01	1.046808e-03	0.0	9.937800e-01	8.108982e-04	0.0	9.960200e-01	5.521544e-04	0.0	9.977600e-01	3.205025e-04	0.0	9.990000e-01	1.448331e-04	0.0	9.997500e-01	3.632230e-05	0.0	1.000000e+00	0.000000e+00	0.0	
CELLS 200	600
2	199	0	2	0	1	2	1	2	2	2	3	2	3	4	2	4	5	2	5	6	2	6	7	2	7	8	2	8	9	2	9	10	2	10	11	2	11	12	2	12	13	2	13	14	2	14	15	2	15	16	2	16	17	2	17	18	2	18	19	2	19	20	2	20	21	2	21	22	2	22	23	2	23	24	2	24	25	2	25	26	2	26	27	2	27	28	2	28	29	2	29	30	2	30	31	2	31	32	2	32	33	2	33	34	2	34	35	2	35	36	2	36	37	2	37	38	2	38	39	2	39	40	2	40	41	2	41	42	2	42	43	2	43	44	2	44	45	2	45	46	2	46	47	2	47	48	2	48	49	2	49	50	2	50	51	2	51	52	2	52	53	2	53	54	2	54	55	2	55	56	2	56	57	2	57	58	2	58	59	2	59	60	2	60	61	2	61	62	2	62	63	2	63	64	2	64	65	2	65	66	2	66	67	2	67	68	2	68	69	2	69	70	2	70	71	2	71	72	2	72	73	2	73	74	2	74	75	2	75	76	2	76	77	2	77	78	2	78	79	2	79	80	2	80	81	2	81	82	2	82	83	2	83	84	2	84	85	2	85	86	2	86	87	2	87	88	2	88	89	2	89	90	2	90	91	2	91	92	2	92	93	2	93	94	2	94	95	2	95	96	2	96	97	2	97	98	2	98	99	2	99	100	2	100	101	2	101	102	2	102	103	2	103	104	2	104	105	2	105	106	2	106	107	2	107	108	2	108	109	2	109	110	2	110	111	2	111	112	2	112	113	2	113	114	2	114	115	2	115	116	2	116	117	2	117	118	2	118	119	2	119	120	2	120	121	2	121	122	2	122	123	2	123	124	2	124	125	2	125	126	2	126	127	2	127	128	2	128	129	2	129	130	2	130	131	2	131	132	2	132	133	2	133	134	2	134	135	2	135	136	2	136	137	2	137	138	2	138	139	2	139	140	2	140	141	2	141	142	2	142	143	2	143	144	2	144	145	2	145	146	2	146	147	2	147	148	2	148	149	2	149	150	2	150	151	2	151	152	2	152	153	2	153	154	2	154	155	2	155	156	2	156	157	2	157	158	2	158	159	2	159	160	2	160	161	2	161	162	2	162	163	2	163	164	2	164	165	2	165	166	2	166	167	2	167	168	2	168	169	2	169	170	2	170	171	2	171	172	2	172	173	2	173	174	2	174	175	2	175	176	2	176	177	2	177	178	2	178	179	2	179	180	2	180	181	2	181	182	2	182	183	2	183	184	2	184	185	2	185	186	2	186	187	2	187	188	2	188	189	2	189	190	2	190	191	2	191	192	2	192	193	2	193	194	2	194	195	2	195	196	2	196	197	2	197	198	2	198	199	
CELL_TYPES 200
3	3	3	3	3	3	3	3	3	3	3	3	3	3	3	3	3	3	3	3	3	3	3	3	3	3	3	3	3	3	3	3	3	3	3	3	3	3	3	3	3	3	3	3	3	3	3	3	3	3	3	3	3	3	3	3	3	3	3	3	3	3	3	3	3	3	3	3	3	3	3	3	3	3	3	3	3	3	3	3	3	3	3	3	3	3	3	3	3	3	3	3	3	3	3	3	3	3	3	3	3	3	3	3	3	3	3	3	3	3	3	3	3	3	3	3	3	3	3	3	3	3	3	3	3	3	3	3	3	3	3	3	3	3	3	3	3	3	3	3	3	3	3	3	3	3	3	3	3	3	3	3	3	3	3	3	3	3	3	3	3	3	3	3	3	3	3	3	3	3	3	3	3	3	3	3	3	3	3	3	3	3	3	3	3	3	3	3	3	3	3	3	3	3	3	3	3	3	3	3	
POINT_DATA 200

SCALARS Conservative_1 float 1
LOOKUP_TABLE default
-2.162091e-01	-2.346739e-01	-2.346046e-01	-2.357321e-01	-2.379297e-01	-2.360862e-01	-2.263786e-01	-2.046846e-01	-1.670003e-01	-1.098727e-01	-3.250462e-02	6.137310e-02	1.582442e-01	2.259771e-01	2.273403e-01	1.674392e-01	9.665371e-02	5.076916e-02	3.083612e-02	2.915987e-02	4.195340e-02	6.678549e-02	1.005942e-01	1.401204e-01	1.822366e-01	2.247833e-01	2.662671e-01	3.029590e-01	3.273370e-01	3.311313e-01	3.128435e-01	2.816227e-01	2.503533e-01	2.261948e-01	2.090874e-01	1.960074e-01	1.847016e-01	1.745565e-01	1.655290e-01	1.574055e-01	1.497202e-01	1.421618e-01	1.346000e-01	1.270968e-01	1.197520e-01	1.127442e-01	1.062589e-01	1.004940e-01	9.564107e-02	9.186978e-02	8.932473e-02	8.810214e-02	8.826171e-02	8.983085e-02	9.284548e-02	9.728164e-02	1.031401e-01	1.103619e-01	1.189207e-01	1.287468e-01	1.398146e-01	1.520253e-01	1.653516e-01	1.797120e-01	1.950859e-01	2.113317e-01	2.282793e-01	2.455919e-01	2.632490e-01	2.816289e-01	3.017337e-01	3.240934e-01	3.474390e-01	3.671899e-01	3.760851e-01	3.687269e-01	3.463424e-01	3.167142e-01	2.881275e-01	2.636313e-01	2.406203e-01	2.153084e-01	1.865095e-01	1.551726e-01	1.221480e-01	8.749803e-02	5.095475e-02	1.254109e-02	-2.787800e-02	-7.036349e-02	-1.153381e-01	-1.630398e-01	-2.144928e-01	-2.693420e-01	-3.289821e-01	-3.896993e-01	-4.441129e-01	-4.855737e-01	-5.038320e-01	-4.829274e-01	-4.387728e-01	-3.401284e-01	-1.839395e-01	-3.238070e-02	8.737498e-02	1.727053e-01	2.288362e-01	2.658846e-01	2.908305e-01	3.080219e-01	3.201472e-01	3.288742e-01	3.358857e-01	3.422220e-01	3.480128e-01	3.527851e-01	3.555886e-01	3.554930e-01	3.522010e-01	3.462672e-01	3.388002e-01	3.307179e-01	3.225240e-01	3.145091e-01	3.069065e-01	2.999951e-01	2.939472e-01	2.887583e-01	2.843319e-01	2.805730e-01	2.775297e-01	2.753120e-01	2.739193e-01	2.731381e-01	2.723997e-01	2.711984e-01	2.696944e-01	2.695841e-01	2.738148e-01	2.852637e-01	3.047432e-01	3.300002e-01	3.558786e-01	3.759298e-01	3.848033e-01	3.804935e-01	3.653969e-01	3.451570e-01	3.255467e-01	3.095387e-01	2.967943e-01	2.856987e-01	2.748253e-01	2.632710e-01	2.503083e-01	2.353044e-01	2.182276e-01	1.994923e-01	1.796691e-01	1.591083e-01	1.381548e-01	1.170642e-01	9.618097e-02	7.587097e-02	5.647320e-02	3.829192e-02	2.156850e-02	6.468160e-03	-6.981252e-03	-1.888273e-02	-2.947912e-02	-3.909506e-02	-4.812964e-02	-5.700793e-02	-6.624609e-02	-7.620417e-02	-8.757000e-02	-1.009776e-01	-1.171870e-01	-1.367491e-01	-1.596317e-01	-1.847818e-01	-2.101115e-01	-2.326764e-01	-2.494445e-01	-2.576306e-01	-2.550000e-01	-2.399932e-01	-2.123512e-01	-1.742497e-01	-1.328855e-01	-1.018929e-01	-9.396894e-02	-1.109474e-01	-1.441566e-01	-1.831926e-01	-2.189482e-01	-2.514667e-01	-3.312993e-01	-2.853798e-01	
SCALARS Conservative_2 float 1
LOOKUP_TABLE default
1.986600e-01	2.679791e-01	2.879552e-01	3.003542e-01	3.114327e-01	3.158927e-01	3.091573e-01	2.856502e-01	2.403056e-01	1.692905e-01	7.300247e-02	-4.127187e-02	-1.562597e-01	-2.385850e-01	-2.491991e-01	-1.894314e-01	-1.120201e-01	-5.930859e-02	-3.484929e-02	-3.096878e-02	-4.386815e-02	-7.077383e-02	-1.079300e-01	-1.513242e-01	-1.971948e-01	-2.428694e-01	-2.866055e-01	-3.248137e-01	-3.503336e-01	-3.551049e-01	-3.374479e-01	-3.062723e-01	-2.745778e-01	-2.498440e-01	-2.321578e-01	-2.185123e-01	-2.066187e-01	-1.958833e-01	-1.862797e-01	-1.775995e-01	-1.693482e-01	-1.611982e-01	-1.530055e-01	-1.448411e-01	-1.368107e-01	-1.291160e-01	-1.219608e-01	-1.155761e-01	-1.101758e-01	-1.059599e-01	-1.030945e-01	-1.016958e-01	-1.018317e-01	-1.035362e-01	-1.068428e-01	-1.117227e-01	-1.181633e-01	-1.260902e-01	-1.354552e-01	-1.461678e-01	-1.581748e-01	-1.713540e-01	-1.856443e-01	-2.009407e-01	-2.171847e-01	-2.342135e-01	-2.518208e-01	-2.696523e-01	-2.876364e-01	-3.061176e-01	-3.260072e-01	-3.477890e-01	-3.701852e-01	-3.887677e-01	-3.965050e-01	-3.881108e-01	-3.646901e-01	-3.336909e-01	-3.031258e-01	-2.759420e-01	-2.495206e-01	-2.199981e-01	-1.860092e-01	-1.483126e-01	-1.075847e-01	-6.366484e-02	-1.600556e-02	3.570500e-02	9.205373e-02	1.536825e-01	2.218372e-01	2.977173e-01	3.841481e-01	4.820548e-01	5.954452e-01	7.202648e-01	8.495626e-01	9.546691e-01	1.000463e+00	9.918923e-01	9.317471e-01	7.836182e-01	5.218380e-01	2.816785e-01	9.041828e-02	-4.468353e-02	-1.356661e-01	-1.976951e-01	-2.407016e-01	-2.712546e-01	-2.934822e-01	-3.099703e-01	-3.230344e-01	-3.341286e-01	-3.437110e-01	-3.515617e-01	-3.569361e-01	-3.590516e-01	-3.576898e-01	-3.534454e-01	-3.474297e-01	-3.405784e-01	-3.334187e-01	-3.262651e-01	-3.193739e-01	-3.130454e-01	-3.074762e-01	-3.026872e-01	-2.985964e-01	-2.951247e-01	-2.923318e-01	-2.903331e-01	-2.891416e-01	-2.885428e-01	-2.879787e-01	-2.869390e-01	-2.855935e-01	-2.856416e-01	-2.900425e-01	-3.016631e-01	-3.212916e-01	-3.466402e-01	-3.725371e-01	-3.925719e-01	-4.014579e-01	-3.972667e-01	-3.824152e-01	-3.624945e-01	-3.431817e-01	-3.273530e-01	-3.146457e-01	-3.034310e-01	-2.922792e-01	-2.802551e-01	-2.666233e-01	-2.507450e-01	-2.325795e-01	-2.125349e-01	-1.911407e-01	-1.687609e-01	-1.457173e-01	-1.223112e-01	-9.891117e-02	-7.595347e-02	-5.382804e-02	-3.292260e-02	-1.353398e-02	4.105413e-03	1.994720e-02	3.408579e-02	4.680456e-02	5.848341e-02	6.961063e-02	8.071872e-02	9.243033e-02	1.052581e-01	1.200685e-01	1.377374e-01	1.592989e-01	1.855480e-01	2.165023e-01	2.508118e-01	2.856280e-01	3.167995e-01	3.398757e-01	3.506920e-01	3.459601e-01	3.236207e-01	2.838389e-01	2.304840e-01	1.743062e-01	1.336981e-01	1.242353e-01	1.473953e-01	1.920758e-01	2.451547e-01	2.930082e-01	3.336041e-01	4.414265e-01	2.751772e-01	
SCALARS Conservative_3 float 1
LOOKUP_TABLE default
-1.112835e-01	-9.559581e-02	-9.345724e-02	-9.738965e-02	-1.097461e-01	-1.309947e-01	-1.604714e-01	-1.959484e-01	-2.336649e-01	-2.677771e-01	-2.903747e-01	-2.929768e-01	-2.686629e-01	-2.183555e-01	-1.595713e-01	-1.161679e-01	-9.586259e-02	-9.229895e-02	-9.907538e-02	-1.111522e-01	-1.238764e-01	-1.340025e-01	-1.396611e-01	-1.400779e-01	-1.353466e-01	-1.263197e-01	-1.140092e-01	-9.925418e-02	-8.321224e-02	-6.755374e-02	-5.380682e-02	-4.252129e-02	-3.330305e-02	-2.571394e-02	-1.955131e-02	-1.468334e-02	-1.075433e-02	-7.414701e-03	-4.392356e-03	-1.612911e-03	9.498865e-04	3.239621e-03	5.229172e-03	6.838241e-03	8.030223e-03	8.746076e-03	8.979741e-03	8.733349e-03	8.046929e-03	6.978219e-03	5.605465e-03	4.017442e-03	2.313849e-03	6.045193e-04	-1.011889e-03	-2.419347e-03	-3.526283e-03	-4.228696e-03	-4.448257e-03	-4.090438e-03	-3.094851e-03	-1.380584e-03	1.104217e-03	4.422555e-03	8.624562e-03	1.378840e-02	1.995958e-02	2.718206e-02	3.543034e-02	4.476845e-02	5.535831e-02	6.752430e-02	8.152236e-02	9.715776e-02	1.136166e-01	1.297699e-01	1.451059e-01	1.603051e-01	1.765374e-01	1.944043e-01	2.133863e-01	2.325227e-01	2.514303e-01	2.702308e-01	2.890343e-01	3.076694e-01	3.258481e-01	3.433330e-01	3.598481e-01	3.749722e-01	3.880857e-01	3.978431e-01	4.023655e-01	3.977208e-01	3.772302e-01	3.302414e-01	2.391829e-01	1.060094e-01	-4.474561e-02	-1.456093e-01	-2.540746e-01	-4.500828e-01	-6.015060e-01	-6.376992e-01	-6.110349e-01	-5.588778e-01	-5.008124e-01	-4.463075e-01	-3.983095e-01	-3.566471e-01	-3.206499e-01	-2.894457e-01	-2.623603e-01	-2.388136e-01	-2.181640e-01	-1.997947e-01	-1.831569e-01	-1.678187e-01	-1.535826e-01	-1.404088e-01	-1.283563e-01	-1.174142e-01	-1.074792e-01	-9.844749e-02	-9.023265e-02	-8.276998e-02	-7.598853e-02	-6.978602e-02	-6.407116e-02	-5.877631e-02	-5.384007e-02	-4.922638e-02	-4.488411e-02	-4.074057e-02	-3.668980e-02	-3.257425e-02	-2.831382e-02	-2.393357e-02	-1.960127e-02	-1.544620e-02	-1.147202e-02	-7.467942e-03	-3.123564e-03	1.920003e-03	7.882502e-03	1.473064e-02	2.215211e-02	2.975572e-02	3.727551e-02	4.477964e-02	5.244081e-02	6.033197e-02	6.838951e-02	7.659211e-02	8.489635e-02	9.319055e-02	1.013104e-01	1.090826e-01	1.163638e-01	1.230050e-01	1.288828e-01	1.338709e-01	1.378338e-01	1.407425e-01	1.425760e-01	1.434375e-01	1.434490e-01	1.428503e-01	1.418646e-01	1.407889e-01	1.398529e-01	1.393040e-01	1.392886e-01	1.399268e-01	1.412297e-01	1.432549e-01	1.458580e-01	1.488323e-01	1.516175e-01	1.531383e-01	1.517673e-01	1.455736e-01	1.328931e-01	1.129688e-01	8.635877e-02	5.497697e-02	2.200909e-02	-8.170616e-03	-3.006589e-02	-3.778215e-02	-2.671753e-02	2.987565e-03	4.266118e-02	7.981481e-02	1.061104e-01	1.205349e-01	1.265188e-01	1.384939e-01	1.359495e-01	-1.539441e-01	
SCALARS Conservative_4 float 1
LOOKUP_TABLE default
-3.937571e-02	-5.477943e-02	-5.657947e-02	-5.769453e-02	-5.877810e-02	-5.863707e-02	-5.639657e-02	-5.104933e-02	-4.163275e-02	-2.727230e-02	-7.710840e-03	1.612714e-02	4.080537e-02	5.813099e-02	5.851834e-02	4.299357e-02	2.467076e-02	1.296755e-02	7.903285e-03	7.422720e-03	1.063354e-02	1.692885e-02	2.553002e-02	3.557750e-02	4.628349e-02	5.708051e-02	6.753826e-02	7.669444e-02	8.263623e-02	8.337605e-02	7.867493e-02	7.085473e-02	6.306970e-02	5.707338e-02	5.279494e-02	4.950307e-02	4.664958e-02	4.409373e-02	4.182143e-02	3.977573e-02	3.784028e-02	3.593586e-02	3.403181e-02	3.214286e-02	3.029473e-02	2.853224e-02	2.690007e-02	2.545269e-02	2.423375e-02	2.328952e-02	2.265169e-02	2.234887e-02	2.239438e-02	2.279873e-02	2.356539e-02	2.469639e-02	2.618283e-02	2.801839e-02	3.018799e-02	3.268307e-02	3.548657e-02	3.858630e-02	4.196046e-02	4.560406e-02	4.949448e-02	5.361267e-02	5.789570e-02	6.228539e-02	6.675707e-02	7.143902e-02	7.654248e-02	8.220490e-02	8.803861e-02	9.287240e-02	9.492578e-02	9.291931e-02	8.724934e-02	7.983293e-02	7.268935e-02	6.653415e-02	6.071316e-02	5.430368e-02	4.703015e-02	3.913297e-02	3.083255e-02	2.212910e-02	1.297533e-02	3.372130e-03	-6.686364e-03	-1.724484e-02	-2.828444e-02	-3.999113e-02	-5.230937e-02	-6.539916e-02	-7.897830e-02	-9.254514e-02	-1.051218e-01	-1.114334e-01	-1.090216e-01	-1.061903e-01	-1.001887e-01	-7.249374e-02	-3.418004e-02	-3.774898e-04	2.638317e-02	4.536772e-02	5.830220e-02	6.704803e-02	7.314428e-02	7.736513e-02	8.042296e-02	8.262657e-02	8.441109e-02	8.602166e-02	8.749775e-02	8.872031e-02	8.946227e-02	8.948566e-02	8.870334e-02	8.725169e-02	8.539609e-02	8.337559e-02	8.131810e-02	7.929927e-02	7.738057e-02	7.563266e-02	7.410276e-02	7.279401e-02	7.167385e-02	7.072289e-02	6.995299e-02	6.938575e-02	6.903176e-02	6.882866e-02	6.865380e-02	6.836836e-02	6.801983e-02	6.800786e-02	6.906434e-02	7.189524e-02	7.671837e-02	8.299083e-02	8.944961e-02	9.451370e-02	9.682686e-02	9.586577e-02	9.218070e-02	8.714641e-02	8.221028e-02	7.813023e-02	7.487603e-02	7.203506e-02	6.925724e-02	6.632111e-02	6.303407e-02	5.926021e-02	5.496731e-02	5.025420e-02	4.524025e-02	4.005197e-02	3.474788e-02	2.941577e-02	2.412606e-02	1.898569e-02	1.406952e-02	9.466235e-03	5.228231e-03	1.408095e-03	-1.999686e-03	-5.011744e-03	-7.694418e-03	-1.012472e-02	-1.240027e-02	-1.464486e-02	-1.694833e-02	-1.945994e-02	-2.231021e-02	-2.568761e-02	-2.978276e-02	-3.475823e-02	-4.059274e-02	-4.702234e-02	-5.347831e-02	-5.921953e-02	-6.346765e-02	-6.552979e-02	-6.483184e-02	-6.096630e-02	-5.385305e-02	-4.403695e-02	-3.345862e-02	-2.582232e-02	-2.423367e-02	-2.891116e-02	-3.745263e-02	-4.766497e-02	-5.670815e-02	-6.513561e-02	-1.024119e-01	-7.625293e-02	
SCALARS Surface_Sensitivity float 1
LOOKUP_TABLE default
-3.389452e+02	4.828896e+01	2.323806e+00	1.880946e+00	1.890093e+00	1.386232e+00	1.207755e+00	1.182250e+00	1.031220e+00	8.852792e-01	2.418220e+00	2.991247e+00	-2.577665e+00	-6.832024e+00	-2.606415e+00	2.386198e+00	2.486466e+00	7.734928e-01	1.156359e-01	1.694974e-01	1.775085e-01	3.099293e-02	-1.214124e-01	1.129323e-01	9.344008e-01	1.303309e+00	8.351667e-02	-1.768079e+00	-2.374896e+00	-1.265157e+00	3.466071e-01	1.118919e+00	8.863335e-01	3.314978e-01	-1.052335e-03	-3.998398e-02	2.703417e-02	5.455436e-02	3.691830e-02	1.386868e-02	8.236289e-03	1.022020e-02	1.359761e-02	1.449034e-02	1.654228e-02	1.782672e-02	1.894177e-02	1.816408e-02	1.619442e-02	1.291253e-02	1.022070e-02	7.714278e-03	6.374281e-03	5.482815e-03	4.892138e-03	5.731540e-03	7.285705e-03	9.414846e-03	8.865331e-03	5.126341e-03	7.014068e-04	9.975792e-03	3.663633e-02	5.485434e-02	1.192567e-03	-1.110507e-01	-1.121362e-01	2.509274e-01	9.517313e-01	1.379309e+00	7.449533e-01	-8.542999e-01	-2.386860e+00	-2.732738e+00	-1.571877e+00	3.295159e-01	1.683515e+00	1.745361e+00	8.358926e-01	-1.028129e-01	-4.122462e-01	-2.023221e-01	4.247914e-02	1.059074e-01	7.206918e-02	7.723349e-02	1.444306e-01	2.258492e-01	3.407747e-01	5.571748e-01	9.006130e-01	1.463707e+00	2.535558e+00	4.142622e+00	6.121819e+00	8.287604e+00	6.540279e+00	1.698252e+01	1.139525e+01	-1.006776e+01	4.047227e+01	4.471047e+01	2.957720e+01	1.800298e+01	7.310889e+00	3.709465e+00	2.397405e+00	1.313968e+00	5.462814e-01	7.928662e-02	-1.337686e-01	-1.193832e-01	9.024742e-02	3.344855e-01	5.108428e-01	4.826788e-01	1.789190e-01	-2.750316e-01	-6.413555e-01	-7.183308e-01	-5.012648e-01	-1.714447e-01	8.441797e-02	2.040390e-01	2.339827e-01	2.245586e-01	1.742263e-01	8.902402e-02	7.819725e-03	-3.028248e-02	-2.497404e-02	-5.426141e-03	-1.162456e-02	-7.949708e-02	-2.217163e-01	-3.875304e-01	-4.360374e-01	-2.002512e-01	3.864037e-01	1.181550e+00	1.874737e+00	2.127816e+00	1.728626e+00	6.854790e-01	-7.518287e-01	-2.152915e+00	-3.060511e+00	-3.182950e+00	-2.493544e+00	-1.180954e+00	4.162779e-01	1.744836e+00	2.124525e+00	1.436151e+00	4.025812e-01	-2.577074e-01	-3.840963e-01	-1.969133e-01	-1.598334e-03	5.923313e-02	2.856692e-02	-1.819820e-05	-1.818672e-03	1.469313e-03	-3.139223e-04	-2.244892e-03	-8.775251e-05	3.317208e-03	8.573632e-03	9.713930e-03	9.027589e-03	6.458658e-03	8.305298e-04	-4.587708e-03	-6.461673e-03	-1.641693e-02	-3.252591e-02	-6.725638e-02	-1.195387e-01	-1.810137e-01	-2.310628e-01	-2.561094e-01	-2.322992e-01	-1.588911e-01	-4.194111e-02	1.075376e-01	2.943805e-01	5.018407e-01	7.357267e-01	9.340033e-01	3.913085e-01	-1.402861e+00	-3.042990e+00	-3.170641e+00	-3.379441e+00	-3.734476e+00	-7.310097e+00	-1.387456e+02	1.676553e+02	4.334142e+02	