# vtk DataFile Version 3.0
vtk output
ASCII
DATASET UNSTRUCTURED_GRID
POINTS 5233 float
9.997500e-01	-3.633649e-05	0.0	9.990000e-01	-1.457284e-04	0.0	9.977600e-01	-3.303069e-04	0.0	9.960200e-01	-6.049666e-04	0.0	9.937800e-01	-1.001011e-03	0.0	9.910500e-01	-1.569411e-03	0.0	9.878400e-01	-2.374971e-03	0.0	9.841300e-01	-3.485179e-03	0.0	9.799500e-01	-4.917382e-03	0.0	9.752800e-01	-6.640016e-03	0.0	9.701500e-01	-8.530761e-03	0.0	9.645400e-01	-1.043384e-02	0.0	9.584700e-01	-1.217506e-02	0.0	9.519400e-01	-1.363738e-02	0.0	9.449600e-01	-1.478717e-02	0.0	9.375400e-01	-1.568026e-02	0.0	9.296900e-01	-1.643302e-02	0.0	9.214000e-01	-1.718043e-02	0.0	9.127000e-01	-1.803144e-02	0.0	9.035800e-01	-1.905286e-02	0.0	8.940600e-01	-2.025750e-02	0.0	8.841500e-01	-2.161686e-02	0.0	8.738500e-01	-2.307749e-02	0.0	8.631800e-01	-2.457281e-02	0.0	8.521600e-01	-2.603916e-02	0.0	8.407700e-01	-2.742920e-02	0.0	8.290500e-01	-2.870308e-02	0.0	8.170100e-01	-2.984093e-02	0.0	8.046400e-01	-3.083841e-02	0.0	7.919700e-01	-3.169870e-02	0.0	7.790100e-01	-3.243456e-02	0.0	7.657800e-01	-3.306248e-02	0.0	7.522800e-01	-3.360126e-02	0.0	7.385200e-01	-3.406827e-02	0.0	7.245300e-01	-3.447805e-02	0.0	7.103200e-01	-3.484292e-02	0.0	6.958900e-01	-3.517227e-02	0.0	6.812700e-01	-3.547204e-02	0.0	6.664700e-01	-3.574659e-02	0.0	6.515000e-01	-3.599894e-02	0.0	6.363800e-01	-3.623137e-02	0.0	6.211300e-01	-3.644632e-02	0.0	6.057600e-01	-3.664696e-02	0.0	5.902800e-01	-3.683726e-02	0.0	5.747100e-01	-3.702198e-02	0.0	5.590600e-01	-3.720674e-02	0.0	5.433600e-01	-3.739739e-02	0.0	5.276100e-01	-3.760023e-02	0.0	5.118400e-01	-3.782085e-02	0.0	4.960500e-01	-3.806446e-02	0.0	4.802700e-01	-3.833473e-02	0.0	4.645100e-01	-3.863417e-02	0.0	4.487800e-01	-3.896367e-02	0.0	4.331100e-01	-3.932198e-02	0.0	4.175000e-01	-3.970669e-02	0.0	4.019700e-01	-4.011331e-02	0.0	3.865400e-01	-4.053578e-02	0.0	3.712300e-01	-4.096671e-02	0.0	3.560400e-01	-4.139822e-02	0.0	3.409900e-01	-4.182108e-02	0.0	3.261100e-01	-4.222529e-02	0.0	3.114000e-01	-4.260143e-02	0.0	2.968700e-01	-4.293978e-02	0.0	2.825500e-01	-4.323038e-02	0.0	2.684500e-01	-4.346416e-02	0.0	2.545700e-01	-4.363267e-02	0.0	2.409400e-01	-4.372764e-02	0.0	2.275700e-01	-4.374189e-02	0.0	2.144700e-01	-4.366887e-02	0.0	2.016600e-01	-4.350294e-02	0.0	1.891400e-01	-4.323897e-02	0.0	1.769300e-01	-4.287289e-02	0.0	1.650400e-01	-4.240125e-02	0.0	1.534900e-01	-4.182187e-02	0.0	1.422900e-01	-4.113311e-02	0.0	1.314400e-01	-4.033329e-02	0.0	1.209500e-01	-3.942199e-02	0.0	1.108500e-01	-3.840173e-02	0.0	1.011300e-01	-3.727220e-02	0.0	9.181000e-02	-3.603702e-02	0.0	8.290000e-02	-3.469995e-02	0.0	7.440000e-02	-3.326408e-02	0.0	6.633000e-02	-3.173687e-02	0.0	5.869000e-02	-3.012342e-02	0.0	5.149000e-02	-2.843165e-02	0.0	4.474000e-02	-2.667077e-02	0.0	3.844000e-02	-2.484824e-02	0.0	3.260000e-02	-2.297490e-02	0.0	2.723000e-02	-2.106274e-02	0.0	2.232000e-02	-1.911647e-02	0.0	1.790000e-02	-1.715671e-02	0.0	1.395000e-02	-1.518259e-02	0.0	1.049000e-02	-1.321009e-02	0.0	7.520000e-03	-1.124417e-02	0.0	5.040000e-03	-9.285457e-03	0.0	3.050000e-03	-7.327192e-03	0.0	1.560000e-03	-5.364301e-03	0.0	5.600000e-04	-3.345014e-03	0.0	6.000000e-05	-1.185422e-03	0.0	0.000000e+00	0.000000e+00	0.0	6.000000e-05	1.143830e-03	0.0	5.600000e-04	3.132142e-03	0.0	1.560000e-03	4.904265e-03	0.0	3.050000e-03	6.560811e-03	0.0	5.040000e-03	8.161668e-03	0.0	7.520000e-03	9.723253e-03	0.0	1.049000e-02	1.126154e-02	0.0	1.395000e-02	1.278528e-02	0.0	1.790000e-02	1.429896e-02	0.0	2.232000e-02	1.579794e-02	0.0	2.723000e-02	1.728988e-02	0.0	3.260000e-02	1.876537e-02	0.0	3.844000e-02	2.022659e-02	0.0	4.474000e-02	2.166957e-02	0.0	5.149000e-02	2.309050e-02	0.0	5.869000e-02	2.448771e-02	0.0	6.633000e-02	2.585742e-02	0.0	7.440000e-02	2.719625e-02	0.0	8.290000e-02	2.850257e-02	0.0	9.181000e-02	2.977193e-02	0.0	1.011300e-01	3.100320e-02	0.0	1.108500e-01	3.219400e-02	0.0	1.209500e-01	3.334120e-02	0.0	1.314400e-01	3.444534e-02	0.0	1.422900e-01	3.550292e-02	0.0	1.534900e-01	3.651302e-02	0.0	1.650400e-01	3.747574e-02	0.0	1.769300e-01	3.839045e-02	0.0	1.891400e-01	3.925599e-02	0.0	2.016600e-01	4.007223e-02	0.0	2.144700e-01	4.083854e-02	0.0	2.275700e-01	4.155560e-02	0.0	2.409400e-01	4.222293e-02	0.0	2.545700e-01	4.284059e-02	0.0	2.684500e-01	4.340851e-02	0.0	2.825500e-01	4.392575e-02	0.0	2.968700e-01	4.439237e-02	0.0	3.114000e-01	4.480770e-02	0.0	3.261100e-01	4.517033e-02	0.0	3.409900e-01	4.547916e-02	0.0	3.560400e-01	4.573288e-02	0.0	3.712300e-01	4.592937e-02	0.0	3.865400e-01	4.606652e-02	0.0	4.019700e-01	4.614215e-02	0.0	4.175000e-01	4.615367e-02	0.0	4.331100e-01	4.609839e-02	0.0	4.487800e-01	4.597361e-02	0.0	4.645100e-01	4.577635e-02	0.0	4.802700e-01	4.550388e-02	0.0	4.960500e-01	4.515323e-02	0.0	5.118400e-01	4.472136e-02	0.0	5.276100e-01	4.420583e-02	0.0	5.433600e-01	4.360341e-02	0.0	5.590600e-01	4.291212e-02	0.0	5.747100e-01	4.212905e-02	0.0	5.902800e-01	4.125326e-02	0.0	6.057600e-01	4.028365e-02	0.0	6.211300e-01	3.922085e-02	0.0	6.363800e-01	3.806633e-02	0.0	6.515000e-01	3.682332e-02	0.0	6.664700e-01	3.549801e-02	0.0	6.812700e-01	3.409909e-02	0.0	6.958900e-01	3.263672e-02	0.0	7.103200e-01	3.112303e-02	0.0	7.245300e-01	2.957381e-02	0.0	7.385200e-01	2.800233e-02	0.0	7.522800e-01	2.642244e-02	0.0	7.657800e-01	2.484878e-02	0.0	7.790100e-01	2.329104e-02	0.0	7.919700e-01	2.175427e-02	0.0	8.046400e-01	2.024210e-02	0.0	8.170100e-01	1.875325e-02	0.0	8.290500e-01	1.728585e-02	0.0	8.407700e-01	1.583099e-02	0.0	8.521600e-01	1.438080e-02	0.0	8.631800e-01	1.293076e-02	0.0	8.738500e-01	1.146857e-02	0.0	8.841500e-01	9.988029e-03	0.0	8.940600e-01	8.486366e-03	0.0	9.035800e-01	6.965414e-03	0.0	9.127000e-01	5.442722e-03	0.0	9.214000e-01	3.959356e-03	0.0	9.296900e-01	2.577433e-03	0.0	9.375400e-01	1.387724e-03	0.0	9.449600e-01	4.802697e-04	0.0	9.519400e-01	-7.299517e-05	0.0	9.584700e-01	-2.519717e-04	0.0	9.645400e-01	-1.070039e-04	0.0	9.701500e-01	2.476615e-04	0.0	9.752800e-01	6.636689e-04	0.0	9.799500e-01	1.007282e-03	0.0	9.841300e-01	1.190353e-03	0.0	9.878400e-01	1.191925e-03	0.0	9.910500e-01	1.044868e-03	0.0	9.937800e-01	8.101686e-04	0.0	9.960200e-01	5.519472e-04	0.0	9.977600e-01	3.204635e-04	0.0	9.990000e-01	1.448295e-04	0.0	9.997500e-01	3.632224e-05	0.0	1.000000e+00	0.000000e+00	0.0	1.984229e+01	2.506660e+00	0.0	1.937166e+01	4.973800e+00	0.0	1.859553e+01	7.362490e+00	0.0	1.752613e+01	9.635070e+00	0.0	1.618034e+01	1.175571e+01	0.0	1.457937e+01	1.369094e+01	0.0	1.274848e+01	1.541027e+01	0.0	1.071654e+01	1.688656e+01	0.0	8.515590e+00	1.809654e+01	0.0	6.180340e+00	1.902113e+01	0.0	3.747630e+00	1.964575e+01	0.0	1.255810e+00	1.996053e+01	0.0	-1.255810e+00	1.996053e+01	0.0	-3.747630e+00	1.964574e+01	0.0	-6.180340e+00	1.902113e+01	0.0	-8.515590e+00	1.809654e+01	0.0	-1.071654e+01	1.688656e+01	0.0	-1.274848e+01	1.541026e+01	0.0	-1.457937e+01	1.369094e+01	0.0	-1.618034e+01	1.175570e+01	0.0	-1.752613e+01	9.635070e+00	0.0	-1.859553e+01	7.362490e+00	0.0	-1.937166e+01	4.973800e+00	0.0	-1.984229e+01	2.506660e+00	0.0	-2.000000e+01	0.000000e+00	0.0	-1.984229e+01	-2.506670e+00	0.0	-1.937166e+01	-4.973800e+00	0.0	-1.859553e+01	-7.362490e+00	0.0	-1.752613e+01	-9.635080e+00	0.0	-1.618034e+01	-1.175571e+01	0.0	-1.457937e+01	-1.369094e+01	0.0	-1.274848e+01	-1.541027e+01	0.0	-1.071653e+01	-1.688656e+01	0.0	-8.515580e+00	-1.809654e+01	0.0	-6.180340e+00	-1.902113e+01	0.0	-3.747620e+00	-1.964575e+01	0.0	-1.255810e+00	-1.996053e+01	0.0	1.255810e+00	-1.996053e+01	0.0	3.747630e+00	-1.964574e+01	0.0	6.180340e+00	-1.902113e+01	0.0	8.515590e+00	-1.809654e+01	0.0	1.071654e+01	-1.688656e+01	0.0	1.274848e+01	-1.541026e+01	0.0	1.457937e+01	-1.369094e+01	0.0	1.618034e+01	-1.175570e+01	0.0	1.752614e+01	-9.635070e+00	0.0	1.859553e+01	-7.362490e+00	0.0	1.937166e+01	-4.973790e+00	0.0	1.984229e+01	-2.506660e+00	0.0	2.000000e+01	0.000000e+00	0.0	6.108444e-02	-3.780814e-02	0.0	6.595826e-01	-4.965856e-02	0.0	4.255599e-01	6.033388e-02	0.0	6.897909e-01	4.659311e-02	0.0	3.792272e-01	-5.503009e-02	0.0	9.994687e-01	-7.277590e-04	0.0	9.985580e-01	-1.337575e-03	0.0	7.733756e-01	-4.468076e-02	0.0	6.892570e-01	-4.875497e-02	0.0	-8.010517e-04	4.844706e-03	0.0	7.462651e-01	-4.633692e-02	0.0	5.833611e-01	5.574240e-02	0.0	9.928499e-01	-3.878010e-03	0.0	9.899918e-01	-5.025745e-03	0.0	5.989397e-01	5.473128e-02	0.0	7.181931e-01	-4.766383e-02	0.0	-1.236255e-03	5.736189e-04	0.0	9.866571e-01	-6.410422e-03	0.0	9.828497e-01	-8.042100e-03	0.0	-8.849961e-04	-5.219029e-03	0.0	6.445084e-01	-5.005309e-02	0.0	8.242295e-01	-4.001261e-02	0.0	7.993966e-01	-4.260826e-02	0.0	3.484787e-01	5.936690e-02	0.0	8.477259e-01	-3.692757e-02	0.0	2.473373e-01	5.504460e-02	0.0	8.698193e-01	-3.350529e-02	0.0	1.068138e-02	1.527170e-02	0.0	8.904079e-01	-3.006390e-02	0.0	7.735154e-02	-4.163949e-02	0.0	9.094366e-01	-2.693650e-02	0.0	-1.444544e-03	-2.614466e-03	0.0	9.425627e-01	-2.147678e-02	0.0	9.268477e-01	-2.419951e-02	0.0	1.838181e-02	-2.216986e-02	0.0	4.257142e-01	-5.409434e-02	0.0	8.589571e-01	-3.523927e-02	0.0	9.564914e-01	-1.817216e-02	0.0	9.785571e-01	-9.931434e-03	0.0	9.685129e-01	-1.411643e-02	0.0	1.586102e-01	-5.261942e-02	0.0	9.001227e-01	-2.844684e-02	0.0	7.599509e-01	-4.555560e-02	0.0	9.971450e-01	-2.110912e-03	0.0	5.985188e-01	-5.105131e-02	0.0	4.413704e-01	-5.378393e-02	0.0	5.359517e-01	-5.211512e-02	0.0	4.728464e-01	-5.318943e-02	0.0	5.044082e-01	-5.263592e-02	0.0	4.886159e-01	-5.290662e-02	0.0	1.252818e-01	-4.936888e-02	0.0	2.824969e-02	-2.690149e-02	0.0	3.946307e-01	-5.472338e-02	0.0	4.658193e-02	-3.364693e-02	0.0	4.101277e-01	-5.441022e-02	0.0	3.189610e-01	-5.605065e-02	0.0	3.487940e-01	-5.560224e-02	0.0	3.389728e-02	-2.919243e-02	0.0	2.898072e-01	-5.631644e-02	0.0	9.349230e-01	-2.287398e-02	0.0	1.471463e-01	-5.165118e-02	0.0	1.950015e-01	-5.481310e-02	0.0	8.612276e-02	-4.340787e-02	0.0	1.049139e-01	-4.662445e-02	0.0	5.673635e-01	-5.160863e-02	0.0	1.704177e-01	-5.347011e-02	0.0	6.139684e-01	-5.074307e-02	0.0	8.803094e-01	-3.176504e-02	0.0	2.308831e-02	-2.455592e-02	0.0	9.952405e-01	-2.933181e-03	0.0	7.197836e-03	-1.496265e-02	0.0	1.865775e-02	1.920416e-02	0.0	9.183468e-01	-2.553162e-02	0.0	9.49
[...]
POINT_DATA 5233

SCALARS Conservative_1 float 1
LOOKUP_TABLE default
-2.919674e-01	-2.656246e-01	-2.637779e-01	-2.631532e-01	-2.629327e-01	-2.597895e-01	-2.488960e-01	-2.258070e-01	-1.859699e-01	-1.249395e-01	-4.063823e-02	6.580254e-02	1.859815e-01	2.835673e-01	2.943290e-01	2.083749e-01	1.048598e-01	4.377918e-02	1.968381e-02	1.543613e-02	2.598411e-02	4.959284e-02	8.309950e-02	1.228206e-01	1.654280e-01	2.092131e-01	2.540747e-01	2.969197e-01	3.277520e-01	3.331803e-01	3.090458e-01	2.680831e-01	2.290197e-01	2.012044e-01	1.827892e-01	1.686290e-01	1.558889e-01	1.443597e-01	1.343059e-01	1.255335e-01	1.174786e-01	1.098252e-01	1.024339e-01	9.536071e-02	8.864356e-02	8.242734e-02	7.684310e-02	7.206200e-02	6.824160e-02	6.552929e-02	6.404866e-02	6.388812e-02	6.510190e-02	6.771938e-02	7.178211e-02	7.726368e-02	8.417229e-02	9.244927e-02	1.020822e-01	1.129992e-01	1.251731e-01	1.384921e-01	1.529609e-01	1.685218e-01	1.850619e-01	2.020107e-01	2.186356e-01	2.344092e-01	2.501532e-01	2.679284e-01	2.911351e-01	3.230231e-01	3.630869e-01	4.016495e-01	4.206556e-01	4.060637e-01	3.615244e-01	3.078264e-01	2.657007e-01	2.397132e-01	2.197452e-01	1.954313e-01	1.651783e-01	1.324256e-01	9.912614e-02	6.493201e-02	2.922596e-02	-7.885212e-03	-4.643720e-02	-8.648504e-02	-1.284524e-01	-1.725926e-01	-2.200004e-01	-2.706027e-01	-3.262326e-01	-3.843840e-01	-4.384561e-01	-4.805418e-01	-5.023237e-01	-4.846992e-01	-4.406422e-01	-3.440480e-01	-1.967197e-01	-6.214676e-02	3.701249e-02	1.043631e-01	1.482780e-01	1.788348e-01	2.018665e-01	2.204014e-01	2.362071e-01	2.506984e-01	2.656995e-01	2.815992e-01	2.957069e-01	3.039164e-01	3.051693e-01	3.048654e-01	3.125747e-01	3.347920e-01	3.691546e-01	4.053462e-01	4.319843e-01	4.434404e-01	4.412135e-01	4.307170e-01	4.171500e-01	4.034478e-01	3.906931e-01	3.790822e-01	3.687133e-01	3.596482e-01	3.518775e-01	3.453708e-01	3.399362e-01	3.353900e-01	3.314384e-01	3.279917e-01	3.250507e-01	3.228501e-01	3.215126e-01	3.209403e-01	3.207474e-01	3.203120e-01	3.187317e-01	3.151313e-01	3.091397e-01	3.012135e-01	2.924254e-01	2.836322e-01	2.749393e-01	2.658994e-01	2.558648e-01	2.445455e-01	2.319789e-01	2.182300e-01	2.033291e-01	1.873278e-01	1.703311e-01	1.524436e-01	1.339552e-01	1.151197e-01	9.629369e-02	7.781892e-02	6.006370e-02	4.333322e-02	2.791716e-02	1.398215e-02	1.604620e-03	-9.320184e-03	-1.899701e-02	-2.777077e-02	-3.602548e-02	-4.423536e-02	-5.292080e-02	-6.250789e-02	-7.374479e-02	-8.731985e-02	-1.040469e-01	-1.244812e-01	-1.485160e-01	-1.749763e-01	-2.015910e-01	-2.252681e-01	-2.428422e-01	-2.514513e-01	-2.487781e-01	-2.331774e-01	-2.042700e-01	-1.641147e-01	-1.198583e-01	-8.543230e-02	-7.418630e-02	-8.854414e-02	-1.196943e-01	-1.559831e-01	-1.904747e-01	-2.204861e-01	-2.533331e-01	-2.858375e-01	-1.457704e-04	-1.453442e-04	-1.440323e-04	-1.431163e-04	-1.412472e-04	-1.370403e-04	-1.267326e-04	-1.103860e-04	-7.963988e-05	-3.797988e-05	3.432194e-05	1.340055e-04	2.376858e-04	2.898019e-04	2.926586e-04	2.739358e-04	2.436565e-04	2.097830e-04	1.737902e-04	1.399652e-04	1.088579e-04	8.548736e-05	1.143353e-04	5.089501e-05	-8.633028e-05	2.704227e-05	7.273796e-05	3.195150e-05	-1.482332e-05	-2.053251e-05	-2.451993e-05	-2.261717e-05	-1.652677e-05	-6.571767e-06	5.751691e-06	1.715628e-05	1.859132e-05	-3.610297e-06	-4.496695e-05	-8.120465e-05	-1.116836e-04	-1.327615e-04	-1.444167e-04	-1.504795e-04	-1.520197e-04	-1.512895e-04	-1.504891e-04	-1.495746e-04	-1.465490e-04	-1.467653e-04	1.218448e-01	1.308109e-01	3.080860e-01	9.894886e-02	9.179619e-02	-2.914628e-01	-2.732790e-01	2.774303e-01	1.500884e-01	-3.130206e-01	2.082898e-01	2.145735e-01	-2.512369e-01	-2.412827e-01	2.004476e-01	1.739711e-01	-4.466979e-01	-2.236832e-01	-1.953414e-01	-4.476181e-01	1.227910e-01	2.568305e-01	3.162112e-01	3.137697e-01	1.741101e-01	3.385190e-01	9.921323e-02	9.264093e-02	4.331952e-02	1.827301e-01	2.727855e-02	-4.772217e-01	2.117927e-01	6.901868e-02	-1.316623e-01	7.442156e-02	1.355085e-01	1.658407e-01	-1.529045e-01	-1.980711e-02	3.677808e-01	2.949021e-02	2.390022e-01	-2.634304e-01	1.012464e-01	7.127933e-02	7.843645e-02	6.892301e-02	7.151033e-02	6.962817e-02	3.604661e-01	-5.283704e-02	8.469737e-02	5.532571e-02	7.889202e-02	1.324677e-01	1.097665e-01	-1.543227e-02	1.594720e-01	1.351885e-01	3.958544e-01	2.681514e-01	2.049733e-01	2.583365e-01	8.871343e-02	3.286171e-01	1.080986e-01	6.746670e-02	-9.150930e-02	-2.573431e-01	-2.636510e-01	1.593092e-01	3.753129e-02	2.296571e-01	-9.436572e-02	-2.066265e-01	2.146692e-01	2.057727e-01	8.322622e-02	1.881134e-01	3.089864e-01	3.071724e-01	2.349223e-01	9.475374e-02	1.397599e-01	8.879203e-02	-3.121119e-01	-1.735939e-01	1.001685e-01	2.937109e-01	-3.050220e-01	2.206906e-01	2.261240e-01	1.454534e-01	1.901189e-01	6.945816e-02	1.616513e-01	-3.969138e-01	-4.091244e-01	2.505517e-01	-4.769123e-01	2.035516e-01	2.738274e-01	2.409824e-01	4.009358e-01	3.108818e-01	-1.904265e-01	2.601245e-01	2.869740e-01	-1.802199e-01	-2.234168e-01	-9.976518e-02	2.778587e-01	3.030394e-01	3.125451e-01	-1.818746e-01	-1.374519e-01	2.856911e-01	-1.494748e-01	-2.309381e-01	-2.189293e-01	3.297636e-01	2.809708e-01	3.241577e-01	3.328927e-01	3.968788e-01	3.176347e-01	2.957442e-01	3.120797e-01	4.212681e-01	4.216743e-01	1.691457e-01	3.728632e-01	3.532235e-01	1.347280e-01	2.276823e-01	3.255117e-02	6.412504e-02	-1.592689e-02	5.822272e-03	-5.184518e-02	-3.423477e-02	-1.172964e-01	-7.233859e-02	-2.290233e-01	-1.594908e-01	-2.061115e-01	-6.150442e-02	-8.491478e-02	-2.535555e-02	-4.292844e-02	1.853398e-02	-5.609477e-03	8.126730e-02	4.781419e-02	1.522348e-01	1.168765e-01	2.397494e-01	1.852802e-01	3.624399e-01	3.452716e-01	4.097864e-01	3.843885e-01	2.593674e-01	4.271438e-01	1.298618e-01	2.221925e-01	2.497809e-01	-2.110201e-02	6.959895e-02	2.950405e-01	1.205617e-01	7.448401e-02	-1.046876e-01	1.832412e-01	4.390691e-02	3.004854e-01	2.822969e-01	3.281777e-01	3.671584e-01	-1.217241e-01	-1.070685e-01	3.206362e-01	-1.108505e-01	-1.303363e-01	3.152938e-01	3.129575e-01	-2.024819e-01	-2.748800e-01	-2.228326e-01	-2.550227e-01	1.152818e-01	2.065459e-02	-1.587320e-01	2.690081e-01	-3.615629e-01	-2.176107e-01	1.541784e-01	3.950382e-01	1.744725e-01	2.612693e-01	-2.907147e-01	-3.582740e-01	1.649040e-01	1.554914e-01	4.055870e-02	-2.555019e-01	2.104576e-01	1.450898e-01	2.821316e-01	-2.175805e-01	1.272963e-01	1.442661e-01	2.169242e-01	1.910428e-01	-4.129147e-01	2.341897e-01	-1.729046e-01	6.532686e-02	3.643134e-01	1.666309e-01	1.278287e-01	7.501368e-02	1.691552e-01	9.170784e-02	4.340770e-02	2.976037e-01	2.366259e-03	1.251925e-01	1.176361e-01	-5.030667e-02	3.647009e-01	1.006339e-01	3.889405e-01	-8.244607e-02	-1.302831e-01	3.060355e-01	2.541947e-01	-2.118504e-01	-9.594063e-02	-1.399215e-01	-2.094735e-01	-1.450460e-01	3.314841e-01	3.076932e-01	3.383574e-01	3.276628e-01	1.359216e-01	2.489928e-01	5.206660e-02	4.082803e-01	2.382686e-01	-1.843399e-01	-1.575082e-01	-1.112685e-01	3.321274e-01	-2.826210e-01	-2.078916e-01	-1.811026e-01	-5.931273e-02	-2.113407e-01	-2.983949e-01	-4.581378e-01	-4.453749e-01	-1.334262e-01	-2.893313e-01	1.120654e-01	-2.581646e-01	-2.421552e-01	3.007509e-01	8.448380e-02	-1.956297e-01	8.252541e-02	1.968954e-01	-2.322583e-01	-4.437792e-01	7.734557e-02	3.030431e-01	1.792921e-01	3.166421e-01	1.116640e-01	5.902382e-02	1.429268e-01	3.700762e-02	5.789247e-02	1.715565e-01	-5.801840e-02	1.361795e-01	-6.834260e-03	-1.647892e-01	3.552123e-01	2.181797e-01	2.504873e-01	-2.503602e-01	7.388373e-02	7.392891e-02	7.509362e-02	-9.524800e-02	8.570271e-02	8.089700e-02	1.167539e-01	1.290751e-02	9.670874e-02	1.483915e-01	3.758301e-01	2.169529e-01	8.923146e-02	1.067431e-01	-6.984241e-02	-1.228740e-01	1.785857e-01	1.942676e-01	2.569429e-01	3.088999e-01	9.459719e-02	1.004524e-01	4.657812e-02	7.955057e-02	-2.138022e-01	1.072598e-01	9.891216e-02	2.967792e-01	2.686995e-01	2.211416e-01	2.077844e-01	1.514153e-01	1.388783e-01	1.936634e-01	-4.093458e-01	-3.401428e-01	2.191737e-01	-1.320134e-01	2.449710e-01	2.631453e-01	2.724566e-01	2.818021e-01	-1.645565e-01	-2.000577e-01	-1.654309e-01	2.901041e-01	2.965272e-01	3.040853e-01	-1.467898e-01	-2.074960e-01	2.578755e-01	2.516755e-01	3.256557e-01	3.207965e-01	4.003441e-01	4.077496e-01	3.935249e-01	-1.250515e-02	3.666403e-02	5.158082e-02	-1.767593e-03	-4.106873e-02	-1.284087e-01	-7.058437e-02	-5.996034e-02	-3.186449e-02	-2.246100e-02	9.948161e-03	2.273682e-02	6.735494e-02	8.377808e-02	1.345538e-01	1.511346e-01	2.232447e-01	2.348269e-01	1.671991e-01	1.824778e-01	3.464315e-01	3.556550e-01	3.659381e-01	3.771280e-01	9.236381e-02	1.979314e-01	1.759802e-01	2.868882e-01	2.555992e-01	7.729748e-02	8.046034e-02	-1.319133e-01	1.523462e-01	2.933414e-01	2.708027e-01	3.100652e-01	3.130923e-01	3.045880e-01	3.050946e-01	-1.973855e-01	-1.828269e-01	1.133923e-01	1.204085e-01	-2.189699e-02	-3.801330e-01	1.791190e-01	-4.116513e-01	9.178141e-02	1.559018e-01	2.730282e-01	8.582894e-02	5.620037e-02	-1.469038e-01	-1.425327e-01	-1.899912e-01	-1.469549e-01	-1.576780e-01	-2.345855e-01	-2.582476e-01	-2.442308e-01	-2.701978e-01	-1.342916e-01	-3.851702e-01	1.791709e-01	7.812654e-02	-2.105962e-01	2.064462e-01	-2.714800e-01	-2.849621e-01	1.602835e-01	-3.563662e-01	1.711939e-01	-1.709818e-01	9.437253e-02	-2.467975e-01	1.225513e-01	1.203759e-01	1.500395e-01	-2.232073e-01	-2.087609e-01	-1.561846e-01	2.390596e-01	-1.933617e-01	1.176777e-01	-1.767699e-01	2.484404e-01	3.089428e-01	2.983270e-01	3.788867e-01	2.359404e-01	-2.525505e-01	-3.845208e-01	-2.770100e-01	6.070060e-02	-3.343766e-01	1.302881e-03	1.552551e-01	-4.262328e-01	3.285718e-01	7.851301e-02	-9.800774e-02	-2.795871e-02	-4.810412e-02	-8.974340e-03	1.014751e-01	-1.461690e-01	-1.941866e-01	-1.052842e-01	-9.176442e-02	3.000215e-01	3.053277e-01	3.240803e-01	3.229438e-01	1.324570e-01	1.407093e-01	2.321832e-01	1.989465e-02	3.871001e-01	-1.690823e-01	-1.954352e-01	-8.400571e-02	-2.128307e-01	-3.217850e-01	-4.306969e-01	-6.245596e-02	-2.751013e-01	-2.779761e-01	-5.191861e-02	-1.927546e-01	1.931615e-01	8.014584e-02	2.930523e-01	1.813743e-01	1.494484e-01	7.268817e-02	5.684232e-02	1.014285e-01	1.303138e-01	4.809273e-02	4.729637e-02	1.064264e-01	5.816273e-02	-1.689794e-01	2.294503e-01	2.559232e-01	-2.343856e-01	7.794894e-02	7.848912e-02	8.677050e-02	8.287322e-02	-2.811455e-02	1.084106e-01	1.249474e-01	3.381910e-01	3.465294e-01	8.985890e-02	9.455685e-02	-9.854468e-02	-1.378703e-01	1.841165e-01	2.032016e-01	2.107087e-01	2.548851e-01	3.032104e-01	9.977486e-02	1.054814e-01	5.262130e-03	3.809850e-02	7.027777e-02	1.133194e-01	1.050735e-01	9.789828e-02	2.981543e-01	2.693813e-01	2.476526e-01	2.195664e-01	2.075649e-01	1.438892e-01	1.327745e-01	1.949599e-01	1.968526e-01	2.579581e-01	2.677299e-01	-1.811741e-01	2.765574e-01	2.839067e-01	2.894455e-01	2.950466e-01	-1.507656e-01	2.287682e-01	2.159020e-01	3.131567e-01	3.181872e-01	3.892257e-01	3.801106e-01	3.567818e-01	4.023440e-02	-1.353199e-01	-1.198978e-01	-7.944876e-02	-6.819520e-02	-5.791113e-02	-3.850917e-02	-2.885180e-02	-1.912361e-02	2.074531e-03	1.381733e-02	2.664294e-02	5.476891e-02	6.981371e-02	8.557078e-02	1.336128e-01	2.188081e-01	2.293513e-01	1.493945e-01	1.645209e-01	1.791792e-01	3.310439e-01	3.390028e-01	3.479884e-01	3.577894e-01	3.682831e-01	1.744711e-01	1.504315e-01	2.706814e-01	2.482049e-01	2.156809e-01	8.004224e-02	8.251009e-02	1.241743e-01	9.480335e-02	2.874078e-01	2.595880e-01	2.435971e-01	3.023682e-01	2.960209e-01	2.965501e-01	2.971803e-01	-1.878221e-01	-1.782057e-01	-1.655358e-01	1.115838e-01	1.180890e-01	1.250040e-01	1.818453e-01	1.686332e-01	-3.785188e-01	1.682988e-01	-1.862955e-01	-1.536888e-01	8.985308e-02	-3.501106e-01	-2.486616e-01	6.645091e-02	8.104183e-02	-6.637181e-02	-1.600448e-01	2.423271e-01	-3.565304e-01	-5.351837e-03	-2.698399e-01	-1.785619e-01	-1.724401e-01	-2.592708e-01	1.182563e-01	-2.067784e-01	-2.600157e-01	-2.671396e-01	2.540169e-01	2.932280e-01	-1.336913e-01	9.164231e-02	1.422050e-01	8.246735e-02	1.472495e-01	-1.507443e-01	2.029230e-01	-1.794677e-01	-1.768469e-01	-5.566815e-03	3.649258e-01	3.010086e-01	-1.902584e-01	2.067556e-01	1.012342e-01	-2.090530e-01	-1.527027e-01	-2.276319e-01	-8.227601e-02	-1.676528e-01	1.535460e-01	-3.020118e-01	1.629323e-01	1.746888e-01	-2.016966e-01	-2.056753e-01	-2.362943e-01	-4.502154e-02	2.347791e-01	2.921344e-01	-3.077864e-01	-4.997249e-02	1.017996e-01	-9.939597e-02	2.905303e-01	2.944018e-01	2.973638e-01	1.360699e-01	1.440172e-01	-1.600833e-01	-9.911272e-02	-1.523508e-01	-3.319706e-01	-3.996244e-01	-9.935408e-02	-4.237169e-02	-1.710962e-01	1.887569e-01	1.506987e-01	1.244448e-01	8.129212e-02	6.634090e-02	8.999498e-02	1.174345e-01	5.666338e-02	5.319681e-02	5.633053e-02	4.429664e-02	1.167903e-03	2.365039e-01	2.484709e-01	-2.170456e-01	8.138226e-02	8.126344e-02	8.749204e-02	8.445638e-02	8.898138e-02	7.713361e-02	3.114829e-01	3.124223e-01	9.408512e-02	-1.174892e-01	-1.472696e-01	1.886953e-01	2.128827e-01	2.029815e-01	2.467737e-01	2.873292e-01	9.857544e-02	1.037387e-01	-3.425545e-02	-2.156403e-03	2.975103e-02	6.040197e-02	1.179029e-01	1.099378e-01	1.028290e-01	9.676683e-02	2.678909e-01	2.460779e-01	2.292582e-01	2.165279e-01	2.051706e-01	1.268667e-01	1.365946e-01	1.939375e-01	2.530026e-01	-1.677010e-01	-1.743546e-01	2.622137e-01	2.700804e-01	2.766466e-01	2.815542e-01	2.848316e-01	1.933334e-01	1.738618e-01	3.053516e-01	3.104480e-01	3.676170e-01	3.618053e-01	3.430190e-01	3.133061e-01	-1.382955e-01	-1.252291e-01	-1.121988e-01	-8.733648e-02	-7.580846e-02	-6.517387e-02	-5.453551e-02	-3.590780e-02	-2.498306e-02	-1.575317e-02	5.877305e-03	1.750995e-02	3.050388e-02	4.336559e-02	5.788192e-02	7.170277e-02	8.753493e-02	2.233010e-01	2.149567e-01	1.321695e-01	1.485320e-01	1.617342e-01	1.775229e-01	3.163798e-01	3.231472e-01	3.308761e-01	3.394398e-01	3.483392e-01	3.577605e-01	1.507281e-01	1.258733e-01	2.352264e-01	2.083047e-01	1.795353e-01	8.226136e-02	8.372942e-02	8.669161e-02	9.855847e-02	6.774564e-02	3.369452e-02	2.791557e-01	2.491818e-01	2.285759e-01	2.163677e-01	2.867309e-01	2.878580e-01	2.883848e-01	2.893374e-01	-1.507338e-01	-1.706805e-01	-1.619252e-01	1.092923e-01	1.151878e-01	1.216868e-01	1.283832e-01	1.821756e-01	1.703344e-01	1.584826e-01	-1.941448e-01	-1.810141e-01	-7.315765e-02	-2.616170e-01	-2.251084e-01	1.692847e-01	1.563330e-01	-2.549709e-01	-1.559454e-01	-3.093929e-01	-1.003362e-01	2.607382e-01	3.448522e-01	-6.652464e-02	-1.993290e-01	-3.228894e-01	-4.039009e-01	-4.153301e-01	-3.784190e-01	-3.318129e-01	-2.173806e-01	2.819780e-01	-1.033360e-01	-1.882850e-01	6.189616e-02	2.247458e-01	9.078219e-02	-1.687605e-01	-1.396360e-01	-1.620930e-01	2.035505e-01	2.218603e-01	1.092289e-01	3.397605e-03	2.361547e-01	9.108145e-02	2.823058e-01	-1.610411e-01	1.291322e-01	-2.371657e-01	-1.546475e-01	-3.976312e-01	-2.783067e-01	-2.631554e-01	6.415117e-02	-7.051151e-02	-3.504214e-01	-2.611290e-02	-2.830342e-01	-1.671596e-01	-2.430668e-01	-2.634133e-01	-2.674659e-01	-1.638095e-01	1.298820e-01	1.388425e-01	-1.561784e-01	1.846187e-01	-1.660353e-01	-1.720162e-01	1.494120e-01	-2.846345e-01	2.849443e-01	2.859157e-01	2.904383e-01	1.336731e-01	-1.095124e-01	-1.539223e-01	-3.687484e-01	-1.319658e-01	1.234041e-01	1.045615e-01	8.497815e-02	7.060943e-02	1.045044e-01	7.789847e-02	6.039396e-02	5.526082e-02	5.467072e-02	5.747919e-02	-5.534065e-03	-4.005241e-02	2.212300e-01	-2.007280e-01	8.376817e-02	8.332469e-02	8.746538e-02	8.536077e-02	5.022575e-02	2.671451e-02	2.815568e-01	2.827567e-01	-1.301103e-01	-1.530440e-01	1.938850e-01	1.949396e-01	2.384368e-01	2.636782e-01	9.894754e-02	-4.036807e-02	-9.492697e-03	2.074229e-02	4.970529e-02	1.209747e-01	1.133468e-01	1.063078e-01	1.003010e-01	9.553129e-02	2.439903e-01	2.254300e-01	2.137548e-01	2.013986e-01	1.922708e-01	-1.592278e-01	-1.629988e-01	-1.659780e-01	2.482808e-01	2.549309e-01	2.641234e-01	2.684011e-01	2.747341e-01	1.709021e-01	1.507845e-01	2.927922e-01	2.987184e-01	3.450532e-01	3.266074e-01	2.994386e-01	-1.279758e-01	-1.169958e-01	-1.050700e-01	-9.366656e-02	-8.248349e-02	-7.158413e-02	-6.132003e-02	-4.666972e-02	-3.219405e-02	-1.690233e-02	2.708262e-02	5.279850e-02	8.045534e-02	1.380757e-01	1.650912e-01	3.023001e-01	3.097458e-01	3.147491e-01	3.240077e-01	3.289329e-01	3.371815e-01	3.436151e-01	1.269727e-01	1.016735e-01	1.965358e-01	1.752126e-01	1.493911e-01	8.362667e-02	8.574520e-02	7.466259e-02	4.373134e-02	9.951719e-03	2.676547e-01	2.376421e-01	2.143766e-01	1.980858e-01	1.855512e-01	2.762035e-01	2.797441e-01	2.791602e-01	2.799954e-01	-1.560904e-01	-1.480382e-01	1.087540e-01	1.202928e-01	1.804870e-01	1.708665e-01	1.592137e-01	1.494240e-01	-2.582854e-01	-2.226625e-01	-2.401622e-01	-3.461996e-01	-2.662937e-01	-1.174869e-01	-1.604704e-01	-2.625880e-01	-1.571389e-01	-2.204972e-01	-1.565083e-01	-3.397310e-01	-1.013021e-01	-2.135574e-01	2.718941e-01	-2.567806e-01	-1.161482e-01	-2.277044e-01	-1.865195e-01	-9.431334e-02	8.843979e-02	-1.564040e-01	1.272115e-01	2.995536e-02	4.566512e-02	1.120477e-01	1.454903e-01	2.279031e-01	-3.081099e-01	8.833082e-02	9.073222e-02	1.141398e-01	3.142152e-01	-1.544352e-01	-1.324545e-01	-2.957351e-01	-7.873342e-02	-6.879473e-02	-2.487103e-01	-1.544692e-01	-3.989826e-01	-3.244687e-01	-1.728191e-01	1.735830e-01	2.164675e-01	2.353259e-01	-1.664459e-01	-2.584533e-01	-1.880277e-01	-3.763241e-01	-2.689170e-01	-7.414164e-02	-2.878314e-01	-2.648312e-01	1.816781e-01	-1.293995e-01	-1.563556e-01	-1.537275e-01	1.993127e-01	2.742851e-01	2.793727e-01	1.526691e-01	-1.535757e-01	-1.913162e-01	-1.590095e-01	9.372682e-02	6.697719e-02	6.529713e-02	5.331095e-02	4.891631e-02	-4.180883e-02	-1.868359e-01	8.506192e-02	9.834628e-03	-1.459032e-02	2.494634e-01	-1.381650e-01	1.955603e-01	2.030516e-01	2.000265e-01	2.374786e-01	9.430728e-02	-4.567492e-02	-1.525101e-02	1.468068e-02	3.756569e-02	1.121136e-01	1.006820e-01	9.353226e-02	2.029928e-01	1.829501e-01	-1.554819e-01	-1.566706e-01	2.512108e-01	2.625529e-01	1.292818e-01	2.872209e-01	2.838491e-01	-2.677780e-02	-1.138455e-01	-9.300160e-02	-7.281610e-02	-5.585548e-02	-4.117673e-02	-9.807791e-03	1.117144e-02	3.452870e-02	5.948278e-02	8.588337e-02	1.130794e-01	1.395724e-01	1.625056e-01	2.974400e-01	3.089437e-01	3.164484e-01	3.254615e-01	3.226467e-01	1.040941e-01	7.880421e-02	1.844697e-01	1.541221e-01	1.213079e-01	8.433869e-02	8.523649e-02	5.253317e-02	2.305681e-02	-9.909827e-03	-4.328665e-02	2.523628e-01	2.232060e-01	1.992931e-01	1.805912e-01	1.640966e-01	1.533760e-01	2.684341e-01	2.693485e-01	-1.505878e-01	-1.435493e-01	1.023089e-01	1.233933e-01	1.365101e-01	1.637648e-01	1.448120e-01	-1.722492e-01	-2.550983e-01	-2.504859e-01	-1.948983e-01	-7.747996e-03	-1.639944e-01	-2.516919e-01	-2.115502e-01	-2.475691e-01	-1.787449e-01	-2.281151e-01	-1.954766e-01	-1.518743e-01	-2.710096e-01	-3.131560e-01	-1.501313e-01	1.735888e-01	2.587512e-01	-1.825056e-01	4.235298e-02	-1.264387e-01	1.198454e-01	-1.199824e-01	-2.257580e-01	9.062609e-02	-2.881464e-03	1.149706e-01	9.083467e-02	-1.082530e-01	-1.268750e-01	-1.019870e-01	-7.686502e-02	-2.473109e-01	-1.543234e-01	-1.582679e-01	-1.481984e-01	2.635503e-01	1.600453e-01	1.396436e-01	5.555122e-02	-2.177993e-01	-2.275660e-01	-3.640303e-01	-8.809344e-02	-1.494835e-01	-2.567131e-01	-1.437770e-01	-2.427470e-01	-2.023096e-01	8.676984e-02	-3.005788e-01	7.417027e-02	9.953737e-02	-1.519863e-01	-3.163302e-01	-6.686703e-02	-1.596580e-01	1.563431e-01	-3.493301e-01	-2.618042e-01	2.662545e-02	-2.854792e-01	-2.674840e-01	1.956098e-01	-1.532160e-01	-1.459387e-01	1.782645e-01	2.604336e-01	1.395528e-01	-1.833617e-01	-2.136097e-01	7.033448e-02	5.278739e-02	3.242611e-02	1.681176e-02	-1.753103e-01	8.671743e-02	-2.311944e-02	-4.489194e-02	9.634715e-02	1.453764e-01	1.187231e-01	1.815007e-01	1.372235e-01	1.821183e-01	2.114153e-01	-4.820621e-02	1.163113e-01	1.045113e-01	2.144565e-01	1.986678e-01	1.261609e-01	-1.507666e-01	2.132093e-01	2.301322e-01	2.673718e-01	-1.177806e-01	-1.007475e-01	-3.584807e-02	-8.236441e-02	-6.521373e-02	-4.998773e-02	-2.069697e-02	-2.554477e-03	1.844225e-02	4.122872e-02	6.532625e-02	9.055370e-02	1.159888e-01	2.694127e-01	2.776220e-01	2.867646e-01	2.948858e-01	3.011267e-01	2.906972e-01	8.371701e-02	5.726758e-02	1.703226e-01	9.363509e-02	8.502476e-02	8.503008e-02	3.236956e-02	5.363483e-03	-2.541569e-02	-5.673749e-02	-8.774490e-02	2.348738e-01	2.052698e-01	1.814881e-01	1.617050e-01	1.432131e-