# vtk DataFile Version 3.0
vtk output
ASCII
DATASET UNSTRUCTURED_GRID
POINTS 200 float
9.997500e-01	-3.633649e-05	0.0	9.990000e-01	-1.457284e-04	0.0	9.977600e-01	-3.303069e-04	0.0	9.960200e-01	-6.049666e-04	0.0	9.937800e-01	-1.001011e-03	0.0	9.910500e-01	-1.569411e-03	0.0	9.878400e-01	-2.374971e-03	0.0	9.841300e-01	-3.485179e-03	0.0	9.799500e-01	-4.917382e-03	0.0	9.752800e-01	-6.640016e-03	0.0	9.701500e-01	-8.530761e-03	0.0	9.645400e-01	-1.043384e-02	0.0	9.584700e-01	-1.217506e-02	0.0	9.519400e-01	-1.363738e-02	0.0	9.449600e-01	-1.478717e-02	0.0	9.375400e-01	-1.568026e-02	0.0	9.296900e-01	-1.643302e-02	0.0	9.214000e-01	-1.718043e-02	0.0	9.127000e-01	-1.803144e-02	0.0	9.035800e-01	-1.905286e-02	0.0	8.940600e-01	-2.025750e-02	0.0	8.841500e-01	-2.161686e-02	0.0	8.738500e-01	-2.307749e-02	0.0	8.631800e-01	-2.457281e-02	0.0	8.521600e-01	-2.603916e-02	0.0	8.407700e-01	-2.742920e-02	0.0	8.290500e-01	-2.870308e-02	0.0	8.170100e-01	-2.984093e-02	0.0	8.046400e-01	-3.083841e-02	0.0	7.919700e-01	-3.169870e-02	0.0	7.790100e-01	-3.243456e-02	0.0	7.657800e-01	-3.306248e-02	0.0	7.522800e-01	-3.360126e-02	0.0	7.385200e-01	-3.406827e-02	0.0	7.245300e-01	-3.447805e-02	0.0	7.103200e-01	-3.484292e-02	0.0	6.958900e-01	-3.517227e-02	0.0	6.812700e-01	-3.547204e-02	0.0	6.664700e-01	-3.574659e-02	0.0	6.515000e-01	-3.599894e-02	0.0	6.363800e-01	-3.623137e-02	0.0	6.211300e-01	-3.644632e-02	0.0	6.057600e-01	-3.664696e-02	0.0	5.902800e-01	-3.683726e-02	0.0	5.747100e-01	-3.702198e-02	0.0	5.590600e-01	-3.720674e-02	0.0	5.433600e-01	-3.739739e-02	0.0	5.276100e-01	-3.760023e-02	0.0	5.118400e-01	-3.782085e-02	0.0	4.960500e-01	-3.806446e-02	0.0	4.802700e-01	-3.833473e-02	0.0	4.645100e-01	-3.863417e-02	0.0	4.487800e-01	-3.896367e-02	0.0	4.331100e-01	-3.932198e-02	0.0	4.175000e-01	-3.970669e-02	0.0	4.019700e-01	-4.011331e-02	0.0	3.865400e-01	-4.053578e-02	0.0	3.712300e-01	-4.096671e-02	0.0	3.560400e-01	-4.139822e-02	0.0	3.409900e-01	-4.182108e-02	0.0	3.261100e-01	-4.222529e-02	0.0	3.114000e-01	-4.260143e-02	0.0	2.968700e-01	-4.293978e-02	0.0	2.825500e-01	-4.323038e-02	0.0	2.684500e-01	-4.346416e-02	0.0	2.545700e-01	-4.363267e-02	0.0	2.409400e-01	-4.372764e-02	0.0	2.275700e-01	-4.374189e-02	0.0	2.144700e-01	-4.366887e-02	0.0	2.016600e-01	-4.350294e-02	0.0	1.891400e-01	-4.323897e-02	0.0	1.769300e-01	-4.287289e-02	0.0	1.650400e-01	-4.240125e-02	0.0	1.534900e-01	-4.182187e-02	0.0	1.422900e-01	-4.113311e-02	0.0	1.314400e-01	-4.033329e-02	0.0	1.209500e-01	-3.942199e-02	0.0	1.108500e-01	-3.840173e-02	0.0	1.011300e-01	-3.727220e-02	0.0	9.181000e-02	-3.603702e-02	0.0	8.290000e-02	-3.469995e-02	0.0	7.440000e-02	-3.326408e-02	0.0	6.633000e-02	-3.173687e-02	0.0	5.869000e-02	-3.012342e-02	0.0	5.149000e-02	-2.843165e-02	0.0	4.474000e-02	-2.667077e-02	0.0	3.844000e-02	-2.484824e-02	0.0	3.260000e-02	-2.297490e-02	0.0	2.723000e-02	-2.106274e-02	0.0	2.232000e-02	-1.911647e-02	0.0	1.790000e-02	-1.715671e-02	0.0	1.395000e-02	-1.518259e-02	0.0	1.049000e-02	-1.321009e-02	0.0	7.520000e-03	-1.124417e-02	0.0	5.040000e-03	-9.285457e-03	0.0	3.050000e-03	-7.327192e-03	0.0	1.560000e-03	-5.364301e-03	0.0	5.600000e-04	-3.345014e-03	0.0	6.000000e-05	-1.185422e-03	0.0	0.000000e+00	0.000000e+00	0.0	6.000000e-05	1.143830e-03	0.0	5.600000e-04	3.132142e-03	0.0	1.560000e-03	4.904265e-03	0.0	3.050000e-03	6.560811e-03	0.0	5.040000e-03	8.161668e-03	0.0	7.520000e-03	9.723253e-03	0.0	1.049000e-02	1.126154e-02	0.0	1.395000e-02	1.278528e-02	0.0	1.790000e-02	1.429896e-02	0.0	2.232000e-02	1.579794e-02	0.0	2.723000e-02	1.728988e-02	0.0	3.260000e-02	1.876537e-02	0.0	3.844000e-02	2.022659e-02	0.0	4.474000e-02	2.166957e-02	0.0	5.149000e-02	2.309050e-02	0.0	5.869000e-02	2.448771e-02	0.0	6.633000e-02	2.585742e-02	0.0	7.440000e-02	2.719625e-02	0.0	8.290000e-02	2.850257e-02	0.0	9.181000e-02	2.977193e-02	0.0	1.011300e-01	3.100320e-02	0.0	1.108500e-01	3.219400e-02	0.0	1.209500e-01	3.334120e-02	0.0	1.314400e-01	3.444534e-02	0.0	1.422900e-01	3.550292e-02	0.0	1.534900e-01	3.651302e-02	0.0	1.650400e-01	3.747574e-02	0.0	1.769300e-01	3.839045e-02	0.0	1.891400e-01	3.925599e-02	0.0	2.016600e-01	4.007223e-02	0.0	2.144700e-01	4.083854e-02	0.0	2.275700e-01	4.155560e-02	0.0	2.409400e-01	4.222293e-02	0.0	2.545700e-01	4.284059e-02	0.0	2.684500e-01	4.340851e-02	0.0	2.825500e-01	4.392575e-02	0.0	2.968700e-01	4.439237e-02	0.0	3.114000e-01	4.480770e-02	0.0	3.261100e-01	4.517033e-02	0.0	3.409900e-01	4.547916e-02	0.0	3.560400e-01	4.573288e-02	0.0	3.712300e-01	4.592937e-02	0.0	3.865400e-01	4.606652e-02	0.0	4.019700e-01	4.614215e-02	0.0	4.175000e-01	4.615367e-02	0.0	4.331100e-01	4.609839e-02	0.0	4.487800e-01	4.597361e-02	0.0	4.645100e-01	4.577635e-02	0.0	4.802700e-01	4.550388e-02	0.0	4.960500e-01	4.515323e-02	0.0	5.118400e-01	4.472136e-02	0.0	5.276100e-01	4.420583e-02	0.0	5.433600e-01	4.360341e-02	0.0	5.590600e-01	4.291212e-02	0.0	5.747100e-01	4.212905e-02	0.0	5.902800e-01	4.125326e-02	0.0	6.057600e-01	4.028365e-02	0.0	6.211300e-01	3.922085e-02	0.0	6.363800e-01	3.806633e-02	0.0	6.515000e-01	3.682332e-02	0.0	6.664700e-01	3.549801e-02	0.0	6.812700e-01	3.409909e-02	0.0	6.958900e-01	3.263672e-02	0.0	7.103200e-01	3.112303e-02	0.0	7.245300e-01	2.957381e-02	0.0	7.385200e-01	2.800233e-02	0.0	7.522800e-01	2.642244e-02	0.0	7.657800e-01	2.484878e-02	0.0	7.790100e-01	2.329104e-02	0.0	7.919700e-01	2.175427e-02	0.0	8.046400e-01	2.024210e-02	0.0	8.170100e-01	1.875325e-02	0.0	8.290500e-01	1.728585e-02	0.0	8.407700e-01	1.583099e-02	0.0	8.521600e-01	1.438080e-02	0.0	8.631800e-01	1.293076e-02	0.0	8.738500e-01	1.146857e-02	0.0	8.841500e-01	9.988029e-03	0.0	8.940600e-01	8.486366e-03	0.0	9.035800e-01	6.965414e-03	0.0	9.127000e-01	5.442722e-03	0.0	9.214000e-01	3.959356e-03	0.0	9.296900e-01	2.577433e-03	0.0	9.375400e-01	1.387724e-03	0.0	9.449600e-01	4.802697e-04	0.0	9.519400e-01	-7.299517e-05	0.0	9.584700e-01	-2.519717e-04	0.0	9.645400e-01	-1.070039e-04	0.0	9.701500e-01	2.476615e-04	0.0	9.752800e-01	6.636689e-04	0.0	9.799500e-01	1.007282e-03	0.0	9.841300e-01	1.190353e-03	0.0	9.878400e-01	1.191925e-03	0.0	9.910500e-01	1.044868e-03	0.0	9.937800e-01	8.101686e-04	0.0	9.960200e-01	5.519472e-04	0.0	9.977600e-01	3.204635e-04	0.0	9.990000e-01	1.448295e-04	0.0	9.997500e-01	3.632224e-05	0.0	1.000000e+00	0.000000e+00	0.0	
CELLS 200	600
2	199	0	2	0	1	2	1	2	2	2	3	2	3	4	2	4	5	2	5	6	2	6	7	2	7	8	2	8	9	2	9	10	2	10	11	2	11	12	2	12	13	2	13	14	2	14	15	2	15	16	2	16	17	2	17	18	2	18	19	2	19	20	2	20	21	2	21	22	2	22	23	2	23	24	2	24	25	2	25	26	2	26	27	2	27	28	2	28	29	2	29	30	2	30	31	2	31	32	2	32	33	2	33	34	2	34	35	2	35	36	2	36	37	2	37	38	2	38	39	2	39	40	2	40	41	2	41	42	2	42	43	2	43	44	2	44	45	2	45	46	2	46	47	2	47	48	2	48	49	2	49	50	2	50	51	2	51	52	2	52	53	2	53	54	2	54	55	2	55	56	2	56	57	2	57	58	2	58	59	2	59	60	2	60	61	2	61	62	2	62	63	2	63	64	2	64	65	2	65	66	2	66	67	2	67	68	2	68	69	2	69	70	2	70	71	2	71	72	2	72	73	2	73	74	2	74	75	2	75	76	2	76	77	2	77	78	2	78	79	2	79	80	2	80	81	2	81	82	2	82	83	2	83	84	2	84	85	2	85	86	2	86	87	2	87	88	2	88	89	2	89	90	2	90	91	2	91	92	2	92	93	2	93	94	2	94	95	2	95	96	2	96	97	2	97	98	2	98	99	2	99	100	2	100	101	2	101	102	2	102	103	2	103	104	2	104	105	2	105	106	2	106	107	2	107	108	2	108	109	2	109	110	2	110	111	2	111	112	2	112	113	2	113	114	2	114	115	2	115	116	2	116	117	2	117	118	2	118	119	2	119	120	2	120	121	2	121	122	2	122	123	2	123	124	2	124	125	2	125	126	2	126	127	2	127	128	2	128	129	2	129	130	2	130	131	2	131	132	2	132	133	2	133	134	2	134	135	2	135	136	2	136	137	2	137	138	2	138	139	2	139	140	2	140	141	2	141	142	2	142	143	2	143	144	2	144	145	2	145	146	2	146	147	2	147	148	2	148	149	2	149	150	2	150	151	2	151	152	2	152	153	2	153	154	2	154	155	2	155	156	2	156	157	2	157	158	2	158	159	2	159	160	2	160	161	2	161	162	2	162	163	2	163	164	2	164	165	2	165	166	2	166	167	2	167	168	2	168	169	2	169	170	2	170	171	2	171	172	2	172	173	2	173	174	2	174	175	2	175	176	2	176	177	2	177	178	2	178	179	2	179	180	2	180	181	2	181	182	2	182	183	2	183	184	2	184	185	2	185	186	2	186	187	2	187	188	2	188	189	2	189	190	2	190	191	2	191	192	2	192	193	2	193	194	2	194	195	2	195	196	2	196	197	2	197	198	2	198	199	
CELL_TYPES 200
3	3	3	3	3	3	3	3	3	3	3	3	3	3	3	3	3	3	3	3	3	3	3	3	3	3	3	3	3	3	3	3	3	3	3	3	3	3	3	3	3	3	3	3	3	3	3	3	3	3	3	3	3	3	3	3	3	3	3	3	3	3	3	3	3	3	3	3	3	3	3	3	3	3	3	3	3	3	3	3	3	3	3	3	3	3	3	3	3	3	3	3	3	3	3	3	3	3	3	3	3	3	3	3	3	3	3	3	3	3	3	3	3	3	3	3	3	3	3	3	3	3	3	3	3	3	3	3	3	3	3	3	3	3	3	3	3	3	3	3	3	3	3	3	3	3	3	3	3	3	3	3	3	3	3	3	3	3	3	3	3	3	3	3	3	3	3	3	3	3	3	3	3	3	3	3	3	3	3	3	3	3	3	3	3	3	3	3	3	3	3	3	3	3	3	3	3	3	3	3	
POINT_DATA 200

SCALARS Conservative_1 float 1
LOOKUP_TABLE default
-2.919674e-01	-2.656246e-01	-2.637779e-01	-2.631532e-01	-2.629327e-01	-2.597895e-01	-2.488960e-01	-2.258070e-01	-1.859699e-01	-1.249395e-01	-4.063823e-02	6.580254e-02	1.859815e-01	2.835673e-01	2.943290e-01	2.083749e-01	1.048598e-01	4.377918e-02	1.968381e-02	1.543613e-02	2.598411e-02	4.959284e-02	8.309950e-02	1.228206e-01	1.654280e-01	2.092131e-01	2.540747e-01	2.969197e-01	3.277520e-01	3.331803e-01	3.090458e-01	2.680831e-01	2.290197e-01	2.012044e-01	1.827892e-01	1.686290e-01	1.558889e-01	1.443597e-01	1.343059e-01	1.255335e-01	1.174786e-01	1.098252e-01	1.024339e-01	9.536071e-02	8.864356e-02	8.242734e-02	7.684310e-02	7.206200e-02	6.824160e-02	6.552929e-02	6.404866e-02	6.388812e-02	6.510190e-02	6.771938e-02	7.178211e-02	7.726368e-02	8.417229e-02	9.244927e-02	1.020822e-01	1.129992e-01	1.251731e-01	1.384921e-01	1.529609e-01	1.685218e-01	1.850619e-01	2.020107e-01	2.186356e-01	2.344092e-01	2.501532e-01	2.679284e-01	2.911351e-01	3.230231e-01	3.630869e-01	4.016495e-01	4.206556e-01	4.060637e-01	3.615244e-01	3.078264e-01	2.657007e-01	2.397132e-01	2.197452e-01	1.954313e-01	1.651783e-01	1.324256e-01	9.912614e-02	6.493201e-02	2.922596e-02	-7.885212e-03	-4.643720e-02	-8.648504e-02	-1.284524e-01	-1.725926e-01	-2.200004e-01	-2.706027e-01	-3.262326e-01	-3.843840e-01	-4.384561e-01	-4.805418e-01	-5.023237e-01	-4.846992e-01	-4.406422e-01	-3.440480e-01	-1.967197e-01	-6.214676e-02	3.701249e-02	1.043631e-01	1.482780e-01	1.788348e-01	2.018665e-01	2.204014e-01	2.362071e-01	2.506984e-01	2.656995e-01	2.815992e-01	2.957069e-01	3.039164e-01	3.051693e-01	3.048654e-01	3.125747e-01	3.347920e-01	3.691546e-01	4.053462e-01	4.319843e-01	4.434404e-01	4.412135e-01	4.307170e-01	4.171500e-01	4.034478e-01	3.906931e-01	3.790822e-01	3.687133e-01	3.596482e-01	3.518775e-01	3.453708e-01	3.399362e-01	3.353900e-01	3.314384e-01	3.279917e-01	3.250507e-01	3.228501e-01	3.215126e-01	3.209403e-01	3.207474e-01	3.203120e-01	3.187317e-01	3.151313e-01	3.091397e-01	3.012135e-01	2.924254e-01	2.836322e-01	2.749393e-01	2.658994e-01	2.558648e-01	2.445455e-01	2.319789e-01	2.182300e-01	2.033291e-01	1.873278e-01	1.703311e-01	1.524436e-01	1.339552e-01	1.151197e-01	9.629369e-02	7.781892e-02	6.006370e-02	4.333322e-02	2.791716e-02	1.398215e-02	1.604620e-03	-9.320184e-03	-1.899701e-02	-2.777077e-02	-3.602548e-02	-4.423536e-02	-5.292080e-02	-6.250789e-02	-7.374479e-02	-8.731985e-02	-1.040469e-01	-1.244812e-01	-1.485160e-01	-1.749763e-01	-2.015910e-01	-2.252681e-01	-2.428422e-01	-2.514513e-01	-2.487781e-01	-2.331774e-01	-2.042700e-01	-1.641147e-01	-1.198583e-01	-8.543230e-02	-7.418630e-02	-8.854414e-02	-1.196943e-01	-1.559831e-01	-1.904747e-01	-2.204861e-01	-2.533331e-01	-2.858375e-01	
SCALARS Conservative_2 float 1
LOOKUP_TABLE default
3.553851e-01	3.377954e-01	3.487398e-01	3.553505e-01	3.606392e-01	3.618863e-01	3.525229e-01	3.263226e-01	2.773981e-01	2.007475e-01	9.517640e-02	-3.368314e-02	-1.721082e-01	-2.841443e-01	-3.063702e-01	-2.215657e-01	-1.094629e-01	-4.018362e-02	-1.123106e-02	-4.386268e-03	-1.463977e-02	-4.012972e-02	-7.694490e-02	-1.205743e-01	-1.669907e-01	-2.138821e-01	-2.608203e-01	-3.048941e-01	-3.366801e-01	-3.431344e-01	-3.197537e-01	-2.788012e-01	-2.391617e-01	-2.106568e-01	-1.916089e-01	-1.768230e-01	-1.634014e-01	-1.511800e-01	-1.404677e-01	-1.310802e-01	-1.224196e-01	-1.141533e-01	-1.061325e-01	-9.842377e-02	-9.106974e-02	-8.423828e-02	-7.807487e-02	-7.278339e-02	-6.854076e-02	-6.552147e-02	-6.386823e-02	-6.368717e-02	-6.503871e-02	-6.795640e-02	-7.247812e-02	-7.857012e-02	-8.622354e-02	-9.536297e-02	-1.059515e-01	-1.178947e-01	-1.311345e-01	-1.455337e-01	-1.610556e-01	-1.776144e-01	-1.950596e-01	-2.128096e-01	-2.300856e-01	-2.463180e-01	-2.622392e-01	-2.798480e-01	-3.023728e-01	-3.329236e-01	-3.710294e-01	-4.074368e-01	-4.247088e-01	-4.091332e-01	-3.640284e-01	-3.093596e-01	-2.652962e-01	-2.364242e-01	-2.128582e-01	-1.842156e-01	-1.486554e-01	-1.094285e-01	-6.838003e-02	-2.499155e-02	2.160523e-02	7.158533e-02	1.253688e-01	1.835116e-01	2.471722e-01	3.174874e-01	3.972679e-01	4.877889e-01	5.938058e-01	7.129145e-01	8.405178e-01	9.491475e-01	9.982134e-01	9.914665e-01	9.312202e-01	7.807591e-01	5.247204e-01	3.033274e-01	1.355737e-01	2.060622e-02	-5.668800e-02	-1.111995e-01	-1.516909e-01	-1.833337e-01	-2.092523e-01	-2.316962e-01	-2.530390e-01	-2.740329e-01	-2.923458e-01	-3.041996e-01	-3.087262e-01	-3.112695e-01	-3.211829e-01	-3.448299e-01	-3.799827e-01	-4.167133e-01	-4.440301e-01	-4.564770e-01	-4.554888e-01	-4.463106e-01	-4.339914e-01	-4.214157e-01	-4.096532e-01	-3.989194e-01	-3.893198e-01	-3.809165e-01	-3.737155e-01	-3.676833e-01	-3.626552e-01	-3.584490e-01	-3.547972e-01	-3.515996e-01	-3.488588e-01	-3.467929e-01	-3.455449e-01	-3.450357e-01	-3.448905e-01	-3.444801e-01	-3.428938e-01	-3.392602e-01	-3.332135e-01	-3.252061e-01	-3.162909e-01	-3.073054e-01	-2.983563e-01	-2.889707e-01	-2.784878e-01	-2.665929e-01	-2.533104e-01	-2.386862e-01	-2.227285e-01	-2.054721e-01	-1.869944e-01	-1.674116e-01	-1.469984e-01	-1.260417e-01	-1.049212e-01	-8.404032e-02	-6.381853e-02	-4.463694e-02	-2.684211e-02	-1.066210e-02	3.804344e-03	1.665779e-02	2.814082e-02	3.865988e-02	4.868831e-02	5.881675e-02	6.968476e-02	8.187877e-02	9.634455e-02	1.140309e-01	1.360425e-01	1.631879e-01	1.953962e-01	2.311639e-01	2.673993e-01	2.997336e-01	3.235031e-01	3.343884e-01	3.289411e-01	3.049418e-01	2.623696e-01	2.049533e-01	1.434565e-01	9.678593e-02	8.143714e-02	9.947824e-02	1.394153e-01	1.860563e-01	2.283111e-01	2.577849e-01	2.795020e-01	2.728743e-01	
SCALARS Conservative_3 float 1
LOOKUP_TABLE default
-9.785109e-02	-9.175385e-02	-8.505811e-02	-9.023406e-02	-1.038752e-01	-1.267569e-01	-1.583881e-01	-1.965759e-01	-2.376600e-01	-2.756989e-01	-3.022426e-01	-3.082313e-01	-2.849643e-01	-2.283923e-01	-1.571347e-01	-1.049531e-01	-8.254897e-02	-7.847040e-02	-8.531317e-02	-9.859473e-02	-1.128751e-01	-1.243422e-01	-1.310704e-01	-1.322551e-01	-1.280125e-01	-1.192914e-01	-1.071448e-01	-9.222305e-02	-7.554862e-02	-5.911008e-02	-4.495252e-02	-3.371753e-02	-2.463637e-02	-1.711065e-02	-1.109962e-02	-6.635609e-03	-3.308082e-03	-6.669399e-04	1.613038e-03	3.592960e-03	5.309855e-03	6.719391e-03	7.827806e-03	8.565486e-03	8.918116e-03	8.832675e-03	8.317622e-03	7.378931e-03	6.061135e-03	4.422694e-03	2.542494e-03	5.067172e-04	-1.587080e-03	-3.630269e-03	-5.527166e-03	-7.160590e-03	-8.441345e-03	-9.262284e-03	-9.546014e-03	-9.192276e-03	-8.141192e-03	-6.308737e-03	-3.647163e-03	-7.394299e-05	4.486654e-03	1.012899e-02	1.682538e-02	2.451455e-02	3.306305e-02	4.268698e-02	5.378746e-02	6.695504e-02	8.290651e-02	1.014375e-01	1.205717e-01	1.374081e-01	1.507764e-01	1.628802e-01	1.772358e-01	1.952098e-01	2.148875e-01	2.337430e-01	2.513005e-01	2.684602e-01	2.856919e-01	3.026494e-01	3.189260e-01	3.343741e-01	3.488518e-01	3.620584e-01	3.735584e-01	3.823266e-01	3.869189e-01	3.840057e-01	3.676011e-01	3.274314e-01	2.446559e-01	1.173060e-01	-3.130993e-02	-1.328000e-01	-2.441417e-01	-4.409031e-01	-5.825551e-01	-6.089558e-01	-5.788410e-01	-5.295594e-01	-4.780592e-01	-4.314157e-01	-3.911460e-01	-3.564121e-01	-3.262987e-01	-3.000536e-01	-2.773280e-01	-2.575780e-01	-2.394972e-01	-2.216270e-01	-2.035437e-01	-1.864277e-01	-1.721683e-01	-1.615960e-01	-1.536693e-01	-1.461753e-01	-1.373242e-01	-1.267502e-01	-1.152125e-01	-1.037353e-01	-9.295897e-02	-8.302653e-02	-7.386976e-02	-6.540003e-02	-5.753637e-02	-5.023123e-02	-4.340647e-02	-3.699622e-02	-3.094230e-02	-2.514116e-02	-1.952570e-02	-1.401621e-02	-8.628215e-03	-3.374051e-03	1.790668e-03	7.021523e-03	1.237492e-02	1.786079e-02	2.349991e-02	2.933077e-02	3.536150e-02	4.154982e-02	4.784062e-02	5.421879e-02	6.073550e-02	6.744209e-02	7.432282e-02	8.132415e-02	8.836460e-02	9.540577e-02	1.023668e-01	1.091442e-01	1.155999e-01	1.215702e-01	1.269175e-01	1.315031e-01	1.351983e-01	1.379505e-01	1.397394e-01	1.406392e-01	1.407774e-01	1.403677e-01	1.396471e-01	1.388945e-01	1.383635e-01	1.382896e-01	1.388486e-01	1.401502e-01	1.422332e-01	1.451399e-01	1.487134e-01	1.527140e-01	1.565030e-01	1.588957e-01	1.581368e-01	1.521692e-01	1.392740e-01	1.186905e-01	9.105359e-02	5.836624e-02	2.393687e-02	-7.726477e-03	-3.091987e-02	-3.946629e-02	-2.843815e-02	2.268470e-03	4.386529e-02	8.337307e-02	1.117448e-01	1.280020e-01	1.358541e-01	1.432990e-01	1.495803e-01	5.254431e-02	
SCALARS Conservative_4 float 1
LOOKUP_TABLE default
-7.918881e-02	-6.614027e-02	-6.629209e-02	-6.645472e-02	-6.630213e-02	-6.555238e-02	-6.281272e-02	-5.696308e-02	-4.689606e-02	-3.148081e-02	-1.008195e-02	1.707931e-02	4.771980e-02	7.246956e-02	7.516295e-02	5.294409e-02	2.623829e-02	1.083336e-02	4.838139e-03	3.695801e-03	6.324288e-03	1.231796e-02	2.084647e-02	3.095019e-02	4.179675e-02	5.294348e-02	6.427475e-02	7.496036e-02	8.245493e-02	8.352927e-02	7.734523e-02	6.712210e-02	5.743514e-02	5.055093e-02	4.595201e-02	4.238476e-02	3.917130e-02	3.627072e-02	3.374710e-02	3.154201e-02	2.951917e-02	2.759361e-02	2.573777e-02	2.395954e-02	2.227438e-02	2.071360e-02	1.931276e-02	1.811597e-02	1.716079e-02	1.648651e-02	1.612032e-02	1.608748e-02	1.640108e-02	1.707176e-02	1.810421e-02	1.950111e-02	2.125348e-02	2.335718e-02	2.579836e-02	2.857016e-02	3.165297e-02	3.503459e-02	3.869704e-02	4.264251e-02	4.681758e-02	5.110233e-02	5.529421e-02	5.930639e-02	6.332218e-02	6.792222e-02	7.390565e-02	8.204056e-02	9.206359e-02	1.014784e-01	1.058558e-01	1.018863e-01	9.066923e-02	7.733974e-02	6.691167e-02	6.041369e-02	5.532753e-02	4.913318e-02	4.147300e-02	3.321150e-02	2.483903e-02	1.624543e-02	7.292557e-03	-1.998652e-03	-1.160715e-02	-2.157667e-02	-3.189756e-02	-4.275224e-02	-5.411718e-02	-6.620367e-02	-7.886167e-02	-9.172069e-02	-1.041239e-01	-1.112635e-01	-1.094140e-01	-1.066515e-01	-1.009733e-01	-7.377273e-02	-3.831988e-02	-9.162272e-03	1.266613e-02	2.759184e-02	3.778216e-02	4.505628e-02	5.071602e-02	5.528965e-02	5.926040e-02	6.289584e-02	6.666770e-02	7.067798e-02	7.428019e-02	7.644697e-02	7.688511e-02	7.687578e-02	7.876928e-02	8.422525e-02	9.274250e-02	1.018255e-01	1.086348e-01	1.116970e-01	1.113063e-01	1.087810e-01	1.054159e-01	1.019833e-01	9.876057e-02	9.582201e-02	9.319443e-02	9.089092e-02	8.892110e-02	8.726036e-02	8.588243e-02	8.472300e-02	8.372655e-02	8.284834e-02	8.209872e-02	8.152659e-02	8.117926e-02	8.102310e-02	8.096083e-02	8.083936e-02	8.043620e-02	7.953572e-02	7.803418e-02	7.604165e-02	7.382043e-02	7.158605e-02	6.939203e-02	6.710456e-02	6.456699e-02	6.170400e-02	5.852730e-02	5.506276e-02	5.131026e-02	4.727911e-02	4.297781e-02	3.846676e-02	3.378812e-02	2.903017e-02	2.426202e-02	1.959035e-02	1.509120e-02	1.086023e-02	6.954852e-03	3.435728e-03	3.022294e-04	-2.454918e-03	-4.900293e-03	-7.108118e-03	-9.179834e-03	-1.124302e-02	-1.339799e-02	-1.580569e-02	-1.861251e-02	-2.202376e-02	-2.624457e-02	-3.143794e-02	-3.756641e-02	-4.432840e-02	-5.111009e-02	-5.712506e-02	-6.156286e-02	-6.370459e-02	-6.295484e-02	-5.887723e-02	-5.135907e-02	-4.091047e-02	-2.946590e-02	-2.082329e-02	-1.826566e-02	-2.214517e-02	-2.992744e-02	-3.889479e-02	-4.719017e-02	-5.357496e-02	-6.271271e-02	-7.647662e-02	
SCALARS Surface_Sensitivity float 1
LOOKUP_TABLE default
-3.546336e+01	-5.565477e+01	-2.044976e+00	-1.014726e+00	-9.160316e-02	5.249763e-01	6.938198e-01	9.304492e-01	9.210584e-01	7.269178e-01	3.908763e+00	6.487358e+00	-3.781782e+00	-1.359182e+01	-5.934504e+00	4.377899e+00	4.727573e+00	1.041650e+00	-1.776004e-01	1.613094e-01	2.754864e-01	5.237402e-02	-1.696101e-01	2.164202e-01	1.498736e+00	2.023179e+00	-7.522361e-03	-2.907682e+00	-3.681342e+00	-1.776260e+00	7.537942e-01	1.809583e+00	1.275479e+00	3.624526e-01	-8.215006e-02	-6.900969e-02	5.032610e-02	8.141261e-02	5.060018e-02	2.246775e-02	1.909277e-02	2.187586e-02	2.412379e-02	2.336598e-02	2.467897e-02	2.517287e-02	2.581960e-02	2.478295e-02	2.305154e-02	2.055343e-02	1.894198e-02	1.719880e-02	1.627432e-02	1.565693e-02	1.567948e-02	1.833559e-02	2.274148e-02	2.555492e-02	1.841682e-02	7.536130e-03	2.211692e-02	9.031261e-02	1.365147e-01	-6.461372e-03	-3.396373e-01	-3.988882e-01	5.211534e-01	2.518123e+00	4.012342e+00	2.854535e+00	-7.933316e-01	-4.807080e+00	-7.204254e+00	-6.580508e+00	-2.829096e+00	2.097662e+00	5.125465e+00	4.586072e+00	1.719655e+00	-6.929773e-01	-1.129393e+00	-3.413343e-01	2.459590e-01	2.473904e-01	8.907858e-02	8.065555e-02	1.694882e-01	2.456250e-01	3.421336e-01	5.395494e-01	8.489533e-01	1.362176e+00	2.365025e+00	3.923482e+00	6.066356e+00	8.675497e+00	6.899440e+00	1.755080e+01	1.201062e+01	-1.081953e+01	4.064396e+01	4.521263e+01	2.856533e+01	1.615385e+01	6.261932e+00	3.123041e+00	1.866925e+00	8.729497e-01	2.653906e-01	-7.229230e-02	-1.604382e-01	8.163058e-02	5.462510e-01	6.327424e-01	-1.566145e-01	-1.547233e+00	-2.403898e+00	-1.599283e+00	8.254617e-01	3.536278e+00	4.898066e+00	4.187137e+00	1.996990e+00	-4.050126e-01	-2.044779e+00	-2.705126e+00	-2.726789e+00	-2.488892e+00	-2.174902e+00	-1.815454e+00	-1.437804e+00	-1.084581e+00	-7.920226e-01	-5.765652e-01	-4.237007e-01	-2.519480e-01	1.453964e-01	9.986263e-01	2.267253e+00	3.289402e+00	3.154873e+00	1.856940e+00	2.752477e-01	-8.526358e-01	-1.331697e+00	-1.323831e+00	-1.046163e+00	-6.282260e-01	-1.786236e-01	1.562672e-01	2.792427e-01	2.211274e-01	1.061620e-01	3.158370e-02	-2.234450e-03	-3.114538e-02	-5.042889e-02	-4.272634e-02	-2.009809e-02	-1.466584e-04	4.674752e-03	2.296441e-03	-1.203655e-03	-3.963603e-03	-5.383341e-03	-3.435390e-03	6.559229e-04	5.620874e-03	1.178183e-02	1.498910e-02	1.581659e-02	1.551998e-02	1.141411e-02	8.478274e-03	8.525941e-03	2.164525e-05	-1.467591e-02	-4.911648e-02	-1.006422e-01	-1.594499e-01	-2.049745e-01	-2.241564e-01	-1.951012e-01	-1.159716e-01	6.324538e-03	1.627936e-01	3.615704e-01	5.915593e-01	8.662209e-01	1.148092e+00	7.577281e-01	-8.016783e-01	-2.127673e+00	-1.705865e+00	-4.559834e-01	-1.831984e-01	-1.051657e+00	-2.509306e+01	-1.452941e+02	4.281586e+02	