TITLE = "SU2 Simulation"
VARIABLES = "Iteration","Sens_Geo","Sens_Mach","Sens_AoA","Sens_Press","Sens_Temp","Sens_AoS","Res_AdjFlow[0]","Res_AdjFlow[1]","Res_AdjFlow[2]","Res_AdjFlow[3]","Res_AdjFlow[4]","Linear_Solver_Iterations","CFL_Number","Time(min)"
ZONE T= "Convergence history"
        1699, -2.32150053e-01, 5.55762664e-03, 4.69740919e-04, 2.22232234e-04, 5.41570609e-03, 0.0, -5.93059050e+00, -5.68623534e+00, -5.86680348e+00, -5.88942215e+00, 0.0, 2.0000000000, 8.0000000000, 0.0007269502
        1700, -2.32315766e-01, 5.39605030e-03, 4.70060658e-04, 4.69087053e-05, 5.21578967e-03, 0.0, -5.70575236e+00, -5.64500981e+00, -5.62964559e+00, -6.01964882e+00, 0.0, 2.0000000000, 8.0000000000, 0.0010484020
        1701, -2.31634550e-01, 5.23938724e-03, 4.71669142e-04, -1.64032246e-04, 5.00341366e-03, 0.0, -5.62148538e+00, -5.55389325e+00, -5.68069386e+00, -6.06968288e+00, 0.0, 2.0000000000, 8.0000000000, 0.0013844331
        1702, -2.31134945e-01, 5.67468547e-03, 4.74942439e-04, 2.14969445e-04, 5.47087561e-03, 0.0, -5.61992993e+00, -5.54739927e+00, -5.72105959e+00, -6.06495058e+00, 0.0, 2.0000000000, 8.0000000000, 0.0017785827
        1703, -2.29301758e-01, 5.70158495e-03, 4.77250527e-04, 2.56978092e-04, 5.43258758e-03, 0.0, -5.64013639e+00, -5.56285774e+00, -5.77444377e+00, -6.10619769e+00, 0.0, 2.0000000000, 8.0000000000, 0.0020886183
        1704, -2.28989605e-01, 5.76588614e-03, 4.78569289e-04, 3.18766393e-04, 5.46515556e-03, 0.0, -5.63931638e+00, -5.54922617e+00, -5.81847167e+00, -6.12548736e+00, 0.0, 2.0000000000, 8.0000000000, 0.0023929358
        1705, -2.29633398e-01, 5.84524038e-03, 4.80812407e-04, 3.67231520e-04, 5.56838125e-03, 0.0, -5.62398217e+00, -5.51333445e+00, -5.82740806e+00, -6.09448583e+00, 0.0, 2.0000000000, 8.0000000000, 0.0027250330
        1706, -2.30321715e-01, 5.88459682e-03, 4.84346088e-04, 3.42717728e-04, 5.66782689e-03, 0.0, -5.62376553e+00, -5.49380411e+00, -5.85639603e+00, -6.09591521e+00, 0.0, 2.0000000000, 8.0000000000, 0.0032212496
        1707, -2.30876829e-01, 5.89211686e-03, 4.88352585e-04, 2.67025545e-04, 5.73931711e-03, 0.0, -5.63789285e+00, -5.49084012e+00, -5.89679302e+00, -6.10873988e+00, 0.0, 2.0000000000, 8.0000000000, 0.0037329992
        1708, -2.31418721e-01, 5.69294533e-03, 4.90881031e-04, -8.16172893e-06, 5.54303670e-03, 0.0, -5.65786844e+00, -5.49375805e+00, -5.91790575e+00, -6.11585378e+00, 0.0, 2.0000000000, 8.0000000000, 0.0041690826
        1709, -2.31948619e-01, 5.78799338e-03, 4.91908420e-04, 4.00434702e-06, 5.67332894e-03, 0.0, -5.66776338e+00, -5.49376270e+00, -5.89997359e+00, -6.10144631e+00, 0.0, 2.0000000000, 8.0000000000, 0.0045281847
        1710, -2.32667936e-01, 5.74270986e-03, 4.90268119e-04, -7.89511896e-05, 5.61645696e-03, 0.0, -5.69655323e+00, -5.50871199e+00, -5.93201303e+00, -6.13885241e+00, 0.0, 2.0000000000, 8.0000000000, 0.0048391501
        1711, -2.33462697e-01, 5.66214820e-03, 4.86263456e-04, -1.71917084e-04, 5.51330522e-03, 0.0, -5.70012248e+00, -5.51729304e+00, -5.91590640e+00, -6.13830131e+00, 0.0, 2.0000000000, 8.0000000000, 0.0051578681
        1712, -2.34323538e-01, 5.57650913e-03, 4.80410180e-04, -2.43748350e-04, 5.41178100e-03, 0.0, -5.69812283e+00, -5.52404484e+00, -5.90043883e+00, -6.14202071e+00, 0.0, 2.0000000000, 8.0000000000, 0.0054672519
        1713, -2.35227785e-01, 5.47915848e-03, 4.72988339e-04, -3.01096865e-04, 5.31047993e-03, 0.0, -5.69465326e+00, -5.53008123e+00, -5.89668628e+00, -6.14792637e+00, 0.0, 2.0000000000, 8.0000000000, 0.0057696342
        1714, -2.36143323e-01, 5.36516761e-03, 4.64178310e-04, -3.49331067e-04, 5.20619298e-03, 0.0, -5.69288569e+00, -5.53740123e+00, -5.89950108e+00, -6.15516599e+00, 0.0, 2.0000000000, 8.0000000000, 0.0060800354
        1715, -2.37023018e-01, 5.23352821e-03, 4.54183935e-04, -3.87233975e-04, 5.09822490e-03, 0.0, -5.69418663e+00, -5.54646186e+00, -5.90474540e+00, -6.16343852e+00, 0.0, 2.0000000000, 8.0000000000, 0.0064504663
        1716, -2.37819406e-01, 5.08362650e-03, 4.43235875e-04, -4.11585176e-04, 4.98528613e-03, 0.0, -5.69915989e+00, -5.55684593e+00, -5.91186682e+00, -6.17239756e+00, 0.0, 2.0000000000, 8.0000000000, 0.0067984660
        1717, -2.38493862e-01, 4.91533660e-03, 4.31573983e-04, -4.18780253e-04, 4.86604049e-03, 0.0, -5.70815234e+00, -5.56782515e+00, -5.92136363e+00, -6.18173621e+00, 0.0, 2.0000000000, 8.0000000000, 0.0071214676
        1718, -2.39018420e-01, 4.72955272e-03, 4.19451301e-04, -4.05576088e-04, 4.73972455e-03, 0.0, -5.72152018e+00, -5.57868536e+00, -5.93347666e+00, -6.19179740e+00, 0.0, 2.0000000000, 8.0000000000, 0.0074466825
        1719, -2.39378131e-01, 4.52683442e-03, 4.07126271e-04, -3.71236594e-04, 4.60448883e-03, 0.0, -5.73908327e+00, -5.58851983e+00, -5.94781699e+00, -6.20318211e+00, 0.0, 2.0000000000, 8.0000000000, 0.0079095840
        1720, -2.39554478e-01, 4.29666995e-03, 3.94818179e-04, -3.28014481e-04, 4.44463644e-03, 0.0, -5.76005909e+00, -5.59651909e+00, -5.96443226e+00, -6.21768775e+00, 0.0, 2.0000000000, 8.0000000000, 0.0082660516
        1721, -2.39586332e-01, 3.95192196e-03, 3.82734313e-04, -3.65512381e-04, 4.14679492e-03, 0.0, -5.78313877e+00, -5.60260117e+00, -5.98109183e+00, -6.24111054e+00, 0.0, 2.0000000000, 8.0000000000, 0.0086059848
        1722, -2.39700665e-01, 3.73033584e-03, 3.71358104e-04, -2.62478824e-04, 4.00025995e-03, 0.0, -5.75635394e+00, -5.56334690e+00, -5.91052673e+00, -6.16294442e+00, 0.0, 2.0000000000, 8.0000000000, 0.0089241346
        1723, -2.39845194e-01, 3.49023852e-03, 3.60980761e-04, -1.66277189e-04, 3.82899561e-03, 0.0, -5.74413368e+00, -5.53877614e+00, -5.87538039e+00, -6.11169776e+00, 0.0, 2.0000000000, 8.0000000000, 0.0092235327
        1724, -2.39881533e-01, 3.21775802e-03, 3.51520418e-04, -1.07076221e-04, 3.61400804e-03, 0.0, -5.74465019e+00, -5.52588538e+00, -5.85481620e+00, -6.09473556e+00, 0.0, 2.0000000000, 8.0000000000, 0.0095274488
        1725, -2.39779019e-01, 2.95657301e-03, 3.42900248e-04, -4.71408614e-05, 3.40660374e-03, 0.0, -5.75015237e+00, -5.51946323e+00, -5.85177392e+00, -6.09589680e+00, 0.0, 2.0000000000, 8.0000000000, 0.0098684351
        1726, -2.39614639e-01, 2.70647964e-03, 3.35001784e-04, 1.21136523e-05, 3.20571892e-03, 0.0, -5.75900145e+00, -5.51609228e+00, -5.86460197e+00, -6.10886526e+00, 0.0, 2.0000000000, 8.0000000000, 0.0101927837
        1727, -2.39466244e-01, 2.46426702e-03, 3.27750681e-04, 6.18075448e-05, 3.00720512e-03, 0.0, -5.76673731e+00, -5.51305626e+00, -5.88062143e+00, -6.12336376e+00, 0.0, 2.0000000000, 8.0000000000, 0.0105140011
        1728, -2.39351551e-01, 2.23352053e-03, 3.21167709e-04, 9.84139824e-05, 2.81520118e-03, 0.0, -5.77320776e+00, -5.51082657e+00, -5.89493042e+00, -6.13756326e+00, 0.0, 2.0000000000, 8.0000000000, 0.0108210325
        1729, -2.39252987e-01, 2.02020543e-03, 3.15314707e-04, 1.22614317e-04, 2.63661115e-03, 0.0, -5.77969668e+00, -5.51038297e+00, -5.90875473e+00, -6.15232960e+00, 0.0, 2.0000000000, 8.0000000000, 0.0111167192
        1730, -2.39158677e-01, 1.82964725e-03, 3.10228080e-04, 1.36981570e-04, 2.47752800e-03, 0.0, -5.78742043e+00, -5.51257728e+00, -5.92396844e+00, -6.16839090e+00, 0.0, 2.0000000000, 8.0000000000, 0.0114467859
        1731, -2.39074801e-01, 1.66466460e-03, 3.05893889e-04, 1.43890304e-04, 2.34124119e-03, 0.0, -5.79671525e+00, -5.51760665e+00, -5.94082474e+00, -6.18556343e+00, 0.0, 2.0000000000, 8.0000000000, 0.0117485682
        1732, -2.39014850e-01, 1.52536830e-03, 3.02262767e-04, 1.44891570e-04, 2.22816259e-03, 0.0, -5.80753175e+00, -5.52526939e+00, -5.95876296e+00, -6.20345941e+00, 0.0, 2.0000000000, 8.0000000000, 0.0121726672
        1733, -2.38987403e-01, 1.41007320e-03, 2.99274708e-04, 1.41248537e-04, 2.13686333e-03, 0.0, -5.81996848e+00, -5.53534268e+00, -5.97763721e+00, -6.22201477e+00, 0.0, 2.0000000000, 8.0000000000, 0.0124630491
        1734, -2.38993361e-01, 1.31622665e-03, 2.96873230e-04, 1.34514926e-04, 2.06498427e-03, 0.0, -5.83434471e+00, -5.54775607e+00, -5.99791369e+00, -6.24147504e+00, 0.0, 2.0000000000, 8.0000000000, 0.0127563834
        1735, -2.39030037e-01, 1.24081390e-03, 2.95006687e-04, 1.26512287e-04, 2.00954465e-03, 0.0, -5.85104353e+00, -5.56257273e+00, -6.02018326e+00, -6.26218325e+00, 0.0, 2.0000000000, 8.0000000000, 0.0130440156
        1736, -2.39095239e-01, 1.18047671e-03, 2.93624352e-04, 1.18925355e-04, 1.96702880e-03, 0.0, -5.87042591e+00, -5.57992369e+00, -6.04478138e+00, -6.28448066e+00, 0.0, 2.0000000000, 8.0000000000, 0.0133375525
        1737, -2.39188452e-01, 1.13169726e-03, 2.92673974e-04, 1.12964737e-04, 1.93364935e-03, 0.0, -5.89284430e+00, -5.59997767e+00, -6.07179328e+00, -6.30874080e+00, 0.0, 2.0000000000, 8.0000000000, 0.0136424184
        1738, -2.39310141e-01, 1.09109362e-03, 2.92102244e-04, 1.09263260e-04, 1.90576616e-03, 0.0, -5.91864129e+00, -5.62292490e+00, -6.10121088e+00, -6.33537090e+00, 0.0, 2.0000000000, 8.0000000000, 0.0139337500
        1739, -2.39460682e-01, 1.05570028e-03, 2.91856429e-04, 1.07933080e-04, 1.88025695e-03, 0.0, -5.94810321e+00, -5.64895368e+00, -6.13296977e+00, -6.36473568e+00, 0.0, 2.0000000000, 8.0000000000, 0.0142369668
        1740, -2.39639506e-01, 1.02314862e-03, 2.91885638e-04, 1.08679029e-04, 1.85473214e-03, 0.0, -5.98140630e+00, -5.67822586e+00, -6.16683706e+00, -6.39707500e+00, 0.0, 2.0000000000, 8.0000000000, 0.0145456831
        1741, -2.39844526e-01, 9.91748736e-04, 2.92141382e-04, 1.10922205e-04, 1.82761454e-03, 0.0, -6.01857847e+00, -5.71085647e+00, -6.20227333e+00, -6.43245861e+00, 0.0, 2.0000000000, 8.0000000000, 0.0148891330
        1742, -2.40071866e-01, 9.60503904e-04, 2.92577826e-04, 1.13926341e-04, 1.79813904e-03, 0.0, -6.05946878e+00, -5.74689411e+00, -6.23835762e+00, -6.47076034e+00, 0.0, 2.0000000000, 8.0000000000, 0.0151916186
        1743, -2.40315935e-01, 9.29075820e-04, 2.93152032e-04, 1.16920391e-04, 1.76629814e-03, 0.0, -6.10371283e+00, -5.78629829e+00, -6.27379425e+00, -6.51162593e+00, 0.0, 2.0000000000, 8.0000000000, 0.0155079325
        1744, -2.40569836e-01, 8.97703029e-04, 2.93824317e-04, 1.19202266e-04, 1.73273370e-03, 0.0, -6.15069562e+00, -5.82891349e+00, -6.30701628e+00, -6.55443672e+00, 0.0, 2.0000000000, 8.0000000000, 0.0158210675
        1745, -2.40826055e-01, 8.67074488e-04, 2.94558661e-04, 1.20210233e-04, 1.69857458e-03, 0.0, -6.19952693e+00, -5.87444112e+00, -6.33641746e+00, -6.59829057e+00, 0.0, 2.0000000000, 8.0000000000, 0.0161302169
        1746, -2.41077388e-01, 8.38170436e-04, 2.95323134e-04, 1.19560197e-04, 1.66523588e-03, 0.0, -6.24905457e+00, -5.92241207e+00, -6.36069749e+00, -6.64202847e+00, 0.0, 2.0000000000, 8.0000000000, 0.0164401174
        1747, -2.41318133e-01, 8.12107144e-04, 2.96090363e-04, 1.17071953e-04, 1.63422680e-03, 0.0, -6.29795063e+00, -5.97217004e+00, -6.37920461e+00, -6.68434346e+00, 0.0, 2.0000000000, 8.0000000000, 0.0167379022
        1748, -2.41546026e-01, 7.90132740e-04, 2.96838408e-04, 1.12912959e-04, 1.60714540e-03, 0.0, -6.34491274e+00, -6.02289143e+00, -6.39212149e+00, -6.72402137e+00, 0.0, 2.0000000000, 8.0000000000, 0.0170353174
        1749, -2.41768611e-01, 7.75201492e-04, 2.97555742e-04, 1.09184470e-04, 1.58757167e-03, 0.0, -6.38906012e+00, -6.07371258e+00, -6.40047370e+00, -6.76041806e+00, 0.0, 2.0000000000, 8.0000000000, 0.0173469027
        1750, -2.41953121e-01, 7.93743491e-04, 2.98292838e-04, 1.29920926e-04, 1.60727023e-03, 0.0, -6.43083529e+00, -6.12413558e+00, -6.40628871e+00, -6.79454562e+00, 0.0, 2.0000000000, 8.0000000000, 0.0176721493
        1751, -2.42019145e-01, 7.87754500e-04, 2.98909467e-04, 1.21085278e-04, 1.59658958e-03, 0.0, -6.45504421e+00, -6.16400672e+00, -6.40257923e+00, -6.80129918e+00, 0.0, 2.0000000000, 8.0000000000, 0.0180129329
        1752, -2.42097965e-01, 7.89443704e-04, 2.99405801e-04, 1.11883694e-04, 1.59412454e-03, 0.0, -6.46743000e+00, -6.19559618e+00, -6.39413950e+00, -6.80543261e+00, 0.0, 2.0000000000, 8.0000000000, 0.0183410327
        1753, -2.42242483e-01, 8.16719781e-04, 2.99857469e-04, 1.23717412e-04, 1.62155300e-03, 0.0, -6.48852190e+00, -6.22915086e+00, -6.39783739e+00, -6.82603705e+00, 0.0, 2.0000000000, 8.0000000000, 0.0186731497
        1754, -2.42305503e-01, 8.24483994e-04, 3.00269475e-04, 1.12822013e-04, 1.62466253e-03, 0.0, -6.48478117e+00, -6.24532339e+00, -6.39027061e+00, -6.81324984e+00, 0.0, 2.0000000000, 8.0000000000, 0.0189974348
        1755, -2.42313250e-01, 8.20917151e-04, 3.00568759e-04, 8.43955527e-05, 1.61318353e-03, 0.0, -6.48505144e+00, -6.25723304e+00, -6.38554435e+00, -6.81032221e+00, 0.0, 2.0000000000, 8.0000000000, 0.0193044345
        1756, -2.42323858e-01, 8.62673033e-04, 3.00867769e-04, 9.92634360e-05, 1.65551550e-03, 0.0, -6.50974396e+00, -6.28009025e+00, -6.39627541e+00, -6.83857123e+00, 0.0, 2.0000000000, 8.0000000000, 0.0197160165
        1757, -2.42418766e-01, 8.62486203e-04, 3.01005401e-04, 7.62285946e-05, 1.64642572e-03, 0.0, -6.48072937e+00, -6.27230994e+00, -6.38364856e+00, -6.80194828e+00, 0.0, 2.0000000000, 8.0000000000, 0.0202040513
        1758, -2.42451187e-01, 9.00386021e-04, 3.01214166e-04, 8.75479813e-05, 1.68274683e-03, 0.0, -6.52472403e+00, -6.29642701e+00, -6.40627246e+00, -6.84785894e+00, 0.0, 2.0000000000, 8.0000000000, 0.0205964843
        1759, -2.42471559e-01, 9.01232462e-04, 3.01314674e-04, 6.18624475e-05, 1.67385372e-03, 0.0, -6.50616612e+00, -6.28969449e+00, -6.39362645e+00, -6.82112368e+00, 0.0, 2.0000000000, 8.0000000000, 0.0209336837
        1760, -2.42479828e-01, 9.38175935e-04, 3.01417912e-04, 7.27199346e-05, 1.70845945e-03, 0.0, -6.53797647e+00, -6.31036707e+00, -6.41487742e+00, -6.85360114e+00, 0.0, 2.0000000000, 8.0000000000, 0.0212575157
        1761, -2.42520534e-01, 9.25768725e-04, 3.01377733e-04, 3.86607476e-05, 1.68358574e-03, 0.0, -6.51938077e+00, -6.30069294e+00, -6.40170825e+00, -6.82618602e+00, 0.0, 2.0000000000, 8.0000000000, 0.0215752681
        1762, -2.42576182e-01, 9.91000780e-04, 3.01435392e-04, 8.22681232e-05, 1.75244760e-03, 0.0, -6.54996688e+00, -6.31926873e+00, -6.42577620e+00, -6.86464110e+00, 0.0, 2.0000000000, 8.0000000000, 0.0218794346
        1763, -2.42642669e-01, 1.01090996e-03, 3.01531966e-04, 8.46265019e-05, 1.76711661e-03, 0.0, -6.55201735e+00, -6.31960155e+00, -6.42891283e+00, -6.85990355e+00, 0.0, 2.0000000000, 8.0000000000, 0.0222002347
        1764, -2.42614127e-01, 9.93736612e-04, 3.01519134e-04, 4.22859449e-05, 1.73772122e-03, 0.0, -6.55962431e+00, -6.32361020e+00, -6.43207389e+00, -6.85057810e+00, 0.0, 2.0000000000, 8.0000000000, 0.0225116332
        1765, -2.42614774e-01, 1.04564664e-03, 3.01491487e-04, 7.26453025e-05, 1.79213503e-03, 0.0, -6.56177790e+00, -6.33829183e+00, -6.44057357e+00, -6.86933040e+00, 0.0, 2.0000000000, 8.0000000000, 0.0228238503
        1766, -2.42665336e-01, 1.02683414e-03, 3.01309763e-04, 4.16681694e-05, 1.76217919e-03, 0.0, -6.54980368e+00, -6.32832752e+00, -6.44009797e+00, -6.84460630e+00, 0.0, 2.0000000000, 8.0000000000, 0.0232077003
        1767, -2.42699509e-01, 1.07256223e-03, 3.01210463e-04, 7.13699613e-05, 1.81063027e-03, 0.0, -6.59267878e+00, -6.35608091e+00, -6.47292169e+00, -6.89828360e+00, 0.0, 2.0000000000, 8.0000000000, 0.0235552828
        1768, -2.42730591e-01, 1.10205953e-03, 3.01161186e-04, 8.98774006e-05, 1.84022122e-03, 0.0, -6.61640180e+00, -6.37792541e+00, -6.49585848e+00, -6.91837058e+00, 0.0, 2.0000000000, 8.0000000000, 0.0238946835
        1769, -2.42762647e-01, 1.09526522e-03, 3.01100707e-04, 7.00678764e-05, 1.82648089e-03, 0.0, -6.62738461e+00, -6.39128310e+00, -6.50091731e+00, -6.91928309e+00, 0.0, 2.0000000000, 8.0000000000, 0.0243288000
        1770, -2.42755938e-01, 1.08918906e-03, 3.01001722e-04, 4.74523120e-05, 1.81390068e-03, 0.0, -6.65354796e+00, -6.41292791e+00, -6.52081033e+00, -6.94730804e+00, 0.0, 2.0000000000, 8.0000000000, 0.0246453842
        1771, -2.42764700e-01, 1.10983475e-03, 3.00862205e-04, 5.55223687e-05, 1.83393080e-03, 0.0, -6.66392235e+00, -6.43378292e+00, -6.53821528e+00, -6.97102359e+00, 0.0, 2.0000000000, 8.0000000000, 0.0249605497
        1772, -2.42765221e-01, 1.10548649e-03, 3.00639632e-04, 4.31094592e-05, 1.82468964e-03, 0.0, -6.68271656e+00, -6.45255783e+00, -6.55876255e+00, -6.98231501e+00, 0.0, 2.0000000000, 8.0000000000, 0.0252682686
        1773, -2.42764918e-01, 1.12989956e-03, 3.00429908e-04, 6.07912781e-05, 1.85054189e-03, 0.0, -6.70652521e+00, -6.47759341e+00, -6.58490016e+00, -7.01716831e+00, 0.0, 2.0000000000, 8.0000000000, 0.0255741517
        1774, -2.42770484e-01, 1.15777542e-03, 3.00347245e-04, 8.11417524e-05, 1.88068568e-03, 0.0, -6.72491591e+00, -6.49836367e+00, -6.60327915e+00, -7.02979990e+00, 0.0, 2.0000000000, 8.0000000000, 0.0258860350
        1775, -2.42775998e-01, 1.15213296e-03, 3.00229900e-04, 6.65191692e-05, 1.87037626e-03, 0.0, -6.74134864e+00, -6.51469440e+00, -6.61854156e+00, -7.04103985e+00, 0.0, 2.0000000000, 8.0000000000, 0.0261906823
        1776, -2.42764484e-01, 1.15344762e-03, 3.00101635e-04, 5.64227868e-05, 1.86828247e-03, 0.0, -6.76576735e+00, -6.53700676e+00, -6.64365597e+00, -7.06782627e+00, 0.0, 2.0000000000, 8.0000000000, 0.0264930169
        1777, -2.42757763e-01, 1.17126302e-03, 2.99965471e-04, 6.43390087e-05, 1.88615832e-03, 0.0, -6.78589733e+00, -6.56038539e+00, -6.66751856e+00, -7.09423463e+00, 0.0, 2.0000000000, 8.0000000000, 0.0268362840
        1778, -2.42757851e-01, 1.17615640e-03, 2.99766488e-04, 6.25186299e-05, 1.88888860e-03, 0.0, -6.80019886e+00, -6.58026469e+00, -6.69310096e+00, -7.11008995e+00, 0.0, 2.0000000000, 8.0000000000, 0.0271534522
        1779, -2.42755055e-01, 1.19276011e-03, 2.99587742e-04, 7.15389932e-05, 1.90596705e-03, 0.0, -6.82723725e+00, -6.60409547e+00, -6.72242334e+00, -7.14332662e+00, 0.0, 2.0000000000, 8.0000000000, 0.0274659157
        1780, -2.42775362e-01, 1.19864382e-03, 2.99433756e-04, 6.96823692e-05, 1.91025003e-03, 0.0, -6.84340957e+00, -6.62377383e+00, -6.74355715e+00, -7.16262980e+00, 0.0, 2.0000000000, 8.0000000000, 0.0277741353
        1781, -2.42766193e-01, 1.19195915e-03, 2.99262924e-04, 5.23807325e-05, 1.89943877e-03, 0.0, -6.85310571e+00, -6.63523608e+00, -6.75589656e+00, -7.16333484e+00, 0.0, 2.0000000000, 8.0000000000, 0.0281222661
        1782, -2.42764978e-01, 1.21161463e-03, 2.99085676e-04, 6.28521493e-05, 1.92041577e-03, 0.0, -6.86007990e+00, -6.65542724e+00, -6.77633942e+00, -7.18655831e+00, 0.0, 2.0000000000, 8.0000000000, 0.0284626524
        1783, -2.42775231e-01, 1.20442241e-03, 2.98851319e-04, 4.98825057e-05, 1.90946090e-03, 0.0, -6.85732632e+00, -6.65734562e+00, -6.78618503e+00, -7.17528773e+00, 0.0, 2.0000000000, 8.0000000000, 0.0287704666
        1784, -2.42777578e-01, 1.21425807e-03, 2.98608073e-04, 5.25847146e-05, 1.91930750e-03, 0.0, -6.88702682e+00, -6.68158049e+00, -6.81444308e+00, -7.21400326e+00, 0.0, 2.0000000000, 8.0000000000, 0.0290740331
        1785, -2.42789602e-01, 1.22765617e-03, 2.98396060e-04, 6.16156113e-05, 1.93370727e-03, 0.0, -6.92523992e+00, -6.71724058e+00, -6.85969385e+00, -7.26247824e+00, 0.0, 2.0000000000, 8.0000000000, 0.0293849508
        1786, -2.42806986e-01, 1.23157930e-03, 2.98219617e-04, 5.97394866e-05, 1.93682306e-03, 0.0, -6.93951398e+00, -6.73868660e+00, -6.87928620e+00, -7.27688258e+00, 0.0, 2.0000000000, 8.0000000000, 0.0297031681
        1787, -2.42808471e-01, 1.23054974e-03, 2.98004340e-04, 5.22861709e-05, 1.93409171e-03, 0.0, -6.96928039e+00, -6.76475563e+00, -6.90800292e+00, -7.30346209e+00, 0.0, 2.0000000000, 8.0000000000, 0.0300006191
        1788, -2.42816172e-01, 1.23498125e-03, 2.97754406e-04, 5.16839138e-05, 1.93817449e-03, 0.0, -6.98610317e+00, -6.78802762e+00, -6.93051656e+00, -7.32865088e+00, 0.0, 2.0000000000, 8.0000000000, 0.0303163489
        1789, -2.42829190e-01, 1.23839230e-03, 2.97476545e-04, 5.21650545e-05, 1.94148547e-03, 0.0, -7.01215292e+00, -6.81528161e+00, -6.96284819e+00, -7.35879925e+00, 0.0, 2.0000000000, 8.0000000000, 0.0306313674
        1790, -2.42849749e-01, 1.24390263e-03, 2.97184998e-04, 5.61012997e-05, 1.94779123e-03, 0.0, -7.03748883e+00, -6.84520507e+00, -7.00078332e+00, -7.39714663e+00, 0.0, 2.0000000000, 8.0000000000, 0.0309495171
        1791, -2.42860314e-01, 1.24077451e-03, 2.96888612e-04, 5.18534214e-05, 1.94406734e-03, 0.0, -7.05740941e+00, -6.86870797e+00, -7.02592992e+00, -7.41311220e+00, 0.0, 2.0000000000, 8.0000000000, 0.0312697331
        1792, -2.42873259e-01, 1.24280761e-03, 2.96586800e-04, 5.36697566e-05, 1.94672562e-03, 0.0, -7.07347124e+00, -6.89490550e+00, -7.05423420e+00, -7.44014540e+00, 0.0, 2.0000000000, 8.0000000000, 0.0316373825
        1793, -2.42880446e-01, 1.24035908e-03, 2.96296721e-04, 5.18009970e-05, 1.94412351e-03, 0.0, -7.10035524e+00, -6.92171987e+00, -7.08531851e+00, -7.46637623e+00, 0.0, 2.0000000000, 8.0000000000, 0.0319488525
        1794, -2.42895532e-01, 1.24164509e-03, 2.95984055e-04, 5.47266938e-05, 1.94614214e-03, 0.0, -7.10955564e+00, -6.94291646e+00, -7.10938890e+00, -7.48751442e+00, 0.0, 2.0000000000, 8.0000000000, 0.0322590192
        1795, -2.42901963e-01, 1.23751097e-03, 2.95677117e-04, 5.26473398e-05, 1.94180012e-03, 0.0, -7.13997332e+00, -6.97189861e+00, -7.14500314e+00, -7.51882108e+00, 0.0, 2.0000000000, 8.0000000000, 0.0325686018
        1796, -2.42917712e-01, 1.23950989e-03, 2.95353378e-04, 5.73780618e-05, 1.94497061e-03, 0.0, -7.14289568e+00, -6.98829465e+00, -7.16352620e+00, -7.53073869e+00, 0.0, 2.0000000000, 8.0000000000, 0.0328826825
        1797, -2.42916899e-01, 1.23121042e-03, 2.95047737e-04, 5.17805748e-05, 1.93583084e-03, 0.0, -7.17351383e+00, -7.01687035e+00, -7.19948318e+00, -7.56355465e+00, 0.0, 2.0000000000, 8.0000000000, 0.0331880689
        1798, -2.42935383e-01, 1.23425929e-03, 2.94725274e-04, 5.81901331e-05, 1.94042821e-03, 0.0, -7.14782673e+00, -7.00705278e+00, -7.19031912e+00, -7.53944631e+00, 0.0, 2.0000000000, 8.0000000000, 0.0335095684
        1799, -2.42937593e-01, 1.23126488e-03, 2.94429636e-04, 5.79496218e-05, 1.93778219e-03, 0.0, -7.19796673e+00, -7.05286494e+00, -7.24657739e+00, -7.60674167e+00, 0.0, 2.0000000000, 8.0000000000, 0.0338323673
        1800, -2.42946921e-01, 1.22998956e-03, 2.94119127e-04, 5.93965830e-05, 1.93722279e-03, 0.0, -7.21331356e+00, -7.07588773e+00, -7.28288365e+00, -7.62766504e+00, 0.0, 2.0000000000, 8.0000000000, 0.0341591994
        1801, -2.42952052e-01, 1.22633830e-03, 2.93819078e-04, 5.81756298e-05, 1.93380575e-03, 0.0, -7.25037028e+00, -7.10994788e+00, -7.32029226e+00, -7.67326042e+00, 0.0, 2.0000000000, 8.0000000000, 0.0344604015
        1802, -2.42957933e-01, 1.22379767e-03, 2.93533088e-04, 5.73377879e-05, 1.93172032e-03, 0.0, -7.25916206e+00, -7.12337491e+00, -7.33743186e+00, -7.67593266e+00, 0.0, 2.0000000000, 8.0000000000, 0.0347674171
        1803, -2.42958480e-01, 1.22302590e-03, 2.93262925e-04, 5.83503869e-05, 1.93173287e-03, 0.0, -7.27608324e+00, -7.14377833e+00, -7.36384421e+00, -7.70239555e+00, 0.0, 2.0000000000, 8.0000000000, 0.0350848516
        1804, -2.42959403e-01, 1.22311619e-03, 2.93010403e-04, 6.03388359e-05, 1.93270423e-03, 0.0, -7.29135664e+00, -7.16402498e+00, -7.39179604e+00, -7.72983788e+00, 0.0, 2.0000000000, 8.0000000000, 0.0353951852
        1805, -2.42964483e-01, 1.22183086e-03, 2.92771248e-04, 6.06669560e-05, 1.93191278e-03, 0.0, -7.29858508e+00, -7.17812671e+00, -7.41109964e+00, -7.74179270e+00, 0.0, 2.0000000000, 8.0000000000, 0.0357108831
        1806, -2.42969422e-01, 1.22041564e-03, 2.92541271e-04, 6.03324145e-05, 1.93083713e-03, 0.0, -7.31511692e+00, -7.19709800e+00, -7.44134515e+00, -7.76955216e+00, 0.0, 2.0000000000, 8.0000000000, 0.0360297680
        1807, -2.42973680e-01, 1.21941615e-03, 2.92324486e-04, 6.01569796e-05, 1.93015596e-03, 0.0, -7.32912218e+00, -7.21523535e+00, -7.47160896e+00, -7.79154615e+00, 0.0, 2.0000000000, 8.0000000000, 0.0364581664
        1808, -2.42978510e-01, 1.21882447e-03, 2.92120019e-04, 6.02361264e-05, 1.92989269e-03, 0.0, -7.34369287e+00, -7.23232332e+00, -7.49975173e+00, -7.81320101e+00, 0.0, 2.0000000000, 8.0000000000, 0.0369469007
        1809, -2.42984943e-01, 1.21827194e-03, 2.91928453e-04, 6.03442997e-05, 1.92963103e-03, 0.0, -7.35572023e+00, -7.24723000e+00, -7.52013875e+00, -7.82838993e+00, 0.0, 2.0000000000, 8.0000000000, 0.0373872836
        1810, -2.42992484e-01, 1.21770154e-03, 2.91748765e-04, 6.03601319e-05, 1.92931537e-03, 0.0, -7.36885118e+00, -7.26254187e+00, -7.54161683e+00, -7.84914514e+00, 0.0, 2.0000000000, 8.0000000000, 0.0378285011
        1811, -2.43000607e-01, 1.21708189e-03, 2.91581964e-04, 6.03345611e-05, 1.92891628e-03, 0.0, -7.38244421e+00, -7.27786678e+00, -7.56443616e+00, -7.86837243e+00, 0.0, 2.0000000000, 8.0000000000, 0.0382997672
        1812, -2.43008982e-01, 1.21646365e-03, 2.91427260e-04, 6.03046784e-05, 1.92850021e-03, 0.0, -7.39810369e+00, -7.29419573e+00, -7.59059864e+00, -7.89115414e+00, 0.0, 2.0000000000, 8.0000000000, 0.0388105512
        1813, -2.43017677e-01, 1.21580321e-03, 2.91284053e-04, 6.03034550e-05, 1.92802057e-03, 0.0, -7.41469661e+00, -7.31096893e+00, -7.61612817e+00, -7.91269660e+00, 0.0, 2.0000000000, 8.0000000000, 0.0392488837
        1814, -2.43026707e-01, 1.21509784e-03, 2.91150462e-04, 6.03083153e-05, 1.92747947e-03, 0.0, -7.43270801e+00, -7.32862517e+00, -7.64176884e+00, -7.93662382e+00, 0.0, 2.0000000000, 8.0000000000, 0.0397388339
        1815, -2.43036010e-01, 1.21432414e-03, 2.91025482e-04, 6.03320317e-05, 1.92685365e-03, 0.0, -7.45130778e+00, -7.34665404e+00, -7.66631323e+00, -7.95989084e+00, 0.0, 2.0000000000, 8.0000000000, 0.0402474324
        1816, -2.43045460e-01, 1.21350531e-03, 2.90907810e-04, 6.03610675e-05, 1.92617322e-03, 0.0, -7.47063874e+00, -7.36516162e+00, -7.69071655e+00, -7.98427820e+00, 0.0, 2.0000000000, 8.0000000000, 0.0407012860
        1817, -2.43054923e-01, 1.21264194e-03, 2.90796889e-04, 6.04085724e-05, 1.92543791e-03, 0.0, -7.49021879e+00, -7.38391286e+00, -7.71396770e+00, -8.00771063e+00, 0.0, 2.0000000000, 8.0000000000, 0.0412086169
        1818, -2.43064284e-01, 1.21176371e-03, 2.90691779e-04, 6.04583271e-05, 1.92467912e-03, 0.0, -7.51004938e+00, -7.40298369e+00, -7.73634197e+00, -8.03150268e+00, 0.0, 2.0000000000, 8.0000000000, 0.0417086164
        1819, -2.43073424e-01, 1.21087859e-03, 2.90592023e-04, 6.05182561e-05, 1.92390028e-03, 0.0, -7.52987322e+00, -7.42226353e+00, -7.75712137e+00, -8.05411256e+00, 0.0, 2.0000000000, 8.0000000000, 0.0422194839
        1820, -2.43082245e-01, 1.21002112e-03, 2.90496808e-04, 6.05713205e-05, 1.92313591e-03, 0.0, -7.54960115e+00, -7.44169980e+00, -7.77655587e+00, -8.07660478e+00, 0.0, 2.0000000000, 8.0000000000, 0.0426701347
        1821, -2.43090657e-01, 1.20920343e-03, 2.90405768e-04, 6.06252003e-05, 1.92239378e-03, 0.0, -7.56918916e+00, -7.46127103e+00, -7.79426228e+00, -8.09766622e+00, 0.0, 2.0000000000, 8.0000000000, 0.0431345344
        1822, -2.43098597e-01, 1.20846124e-03, 2.90318214e-04, 6.06634175e-05, 1.92171049e-03, 0.0, -7.58847678e+00, -7.48085278e+00, -7.81048341e+00, -8.11841339e+00, 0.0, 2.0000000000, 8.0000000000, 0.0436129014
        1823, -2.43106025e-01, 1.20780433e-03, 2.90233898e-04, 6.06953084e-05, 1.92109257e-03, 0.0, -7.60755858e+00, -7.50048587e+00, -7.82506662e+00, -8.13764647e+00, 0.0, 2.0000000000, 8.0000000000, 0.0441237330
        1824, -2.43112926e-01, 1.20726440e-03, 2.90152264e-04, 6.07057126e-05, 1.92057422e-03, 0.0, -7.62618621e+00, -7.51995613e+00, -7.83828018e+00, -8.15651652e+00, 0.0, 2.0000000000, 8.0000000000, 0.0444369674
        1825, -2.43119312e-01, 1.20684207e-03, 2.90073212e-04, 6.07058738e-05, 1.92015410e-03, 0.0, -7.64455563e+00, -7.53933374e+00, -7.85014952e+00, -8.17388004e+00, 0.0, 2.0000000000, 8.0000000000, 0.0447604855
        1826, -2.43125211e-01, 1.20655913e-03, 2.89996316e-04, 6.06809238e-05, 1.91985808e-03, 0.0, -7.66237575e+00, -7.55834471e+00, -7.86097642e+00, -8.19093499e+00, 0.0, 2.0000000000, 8.0000000000, 0.0450864514
        1827, -2.43130677e-01, 1.20640242e-03, 2.89921605e-04, 6.06441690e-05, 1.91967205e-03, 0.0, -7.67994985e+00, -7.57711055e+00, -7.87087997e+00, -8.20660472e+00, 0.0, 2.0000000000, 8.0000000000, 0.0454177340
        1828, -2.43135766e-01, 1.20638096e-03, 2.89848738e-04, 6.05814677e-05, 1.91961022e-03, 0.0, -7.69697093e+00, -7.59533892e+00, -7.88015011e+00, -8.22213450e+00, 0.0, 2.0000000000, 8.0000000000, 0.0457459847
        1829, -2.43140547e-01, 1.20646784e-03, 2.89777830e-04, 6.05094480e-05, 1.91964530e-03, 0.0, -7.71387356e+00, -7.61325637e+00, -7.88892131e+00, -8.23647291e+00, 0.0, 2.0000000000, 8.0000000000, 0.0460597674
        1830, -2.43145080e-01, 1.20666058e-03, 2.89708581e-04, 6.04150431e-05, 1.91978052e-03, 0.0, -7.73032711e+00, -7.63059345e+00, -7.89744794e+00, -8.25097442e+00, 0.0, 2.0000000000, 8.0000000000, 0.0463703672
        1831, -2.43149429e-01, 1.20692276e-03, 2.89641152e-04, 6.03183194e-05, 1.91997918e-03, 0.0, -7.74692542e+00, -7.64774357e+00, -7.90585610e+00, -8.26455014e+00, 0.0, 2.0000000000, 8.0000000000, 0.0466881831
        1832, -2.43153638e-01, 1.20724568e-03, 2.89575244e-04, 6.02067248e-05, 1.92023832e-03, 0.0, -7.76325616e+00, -7.66445469e+00, -7.91436080e+00, -8.27873340e+00, 0.0, 2.0000000000, 8.0000000000, 0.0470072667
        1833, -2.43157748e-01, 1.20758962e-03, 2.89511030e-04, 6.01024830e-05, 1.92051772e-03, 0.0, -7.78005078e+00, -7.68127731e+00, -7.92305294e+00, -8.29227320e+00, 0.0, 2.0000000000, 8.0000000000, 0.0473257860
        1834, -2.43161780e-01, 1.20794628e-03, 2.89448195e-04, 5.99919041e-05, 1.92081454e-03, 0.0, -7.79671377e+00, -7.69788644e+00, -7.93208832e+00, -8.30687822e+00, 0.0, 2.0000000000, 8.0000000000, 0.0476273855
        1835, -2.43165752e-01, 1.20827804e-03, 2.89386917e-04, 5.98976487e-05, 1.92109004e-03, 0.0, -7.81405682e+00, -7.71490228e+00, -7.94148362e+00, -8.32097269e+00, 0.0, 2.0000000000, 8.0000000000, 0.0479770660
        1836, -2.43169665e-01, 1.20858288e-03, 2.89326870e-04, 5.98033718e-05, 1.92134731e-03, 0.0, -7.83122143e+00, -7.73180988e+00, -7.95132170e+00, -8.33641850e+00, 0.0, 2.0000000000, 8.0000000000, 0.0483672023