# vtk DataFile Version 3.0
vtk output
ASCII
DATASET UNSTRUCTURED_GRID
POINTS 5233 float
9.997500e-01	-3.633653e-05	0.0	9.990000e-01	-1.457306e-04	0.0	9.977600e-01	-3.303315e-04	0.0	9.960200e-01	-6.050985e-04	0.0	9.937800e-01	-1.001481e-03	0.0	9.910500e-01	-1.570683e-03	0.0	9.878400e-01	-2.377778e-03	0.0	9.841300e-01	-3.490453e-03	0.0	9.799500e-01	-4.925966e-03	0.0	9.752800e-01	-6.652294e-03	0.0	9.701500e-01	-8.546190e-03	0.0	9.645400e-01	-1.045072e-02	0.0	9.584700e-01	-1.219059e-02	0.0	9.519400e-01	-1.364804e-02	0.0	9.449600e-01	-1.478940e-02	0.0	9.375400e-01	-1.567110e-02	0.0	9.296900e-01	-1.641059e-02	0.0	9.214000e-01	-1.714405e-02	0.0	9.127000e-01	-1.798155e-02	0.0	9.035800e-01	-1.899070e-02	0.0	8.940600e-01	-2.018471e-02	0.0	8.841500e-01	-2.153516e-02	0.0	8.738500e-01	-2.298834e-02	0.0	8.631800e-01	-2.447733e-02	0.0	8.521600e-01	-2.593804e-02	0.0	8.407700e-01	-2.732270e-02	0.0	8.290500e-01	-2.859115e-02	0.0	8.170100e-01	-2.972330e-02	0.0	8.046400e-01	-3.071464e-02	0.0	7.919700e-01	-3.156834e-02	0.0	7.790100e-01	-3.229720e-02	0.0	7.657800e-01	-3.291783e-02	0.0	7.522800e-01	-3.344917e-02	0.0	7.385200e-01	-3.390875e-02	0.0	7.245300e-01	-3.431132e-02	0.0	7.103200e-01	-3.466939e-02	0.0	6.958900e-01	-3.499250e-02	0.0	6.812700e-01	-3.528679e-02	0.0	6.664700e-01	-3.555677e-02	0.0	6.515000e-01	-3.580556e-02	0.0	6.363800e-01	-3.603558e-02	0.0	6.211300e-01	-3.624934e-02	0.0	6.057600e-01	-3.645006e-02	0.0	5.902800e-01	-3.664177e-02	0.0	5.747100e-01	-3.682923e-02	0.0	5.590600e-01	-3.701806e-02	0.0	5.433600e-01	-3.721407e-02	0.0	5.276100e-01	-3.742353e-02	0.0	5.118400e-01	-3.765194e-02	0.0	4.960500e-01	-3.790445e-02	0.0	4.802700e-01	-3.818462e-02	0.0	4.645100e-01	-3.849484e-02	0.0	4.487800e-01	-3.883590e-02	0.0	4.331100e-01	-3.920638e-02	0.0	4.175000e-01	-3.960377e-02	0.0	4.019700e-01	-4.002342e-02	0.0	3.865400e-01	-4.045911e-02	0.0	3.712300e-01	-4.090330e-02	0.0	3.560400e-01	-4.134797e-02	0.0	3.409900e-01	-4.178375e-02	0.0	3.261100e-01	-4.220047e-02	0.0	3.114000e-01	-4.258860e-02	0.0	2.968700e-01	-4.293829e-02	0.0	2.825500e-01	-4.323944e-02	0.0	2.684500e-01	-4.348290e-02	0.0	2.545700e-01	-4.366011e-02	0.0	2.409400e-01	-4.376274e-02	0.0	2.275700e-01	-4.378351e-02	0.0	2.144700e-01	-4.371586e-02	0.0	2.016600e-01	-4.355410e-02	0.0	1.891400e-01	-4.329309e-02	0.0	1.769300e-01	-4.292875e-02	0.0	1.650400e-01	-4.245765e-02	0.0	1.534900e-01	-4.187767e-02	0.0	1.422900e-01	-4.118719e-02	0.0	1.314400e-01	-4.038463e-02	0.0	1.209500e-01	-3.946963e-02	0.0	1.108500e-01	-3.844482e-02	0.0	1.011300e-01	-3.731001e-02	0.0	9.181000e-02	-3.606894e-02	0.0	8.290000e-02	-3.472550e-02	0.0	7.440000e-02	-3.328293e-02	0.0	6.633000e-02	-3.174885e-02	0.0	5.869000e-02	-3.012852e-02	0.0	5.149000e-02	-2.843004e-02	0.0	4.474000e-02	-2.666276e-02	0.0	3.844000e-02	-2.483434e-02	0.0	3.260000e-02	-2.295578e-02	0.0	2.723000e-02	-2.103922e-02	0.0	2.232000e-02	-1.908953e-02	0.0	1.790000e-02	-1.712750e-02	0.0	1.395000e-02	-1.515233e-02	0.0	1.049000e-02	-1.318015e-02	0.0	7.520000e-03	-1.121595e-02	0.0	5.040000e-03	-9.260369e-03	0.0	3.050000e-03	-7.306611e-03	0.0	1.560000e-03	-5.349391e-03	0.0	5.600000e-04	-3.336597e-03	0.0	6.000000e-05	-1.183366e-03	0.0	0.000000e+00	0.000000e+00	0.0	6.000000e-05	1.143256e-03	0.0	5.600000e-04	3.132732e-03	0.0	1.560000e-03	4.910572e-03	0.0	3.050000e-03	6.577746e-03	0.0	5.040000e-03	8.194284e-03	0.0	7.520000e-03	9.776435e-03	0.0	1.049000e-02	1.133997e-02	0.0	1.395000e-02	1.289335e-02	0.0	1.790000e-02	1.444073e-02	0.0	2.232000e-02	1.597690e-02	0.0	2.723000e-02	1.750924e-02	0.0	3.260000e-02	1.902764e-02	0.0	3.844000e-02	2.053387e-02	0.0	4.474000e-02	2.202335e-02	0.0	5.149000e-02	2.349169e-02	0.0	5.869000e-02	2.493665e-02	0.0	6.633000e-02	2.635387e-02	0.0	7.440000e-02	2.773932e-02	0.0	8.290000e-02	2.909087e-02	0.0	9.181000e-02	3.040341e-02	0.0	1.011300e-01	3.167530e-02	0.0	1.108500e-01	3.290363e-02	0.0	1.209500e-01	3.408474e-02	0.0	1.314400e-01	3.521877e-02	0.0	1.422900e-01	3.630173e-02	0.0	1.534900e-01	3.733235e-02	0.0	1.650400e-01	3.831046e-02	0.0	1.769300e-01	3.923514e-02	0.0	1.891400e-01	4.010504e-02	0.0	2.016600e-01	4.091990e-02	0.0	2.144700e-01	4.167905e-02	0.0	2.275700e-01	4.238320e-02	0.0	2.409400e-01	4.303194e-02	0.0	2.545700e-01	4.362550e-02	0.0	2.684500e-01	4.416406e-02	0.0	2.825500e-01	4.464701e-02	0.0	2.968700e-01	4.507477e-02	0.0	3.114000e-01	4.544713e-02	0.0	3.261100e-01	4.576320e-02	0.0	3.409900e-01	4.602245e-02	0.0	3.560400e-01	4.622413e-02	0.0	3.712300e-01	4.636680e-02	0.0	3.865400e-01	4.644905e-02	0.0	4.019700e-01	4.646934e-02	0.0	4.175000e-01	4.642577e-02	0.0	4.331100e-01	4.631637e-02	0.0	4.487800e-01	4.613911e-02	0.0	4.645100e-01	4.589158e-02	0.0	4.802700e-01	4.557169e-02	0.0	4.960500e-01	4.517699e-02	0.0	5.118400e-01	4.470488e-02	0.0	5.276100e-01	4.415337e-02	0.0	5.433600e-01	4.351949e-02	0.0	5.590600e-01	4.280152e-02	0.0	5.747100e-01	4.199665e-02	0.0	5.902800e-01	4.110399e-02	0.0	6.057600e-01	4.012237e-02	0.0	6.211300e-01	3.905229e-02	0.0	6.363800e-01	3.789499e-02	0.0	6.515000e-01	3.665337e-02	0.0	6.664700e-01	3.533326e-02	0.0	6.812700e-01	3.394292e-02	0.0	6.958900e-01	3.249201e-02	0.0	7.103200e-01	3.099217e-02	0.0	7.245300e-01	2.945866e-02	0.0	7.385200e-01	2.790422e-02	0.0	7.522800e-01	2.634221e-02	0.0	7.657800e-01	2.478674e-02	0.0	7.790100e-01	2.324707e-02	0.0	7.919700e-01	2.172784e-02	0.0	8.046400e-01	2.023229e-02	0.0	8.170100e-01	1.875883e-02	0.0	8.290500e-01	1.730529e-02	0.0	8.407700e-01	1.586256e-02	0.0	8.521600e-01	1.442259e-02	0.0	8.631800e-01	1.298072e-02	0.0	8.738500e-01	1.152463e-02	0.0	8.841500e-01	1.004812e-02	0.0	8.940600e-01	8.548536e-03	0.0	9.035800e-01	7.027880e-03	0.0	9.127000e-01	5.503924e-03	0.0	9.214000e-01	4.017973e-03	0.0	9.296900e-01	2.632346e-03	0.0	9.375400e-01	1.437984e-03	0.0	9.449600e-01	5.250391e-04	0.0	9.519400e-01	-3.441898e-05	0.0	9.584700e-01	-2.200762e-04	0.0	9.645400e-01	-8.193723e-05	0.0	9.701500e-01	2.661831e-04	0.0	9.752800e-01	6.764013e-04	0.0	9.799500e-01	1.015305e-03	0.0	9.841300e-01	1.194930e-03	0.0	9.878400e-01	1.194236e-03	0.0	9.910500e-01	1.045876e-03	0.0	9.937800e-01	8.105315e-04	0.0	9.960200e-01	5.520472e-04	0.0	9.977600e-01	3.204820e-04	0.0	9.990000e-01	1.448312e-04	0.0	9.997500e-01	3.632227e-05	0.0	1.000000e+00	0.000000e+00	0.0	1.984229e+01	2.506660e+00	0.0	1.937166e+01	4.973800e+00	0.0	1.859553e+01	7.362490e+00	0.0	1.752613e+01	9.635070e+00	0.0	1.618034e+01	1.175571e+01	0.0	1.457937e+01	1.369094e+01	0.0	1.274848e+01	1.541027e+01	0.0	1.071654e+01	1.688656e+01	0.0	8.515590e+00	1.809654e+01	0.0	6.180340e+00	1.902113e+01	0.0	3.747630e+00	1.964575e+01	0.0	1.255810e+00	1.996053e+01	0.0	-1.255810e+00	1.996053e+01	0.0	-3.747630e+00	1.964574e+01	0.0	-6.180340e+00	1.902113e+01	0.0	-8.515590e+00	1.809654e+01	0.0	-1.071654e+01	1.688656e+01	0.0	-1.274848e+01	1.541026e+01	0.0	-1.457937e+01	1.369094e+01	0.0	-1.618034e+01	1.175570e+01	0.0	-1.752613e+01	9.635070e+00	0.0	-1.859553e+01	7.362490e+00	0.0	-1.937166e+01	4.973800e+00	0.0	-1.984229e+01	2.506660e+00	0.0	-2.000000e+01	0.000000e+00	0.0	-1.984229e+01	-2.506670e+00	0.0	-1.937166e+01	-4.973800e+00	0.0	-1.859553e+01	-7.362490e+00	0.0	-1.752613e+01	-9.635080e+00	0.0	-1.618034e+01	-1.175571e+01	0.0	-1.457937e+01	-1.369094e+01	0.0	-1.274848e+01	-1.541027e+01	0.0	-1.071653e+01	-1.688656e+01	0.0	-8.515580e+00	-1.809654e+01	0.0	-6.180340e+00	-1.902113e+01	0.0	-3.747620e+00	-1.964575e+01	0.0	-1.255810e+00	-1.996053e+01	0.0	1.255810e+00	-1.996053e+01	0.0	3.747630e+00	-1.964574e+01	0.0	6.180340e+00	-1.902113e+01	0.0	8.515590e+00	-1.809654e+01	0.0	1.071654e+01	-1.688656e+01	0.0	1.274848e+01	-1.541026e+01	0.0	1.457937e+01	-1.369094e+01	0.0	1.618034e+01	-1.175570e+01	0.0	1.752614e+01	-9.635070e+00	0.0	1.859553e+01	-7.362490e+00	0.0	1.937166e+01	-4.973790e+00	0.0	1.984229e+01	-2.506660e+00	0.0	2.000000e+01	0.000000e+00	0.0	6.108360e-02	-3.781717e-02	0.0	6.595807e-01	-4.947038e-02	0.0	4.255876e-01	6.058666e-02	0.0	6.897891e-01	4.645236e-02	0.0	3.792346e-01	-5.496058e-02	0.0	9.994686e-01	-7.278826e-04	0.0	9.985579e-01	-1.337752e-03	0.0	7.733705e-01	-4.454079e-02	0.0	6.892539e-01	-4.857536e-02	0.0	-8.069217e-04	4.852045e-03	0.0	7.462604e-01	-4.618270e-02	0.0	5.833742e-01	5.561748e-02	0.0	9.928497e-01	-3.879197e-03	0.0	9.899917e-01	-5.027999e-03	0.0	5.989504e-01	5.459149e-02	0.0	7.181891e-01	-4.749597e-02	0.0	-1.237533e-03	5.750970e-04	0.0	9.866571e-01	-6.414351e-03	0.0	9.828498e-01	-8.048274e-03	0.0	-8.849726e-04	-5.210191e-03	0.0	6.445072e-01	-4.986213e-02	0.0	8.242240e-01	-3.989916e-02	0.0	7.993912e-01	-4.248207e-02	0.0	3.485025e-01	5.988222e-02	0.0	8.477202e-01	-3.682616e-02	0.0	2.473422e-01	5.582906e-02	0.0	8.698134e-01	-3.341682e-02	0.0	1.066416e-02	1.536799e-02	0.0	8.904020e-01	-2.999149e-02	0.0	7.735045e-02	-4.166095e-02	0.0	9.094311e-01	-2.688478e-02	0.0	-1.445499e-03	-2.610909e-03	0.0	9.425597e-01	-2.147140e-02	0.0	9.268431e-01	-2.417182e-02	0.0	1.838284e-02	-2.214669e-02	0.0	4.257213e-01	-5.398700e-02	0.0	8.589514e-01	-3.514408e-02	0.0	9.564901e-01	-1.818102e-02	0.0	9.785573e-01	-9.940174e-03	0.0	9.685127e-01	-1.412881e-02	0.0	1.586108e-01	-5.267220e-02	0.0	9.001169e-01	-2.838418e-02	0.0	7.599459e-01	-4.540851e-02	0.0	9.971448e-01	-2.111219e-03	0.0	5.985199e-01	-5.085911e-02	0.0	4.413772e-01	-5.366460e-02	0.0	5.359558e-01	-5.193905e-02	0.0	4.728525e-01	-5.304782e-02	0.0	5.044135e-01	-5.247511e-02	0.0	4.886217e-01	-5.275497e-02	0.0	1.252812e-01	-4.941553e-02	0.0	2.825019e-02	-2.688401e-02	0.0	3.946380e-01	-5.464109e-02	0.0	4.658155e-02	-3.364395e-02	0.0	4.101349e-01	-5.431528e-02	0.0	3.189678e-01	-5.603066e-02	0.0	3.488012e-01	-5.555809e-02	0.0	3.389748e-02	-2.917912e-02	0.0	2.898132e-01	-5.631836e-02	0.0	9.349192e-01	-2.285809e-02	0.0	1.471464e-01	-5.170289e-02	0.0	1.950037e-01	-5.486244e-02	0.0	8.612163e-02	-4.343532e-02	0.0	1.049129e-01	-4.666272e-02	0.0	5.673661e-01	-5.142195e-02	0.0	1.704187e-01	-5.352287e-02	0.0	6.139687e-01	-5.055005e-02	0.0	8.803035e-01	-3.168407e-02	0.0	2.308910e-02	-2.453512e-02	0.0	9.952403e-01	-2.933773e-03	0.0	7.199162e-03	-1.493904e-02	0.0	1.863601e-02	1.936498e-02	0.0	9.183417e-01	-2.549172e-02	0.0	9.49
[...]
POINT_DATA 5233

SCALARS Conservative_1 float 1
LOOKUP_TABLE default
1.193979e+00	1.179640e+00	1.173555e+00	1.171786e+00	1.171118e+00	1.168594e+00	1.160129e+00	1.142675e+00	1.113307e+00	1.071231e+00	1.016506e+00	9.401117e-01	8.658725e-01	8.415592e-01	8.616245e-01	9.012108e-01	9.415139e-01	9.700377e-01	9.846060e-01	9.870990e-01	9.797174e-01	9.650239e-01	9.457837e-01	9.238737e-01	8.983956e-01	8.687806e-01	8.422316e-01	8.277677e-01	8.266756e-01	8.346854e-01	8.469804e-01	8.602405e-01	8.727672e-01	8.837607e-01	8.931830e-01	9.011496e-01	9.079110e-01	9.137481e-01	9.188657e-01	9.235167e-01	9.278322e-01	9.319529e-01	9.359064e-01	9.397156e-01	9.433193e-01	9.466631e-01	9.496452e-01	9.521862e-01	9.541835e-01	9.555625e-01	9.562406e-01	9.561734e-01	9.553166e-01	9.536545e-01	9.511710e-01	9.478746e-01	9.437685e-01	9.388856e-01	9.332978e-01	9.270933e-01	9.202970e-01	9.127053e-01	9.042095e-01	8.954172e-01	8.876825e-01	8.811636e-01	8.731240e-01	8.584774e-01	8.352205e-01	8.110494e-01	7.961358e-01	7.921175e-01	7.951484e-01	8.012928e-01	8.085849e-01	8.164803e-01	8.252653e-01	8.352644e-01	8.464666e-01	8.588046e-01	8.722896e-01	8.868717e-01	9.025984e-01	9.194519e-01	9.374711e-01	9.567341e-01	9.772441e-01	9.991023e-01	1.022483e+00	1.047421e+00	1.074241e+00	1.103410e+00	1.135299e+00	1.170901e+00	1.211046e+00	1.255608e+00	1.301057e+00	1.345914e+00	1.350015e+00	1.327050e+00	1.303717e+00	1.233365e+00	1.109930e+00	1.026986e+00	9.748708e-01	9.436910e-01	9.242586e-01	9.104452e-01	8.992430e-01	8.896242e-01	8.810442e-01	8.730778e-01	8.656297e-01	8.585230e-01	8.517363e-01	8.453044e-01	8.391245e-01	8.331177e-01	8.273314e-01	8.218236e-01	8.166940e-01	8.119286e-01	8.073940e-01	8.030079e-01	7.988740e-01	7.951871e-01	7.920069e-01	7.891700e-01	7.865690e-01	7.842787e-01	7.824581e-01	7.811434e-01	7.802331e-01	7.796035e-01	7.792572e-01	7.792669e-01	7.795269e-01	7.793176e-01	7.777860e-01	7.759971e-01	7.797136e-01	7.981380e-01	8.315049e-01	8.613259e-01	8.728310e-01	8.696348e-01	8.615542e-01	8.557107e-01	8.540672e-01	8.557615e-01	8.591737e-01	8.632720e-01	8.678026e-01	8.729688e-01	8.788348e-01	8.852757e-01	8.921647e-01	8.995805e-01	9.076735e-01	9.164605e-01	9.258077e-01	9.355415e-01	9.454577e-01	9.553735e-01	9.650584e-01	9.743400e-01	9.830204e-01	9.909925e-01	9.981528e-01	1.004565e+00	1.010295e+00	1.015514e+00	1.020466e+00	1.025425e+00	1.030712e+00	1.036685e+00	1.043750e+00	1.052426e+00	1.063238e+00	1.076690e+00	1.092836e+00	1.111065e+00	1.129809e+00	1.146992e+00	1.160231e+00	1.167214e+00	1.165944e+00	1.155139e+00	1.134669e+00	1.106864e+00	1.077886e+00	1.055513e+00	1.047183e+00	1.056044e+00	1.077848e+00	1.104733e+00	1.131557e+00	1.157779e+00	1.186214e+00	1.175048e+00	9.999764e-01	9.999825e-01	9.999751e-01	9.999608e-01	9.999469e-01	9.999306e-01	9.999055e-01	9.998682e-01	9.998248e-01	9.997865e-01	9.997593e-01	9.997641e-01	9.998009e-01	9.998785e-01	9.999461e-01	1.000000e+00	1.000030e+00	1.000048e+00	1.000057e+00	1.000061e+00	1.000062e+00	1.000062e+00	1.000062e+00	1.000063e+00	1.000063e+00	1.000065e+00	1.000069e+00	1.000074e+00	1.000081e+00	1.000091e+00	1.000101e+00	1.000117e+00	1.000130e+00	1.000147e+00	1.000156e+00	1.000156e+00	1.000145e+00	1.000125e+00	1.000110e+00	1.000099e+00	1.000096e+00	1.000090e+00	1.000082e+00	1.000072e+00	1.000059e+00	1.000044e+00	1.000034e+00	1.000028e+00	1.000000e+00	9.999710e-01	9.254590e-01	9.224744e-01	8.778300e-01	9.435103e-01	9.413628e-01	1.179272e+00	1.172985e+00	8.599578e-01	9.125726e-01	1.228262e+00	8.824121e-01	8.862589e-01	1.159785e+00	1.152714e+00	8.929474e-01	8.997650e-01	1.321131e+00	1.140215e+00	1.119875e+00	1.323994e+00	9.267917e-01	8.421618e-01	8.384090e-01	7.795161e-01	8.915293e-01	7.840168e-01	9.383108e-01	9.561132e-01	9.698280e-01	8.929874e-01	9.804871e-01	1.344417e+00	8.975882e-01	9.561460e-01	1.079735e+00	9.517963e-01	9.177676e-01	8.807183e-01	1.090475e+00	1.000019e+00	8.069499e-01	9.788600e-01	8.717021e-01	1.167095e+00	9.383953e-01	9.537538e-01	9.506421e-01	9.554270e-01	9.542585e-01	9.551824e-01	8.314594e-01	1.028035e+00	9.455950e-01	9.625319e-01	9.490749e-01	9.181125e-01	9.308983e-01	1.004755e+00	9.019826e-01	9.294373e-01	8.144427e-01	8.071795e-01	8.784275e-01	8.525671e-01	9.451487e-01	8.010776e-01	9.347077e-01	9.555887e-01	1.052950e+00	1.163824e+00	1.174816e+00	9.203027e-01	9.731898e-01	8.750756e-01	1.052611e+00	1.148136e+00	8.628910e-01	8.827149e-01	9.480935e-01	8.917419e-01	8.481105e-01	8.413851e-01	8.522974e-01	9.418973e-01	9.177958e-01	9.434027e-01	1.212397e+00	1.108699e+00	9.364281e-01	7.997204e-01	1.203866e+00	8.724050e-01	8.649554e-01	9.104098e-01	8.882335e-01	9.549621e-01	9.066479e-01	1.292378e+00	1.291952e+00	8.694683e-01	1.334450e+00	8.959733e-01	8.606742e-01	8.768630e-01	8.170928e-01	8.751288e-01	1.123020e+00	8.650033e-01	8.575625e-01	1.115144e+00	1.145517e+00	1.060188e+00	8.579157e-01	8.699114e-01	8.145823e-01	1.115907e+00	1.085246e+00	8.398260e-01	1.094503e+00	1.150985e+00	1.142316e+00	8.276355e-01	8.533729e-01	7.830263e-01	7.833322e-01	7.961731e-01	7.825513e-01	8.615856e-01	8.518449e-01	8.032520e-01	8.122054e-01	9.076827e-01	7.904312e-01	7.863008e-01	9.248131e-01	8.799958e-01	9.799567e-01	9.623505e-01	1.008029e+00	9.952706e-01	1.029706e+00	1.018979e+00	1.071743e+00	1.042513e+00	1.149618e+00	1.100309e+00	1.133169e+00	1.035690e+00	1.050556e+00	1.013646e+00	1.024240e+00	9.879444e-01	1.001957e+00	9.529987e-01	9.713835e-01	9.159623e-01	9.340549e-01	8.743881e-01	9.000386e-01	7.881108e-01	7.849824e-01	7.994936e-01	7.931663e-01	8.684594e-01	8.075444e-01	9.360687e-01	8.859806e-01	8.265146e-01	1.022538e+00	9.295715e-01	8.347713e-01	9.248352e-01	9.527262e-01	1.077798e+00	9.072052e-01	9.832680e-01	8.335271e-01	8.464400e-01	7.829770e-01	8.221908e-01	1.076394e+00	1.066289e+00	7.831976e-01	1.068057e+00	1.080956e+00	7.804256e-01	7.877818e-01	1.130506e+00	1.201937e+00	1.145958e+00	1.166344e+00	9.308407e-01	9.829596e-01	1.100831e+00	8.609174e-01	1.252686e+00	1.140322e+00	9.086541e-01	8.225988e-01	8.941617e-01	8.542857e-01	1.207450e+00	1.265628e+00	9.009701e-01	9.114731e-01	9.720807e-01	1.168641e+00	8.878445e-01	9.167571e-01	8.608213e-01	1.135223e+00	9.228032e-01	9.122520e-01	8.641008e-01	8.854028e-01	1.297868e+00	8.455644e-01	1.108143e+00	9.365794e-01	8.215532e-01	9.054071e-01	9.258198e-01	9.534906e-01	8.997832e-01	9.433279e-01	9.704627e-01	8.515999e-01	1.007654e+00	9.383757e-01	9.332524e-01	1.028489e+00	8.284176e-01	9.422059e-01	8.046250e-01	1.048769e+00	1.080176e+00	7.839500e-01	8.673696e-01	1.136493e+00	1.057433e+00	1.085932e+00	1.135002e+00	1.091347e+00	7.895413e-01	7.857376e-01	7.909688e-01	8.341796e-01	9.215134e-01	8.242153e-01	9.791036e-01	8.127895e-01	8.786275e-01	1.117823e+00	1.098599e+00	1.067413e+00	8.142613e-01	1.209892e+00	1.133069e+00	1.114890e+00	1.044881e+00	1.147007e+00	1.201607e+00	1.331906e+00	1.322295e+00	1.080782e+00	1.211333e+00	9.316528e-01	1.163384e+00	1.152907e+00	8.794551e-01	9.491225e-01	1.119545e+00	9.477736e-01	8.943204e-01	1.145908e+00	1.322898e+00	9.519949e-01	8.683872e-01	8.876887e-01	7.873477e-01	9.319634e-01	9.609479e-01	9.151916e-01	9.745419e-01	9.623263e-01	9.070798e-01	1.031393e+00	9.070554e-01	9.870020e-01	1.097184e+00	8.389220e-01	8.813335e-01	8.712711e-01	1.158209e+00	9.542953e-01	9.544402e-01	9.539373e-01	1.055384e+00	9.469206e-01	9.498151e-01	9.287508e-01	9.877998e-01	9.455836e-01	9.246247e-01	8.299251e-01	8.720432e-01	9.465955e-01	9.372066e-01	1.033087e+00	1.068474e+00	8.984905e-01	8.905159e-01	8.598537e-01	8.488220e-01	9.437376e-01	9.405774e-01	9.679803e-01	9.492743e-01	1.137294e+00	9.341519e-01	9.390525e-01	8.100105e-01	8.120435e-01	8.674899e-01	8.815807e-01	9.086455e-01	9.161547e-01	8.888630e-01	1.305839e+00	1.236171e+00	8.880148e-01	1.082095e+00	8.715833e-01	8.638853e-01	8.621189e-01	8.633905e-01	1.104434e+00	1.128577e+00	1.103664e+00	8.685926e-01	8.760945e-01	8.384826e-01	1.090999e+00	1.133252e+00	8.618638e-01	8.699516e-01	7.884430e-01	7.876808e-01	8.084781e-01	8.176968e-01	8.229528e-01	1.005651e+00	9.772262e-01	9.688681e-01	9.993490e-01	1.022817e+00	1.078671e+00	1.041204e+00	1.034532e+00	1.017287e+00	1.011627e+00	9.924952e-01	9.851168e-01	9.601624e-01	9.512239e-01	9.245191e-01	9.161804e-01	8.817396e-01	8.763165e-01	9.083782e-01	9.011224e-01	7.927708e-01	7.950712e-01	7.978690e-01	8.011107e-01	9.567261e-01	8.984007e-01	9.100432e-01	8.464307e-01	8.495821e-01	9.528573e-01	9.512206e-01	1.092373e+00	9.231577e-01	8.403917e-01	8.471002e-01	7.871107e-01	7.873470e-01	8.052927e-01	7.873917e-01	1.125991e+00	1.115724e+00	9.336135e-01	9.298470e-01	1.008869e+00	1.269957e+00	8.943047e-01	1.296289e+00	9.449443e-01	9.075805e-01	8.646134e-01	9.497926e-01	9.658781e-01	1.091643e+00	1.088834e+00	1.121606e+00	1.100160e+00	1.100027e+00	1.150714e+00	1.175852e+00	1.153348e+00	1.195088e+00	1.081826e+00	1.284337e+00	8.932598e-01	9.562036e-01	1.131917e+00	8.900833e-01	1.170939e+00	1.191369e+00	9.106304e-01	1.249759e+00	9.046745e-01	1.107048e+00	9.428393e-01	1.162141e+00	9.269853e-01	9.279799e-01	9.159509e-01	1.141277e+00	1.134075e+00	1.098329e+00	8.742220e-01	1.123859e+00	9.334072e-01	1.112025e+00	8.703069e-01	7.922769e-01	7.896170e-01	8.142255e-01	8.703548e-01	1.164369e+00	1.272008e+00	1.190811e+00	9.728332e-01	1.242750e+00	9.839456e-01	9.074107e-01	1.313885e+00	8.293253e-01	9.531256e-01	1.057836e+00	1.024136e+00	1.027221e+00	1.003640e+00	9.418602e-01	1.091398e+00	1.124511e+00	1.063366e+00	1.054564e+00	7.911731e-01	7.919618e-01	7.958275e-01	8.411211e-01	9.250053e-01	9.206899e-01	8.407527e-01	9.961025e-01	8.185256e-01	1.107103e+00	1.124063e+00	1.058761e+00	1.145376e+00	1.220934e+00	1.308066e+00	1.034856e+00	1.180164e+00	1.174122e+00	1.022433e+00	1.119662e+00	8.963808e-01	9.520392e-01	8.783624e-01	8.866262e-01	9.089212e-01	9.549799e-01	9.644354e-01	9.386228e-01	9.225513e-01	9.699481e-01	9.706075e-01	9.304470e-01	9.480194e-01	1.103046e+00	8.814740e-01	8.726813e-01	1.147078e+00	9.536004e-01	9.534426e-01	9.479647e-01	9.503109e-01	1.013431e+00	9.431901e-01	9.318373e-01	8.471203e-01	8.378481e-01	9.476782e-01	9.452208e-01	1.054317e+00	1.081014e+00	8.978530e-01	8.901044e-01	8.801280e-01	8.678583e-01	8.568607e-01	9.424295e-01	9.393998e-01	9.933650e-01	9.741145e-01	9.557761e-01	9.322252e-01	9.370346e-01	9.412805e-01	8.230669e-01	8.208158e-01	8.260725e-01	8.613956e-01	8.788864e-01	9.146206e-01	9.211375e-01	8.892941e-01	8.986890e-01	8.675936e-01	8.671795e-01	1.115460e+00	8.700845e-01	8.759297e-01	8.813756e-01	8.584047e-01	1.093850e+00	8.791189e-01	8.885433e-01	7.930440e-01	7.942599e-01	8.233360e-01	8.290172e-01	8.350585e-01	9.753561e-01	1.083365e+00	1.072974e+00	1.046674e+00	1.039616e+00	1.033272e+00	1.021369e+00	1.015651e+00	1.009776e+00	9.972401e-01	9.903844e-01	9.830700e-01	9.672929e-01	9.589342e-01	9.504364e-01	9.251466e-01	8.840163e-01	8.788401e-01	9.173258e-01	9.099300e-01	9.029935e-01	7.977706e-01	8.000694e-01	8.028969e-01	8.062548e-01	8.101294e-01	9.098646e-01	9.226053e-01	8.589723e-01	8.592208e-01	8.682112e-01	9.527462e-01	9.514823e-01	9.370621e-01	9.534467e-01	8.475321e-01	8.545927e-01	8.621958e-01	7.918710e-01	8.258780e-01	8.001490e-01	7.900445e-01	1.119824e+00	1.112952e+00	1.104042e+00	9.361267e-01	9.326637e-01	9.289568e-01	8.953311e-01	9.010108e-01	1.271377e+00	9.016945e-01	1.118666e+00	1.096603e+00	9.485687e-01	1.258191e+00	1.157969e+00	9.629139e-01	9.560662e-01	1.037694e+00	1.101073e+00	8.743425e-01	1.248832e+00	1.010135e+00	1.179348e+00	1.113815e+00	1.109046e+00	1.176340e+00	9.336905e-01	1.140056e+00	1.180879e+00	1.181057e+00	8.703200e-01	8.394988e-01	1.082008e+00	9.461981e-01	9.156011e-01	9.518044e-01	9.137947e-01	1.094515e+00	8.924405e-01	1.114358e+00	1.112464e+00	1.002090e+00	8.253795e-01	7.985697e-01	1.118617e+00	8.882301e-01	9.402722e-01	1.136774e+00	1.095852e+00	1.143320e+00	1.044246e+00	1.104823e+00	9.153532e-01	1.204934e+00	9.105248e-01	9.042105e-01	1.129256e+00	1.128759e+00	1.154280e+00	1.025599e+00	8.765863e-01	7.970654e-01	1.219076e+00	1.036859e+00	9.423753e-01	1.060037e+00	7.962682e-01	7.974449e-01	7.977623e-01	9.243026e-01	9.203418e-01	1.101081e+00	1.067460e+00	1.102820e+00	1.229388e+00	1.283885e+00	1.059357e+00	1.017368e+00	1.105269e+00	8.995110e-01	9.089244e-01	9.263038e-01	9.513821e-01	9.602782e-01	9.458521e-01	9.302985e-01	9.662725e-01	9.688506e-01	9.676299e-01	9.631166e-01	9.879042e-01	8.826805e-01	8.774176e-01	1.136940e+00	9.525600e-01	9.527357e-01	9.486442e-01	9.505016e-01	9.501323e-01	9.506254e-01	8.565982e-01	8.467813e-01	9.464734e-01	1.067797e+00	1.088396e+00	8.983558e-01	8.903059e-01	8.886519e-01	8.768083e-01	8.664693e-01	9.440393e-01	9.414064e-01	1.018074e+00	9.987508e-01	9.798364e-01	9.621652e-01	9.306866e-01	9.353391e-01	9.394528e-01	9.431081e-01	8.349667e-01	8.352273e-01	8.427223e-01	8.577037e-01	8.749390e-01	9.256174e-01	9.199125e-01	8.882684e-01	8.724475e-01	1.106337e+00	1.110942e+00	8.733905e-01	8.769279e-01	8.815236e-01	8.825956e-01	8.721068e-01	8.984947e-01	9.096738e-01	7.997986e-01	8.015832e-01	8.302296e-01	8.355646e-01	8.419870e-01	8.487327e-01	1.085942e+00	1.077111e+00	1.068438e+00	1.052178e+00	1.045042e+00	1.038493e+00	1.031599e+00	1.020538e+00	1.014007e+00	1.008108e+00	9.954309e-01	9.888266e-01	9.814299e-01	9.742355e-01	9.660995e-01	9.585381e-01	9.499334e-01	8.817731e-01	8.860128e-01	9.265759e-01	9.183554e-01	9.120537e-01	9.045917e-01	8.036227e-01	8.061116e-01	8.087736e-01	8.120329e-01	8.158591e-01	8.203509e-01	9.214475e-01	9.346379e-01	8.712247e-01	8.765358e-01	8.900134e-01	9.523627e-01	9.516414e-01	9.502238e-01	9.501195e-01	9.674459e-01	9.869527e-01	8.554608e-01	8.625201e-01	8.705445e-01	8.791168e-01	8.470010e-01	8.187737e-01	8.015459e-01	7.959835e-01	1.094390e+00	1.108159e+00	1.102114e+00	9.383814e-01	9.353646e-01	9.318374e-01	9.284292e-01	8.962793e-01	9.021018e-01	9.076147e-01	1.124314e+00	1.115456e+00	1.039077e+00	1.171668e+00	1.146655e+00	9.081373e-01	9.108279e-01	1.168495e+00	1.098242e+00	1.211303e+00	1.060390e+00	8.524447e-01	8.384288e-01	1.046497e+00	1.134595e+00	1.229483e+00	1.289727e+00	1.290862e+00	1.276055e+00	1.228545e+00	1.137625e+00	8.032417e-01	1.059001e+00	1.117616e+00	9.647054e-01	8.826380e-01	9.472640e-01	1.106822e+00	1.087176e+00	1.102570e+00	8.912379e-01	8.823673e-01	9.385796e-01	9.971798e-01	8.789475e-01	9.483462e-01	8.019328e-01	1.101503e+00	9.244032e-01	1.157818e+00	1.097138e+00	1.284798e+00	1.176752e+00	1.169358e+00	9.646848e-01	1.041139e+00	1.246808e+00	1.021554e+00	1.190316e+00	1.106015e+00	1.164720e+00	1.171936e+00	1.171757e+00	1.102741e+00	9.242425e-01	9.192844e-01	1.098098e+00	9.017866e-01	1.105273e+00	1.106429e+00	9.178205e-01	1.198356e+00	8.025883e-01	8.039525e-01	8.038453e-01	9.260279e-01	1.073551e+00	1.103327e+00	1.258654e+00	1.081981e+00	9.277201e-01	9.389936e-01	9.497435e-01	9.580896e-01	9.385537e-01	9.540445e-01	9.645176e-01	9.681912e-01	9.692473e-01	9.681547e-01	9.953140e-01	1.017466e+00	8.894534e-01	1.126379e+00	9.515266e-01	9.518944e-01	9.490669e-01	9.503540e-01	9.669478e-01	9.769826e-01	8.662181e-01	8.558303e-01	1.077210e+00	1.093120e+00	8.988923e-01	8.977886e-01	8.853726e-01	8.780067e-01	9.442968e-01	1.022611e+00	1.004061e+00	9.859855e-01	9.698942e-01	9.292420e-01	9.337240e-01	9.377924e-01	9.414639e-01	9.444689e-01	8.469774e-01	8.508676e-01	8.568266e-01	8.706854e-01	8.844247e-01	1.100591e+00	1.103222e+00	1.105241e+00	8.777830e-01	8.813896e-01	8.837822e-01	8.851820e-01	8.797286e-01	9.089910e-01	9.208946e-01	8.062230e-01	8.070279e-01	8.418601e-01	8.492255e-01	8.568054e-01	1.079097e+00	1.072040e+00	1.064109e+00	1.056878e+00	1.049704e+00	1.043101e+00	1.036343e+00	1.027162e+00	1.019056e+00	1.009268e+00	9.837939e-01	9.693169e-01	9.540704e-01	9.237072e-01	9.109455e-01	8.104573e-01	8.119333e-01	8.160909e-01	8.179323e-01	8.229559e-01	8.274262e-01	8.325788e-01	9.335652e-01	9.469635e-01	8.860133e-01	8.934779e-01	9.105573e-01	9.518377e-01	9.508839e-01	9.623809e-01	9.804399e-01	9.997142e-01	8.642552e-01	8.717274e-01	8.798148e-01	8.894337e-01	8.990950e-01	8.614798e-01	8.369060e-01	8.181617e-01	8.059432e-01	1.098780e+00	1.092294e+00	9.391114e-01	9.330467e-01	8.952458e-01	9.028564e-01	9.089026e-01	9.136578e-01	1.164080e+00	1.144913e+00	1.157874e+00	1.247449e+00	1.174216e+00	1.069131e+00	1.101071e+00	1.180595e+00	1.099139e+00	1.139387e+00	1.096153e+00	1.236829e+00	1.061506e+00	1.138603e+00	8.100445e-01	1.172768e+00	1.077165e+00	1.153625e+00	1.119068e+00	1.053663e+00	9.493627e-01	1.098436e+00	9.258541e-01	9.797344e-01	9.734797e-01	9.370582e-01	9.200263e-01	8.627560e-01	1.209345e+00	9.485442e-01	9.483218e-01	9.344627e-01	8.536543e-01	1.097311e+00	1.082042e+00	1.206353e+00	1.053256e+00	1.037271e+00	1.164295e+00	1.097232e+00	1.286484e+00	1.224577e+00	1.107316e+00	9.078140e-01	8.856982e-01	8.853337e-01	1.105251e+00	1.168095e+00	1.120531e+00	1.262315e+00	1.171818e+00	1.044295e+00	1.194126e+00	1.176546e+00	9.019235e-01	1.080624e+00	1.098837e+00	1.096324e+00	8.918003e-01	8.091817e-01	8.109616e-01	9.160996e-01	1.102417e+00	1.128351e+00	1.100457e+00	9.449039e-01	9.604211e-01	9.621332e-01	9.701364e-01	9.730479e-01	1.020066e+00	1.116788e+00	9.506597e-01	9.891023e-01	1.003137e+00	8.719548e-01	1.083340e+00	9.000311e-01	8.944017e-01	9.020440e-01	8.876620e-01	9.464709e-01	1.026948e+00	1.008493e+00	9.914784e-01	9.795316e-01	9.341988e-01	9.412853e-01	9.458371e-01	8.664873e-01	8.856915e-01	1.098059e+00	1.098869e+00	8.888872e-01	8.771302e-01	9.318610e-01	8.149888e-01	8.648947e-01	1.015513e+00	1.069880e+00	1.056464e+00	1.043731e+00	1.033153e+00	1.024428e+00	1.004748e+00	9.925114e-01	9.792356e-01	9.651878e-01	9.505220e-01	9.358663e-01	9.228320e-01	9.122436e-01	8.207427e-01	8.276359e-01	8.355132e-01	8.389530e-01	8.462160e-01	9.458008e-01	9.594763e-01	8.952368e-01	9.064186e-01	9.282990e-01	9.513484e-01	9.508757e-01	9.742885e-01	9.918733e-01	1.011011e+00	1.030992e+00	8.737221e-01	8.816247e-01	8.898530e-01	8.995906e-01	9.115045e-01	9.188929e-01	8.435158e-01	8.197043e-01	1.095187e+00	1.090199e+00	9.422498e-01	9.310475e-01	9.241038e-01	9.053441e-01	9.170644e-01	1.109889e+00	1.162792e+00	1.158844e+00	1.127238e+00	1.006112e+00	1.103116e+00	1.169027e+00	1.133467e+00	1.163793e+00	1.114155e+00	1.146180e+00	1.123764e+00	1.100519e+00	1.186586e+00	1.216427e+00	1.094425e+00	9.092634e-01	8.217412e-01	1.116658e+00	9.765857e-01	1.079402e+00	9.367881e-01	1.079242e+00	1.147838e+00	9.471022e-01	9.980007e-01	9.353264e-01	9.479585e-01	1.063843e+00	1.076076e+00	1.062563e+00	1.047658e+00	1.165560e+00	1.097183e+00	1.099497e+00	1.093385e+00	8.172837e-01	9.128367e-01	9.227766e-01	9.695866e-01	1.141753e+00	1.149406e+00	1.262367e+00	1.050744e+00	1.093936e+00	1.168938e+00	1.087593e+00	1.165351e+00	1.130852e+00	9.498786e-01	1.204678e+00	9.593427e-01	9.431801e-01	1.095711e+00	1.224229e+00	1.037245e+00	1.098117e+00	9.157415e-01	1.238722e+00	1.170596e+00	9.857234e-01	1.191997e+00	1.178551e+00	8.938355e-01	1.097047e+00	1.091465e+00	9.023095e-01	8.166721e-01	9.232582e-01	1.122086e+00	1.143375e+00	9.581448e-01	9.693649e-01	9.806541e-01	9.872075e-01	1.108368e+00	9.493015e-01	1.010211e+00	1.023471e+00	9.437442e-01	9.123889e-01	9.281234e-01	9.047326e-01	9.272808e-01	9.109566e-01	8.956033e-01	1.029890e+00	9.315408e-01	9.384056e-01	8.823735e-01	8.762209e-01	9.294325e-01	1.094889e+00	8.907668e-01	8.924474e-01	8.726292e-01	1.072795e+00	1.061476e+00	1.021086e+00	1.049695e+00	1.038989e+00	1.029776e+00	1.011477e+00	1.000388e+00	9.881999e-01	9.752808e-01	9.616923e-01	9.476703e-01	9.344837e-01	8.208487e-01	8.266548e-01	8.340146e-01	8.424264e-01	8.504783e-01	8.618781e-01	9.568553e-01	9.716982e-01	9.047436e-01	9.446204e-01	9.506181e-01	9.507464e-01	9.858018e-01	1.001988e+00	1.020395e+00	1.038864e+00	1.058436e+00	8.838127e-01	8.932439e-01	9.010912e-01	9.101057e-01	9.217771e-01	8.875112e-01	8.655234e-01	8.380533e-01	1.088494e+00	1.081904e+00	9.447718e-01	9.404617e-01	8.828059e-01	8.993027e-01	9.145147e-01	9.241058e-01	1.144563e+00	1.151608e+00	1.149244e+00	1.112329e+00	1.151735e+00	1.130693e+00	1.115764e+00	1.015427e+00	1.166377e+00	1.116419e+00	1.113077e+00	1.048774e+00	1.159555e+00	1.090084e+00	8.276499e-01	1.135086e+00	1.139118e+00	1.108573e+00	1.164477e+00	1.080279e+00	9.051240e-01	1.008518e+00	9.851118e-01	9.143235e-01	1.130878e+00	1.124007e+00	1.120301e+00	1.167041e+00	1.151745e+00	9.136834e-01	9.