# vtk DataFile Version 3.0
vtk output
ASCII
DATASET UNSTRUCTURED_GRID
POINTS 200 float
9.997500e-01	-3.633653e-05	0.0	9.990000e-01	-1.457306e-04	0.0	9.977600e-01	-3.303315e-04	0.0	9.960200e-01	-6.050985e-04	0.0	9.937800e-01	-1.001481e-03	0.0	9.910500e-01	-1.570683e-03	0.0	9.878400e-01	-2.377778e-03	0.0	9.841300e-01	-3.490453e-03	0.0	9.799500e-01	-4.925966e-03	0.0	9.752800e-01	-6.652294e-03	0.0	9.701500e-01	-8.546190e-03	0.0	9.645400e-01	-1.045072e-02	0.0	9.584700e-01	-1.219059e-02	0.0	9.519400e-01	-1.364804e-02	0.0	9.449600e-01	-1.478940e-02	0.0	9.375400e-01	-1.567110e-02	0.0	9.296900e-01	-1.641059e-02	0.0	9.214000e-01	-1.714405e-02	0.0	9.127000e-01	-1.798155e-02	0.0	9.035800e-01	-1.899070e-02	0.0	8.940600e-01	-2.018471e-02	0.0	8.841500e-01	-2.153516e-02	0.0	8.738500e-01	-2.298834e-02	0.0	8.631800e-01	-2.447733e-02	0.0	8.521600e-01	-2.593804e-02	0.0	8.407700e-01	-2.732270e-02	0.0	8.290500e-01	-2.859115e-02	0.0	8.170100e-01	-2.972330e-02	0.0	8.046400e-01	-3.071464e-02	0.0	7.919700e-01	-3.156834e-02	0.0	7.790100e-01	-3.229720e-02	0.0	7.657800e-01	-3.291783e-02	0.0	7.522800e-01	-3.344917e-02	0.0	7.385200e-01	-3.390875e-02	0.0	7.245300e-01	-3.431132e-02	0.0	7.103200e-01	-3.466939e-02	0.0	6.958900e-01	-3.499250e-02	0.0	6.812700e-01	-3.528679e-02	0.0	6.664700e-01	-3.555677e-02	0.0	6.515000e-01	-3.580556e-02	0.0	6.363800e-01	-3.603558e-02	0.0	6.211300e-01	-3.624934e-02	0.0	6.057600e-01	-3.645006e-02	0.0	5.902800e-01	-3.664177e-02	0.0	5.747100e-01	-3.682923e-02	0.0	5.590600e-01	-3.701806e-02	0.0	5.433600e-01	-3.721407e-02	0.0	5.276100e-01	-3.742353e-02	0.0	5.118400e-01	-3.765194e-02	0.0	4.960500e-01	-3.790445e-02	0.0	4.802700e-01	-3.818462e-02	0.0	4.645100e-01	-3.849484e-02	0.0	4.487800e-01	-3.883590e-02	0.0	4.331100e-01	-3.920638e-02	0.0	4.175000e-01	-3.960377e-02	0.0	4.019700e-01	-4.002342e-02	0.0	3.865400e-01	-4.045911e-02	0.0	3.712300e-01	-4.090330e-02	0.0	3.560400e-01	-4.134797e-02	0.0	3.409900e-01	-4.178375e-02	0.0	3.261100e-01	-4.220047e-02	0.0	3.114000e-01	-4.258860e-02	0.0	2.968700e-01	-4.293829e-02	0.0	2.825500e-01	-4.323944e-02	0.0	2.684500e-01	-4.348290e-02	0.0	2.545700e-01	-4.366011e-02	0.0	2.409400e-01	-4.376274e-02	0.0	2.275700e-01	-4.378351e-02	0.0	2.144700e-01	-4.371586e-02	0.0	2.016600e-01	-4.355410e-02	0.0	1.891400e-01	-4.329309e-02	0.0	1.769300e-01	-4.292875e-02	0.0	1.650400e-01	-4.245765e-02	0.0	1.534900e-01	-4.187767e-02	0.0	1.422900e-01	-4.118719e-02	0.0	1.314400e-01	-4.038463e-02	0.0	1.209500e-01	-3.946963e-02	0.0	1.108500e-01	-3.844482e-02	0.0	1.011300e-01	-3.731001e-02	0.0	9.181000e-02	-3.606894e-02	0.0	8.290000e-02	-3.472550e-02	0.0	7.440000e-02	-3.328293e-02	0.0	6.633000e-02	-3.174885e-02	0.0	5.869000e-02	-3.012852e-02	0.0	5.149000e-02	-2.843004e-02	0.0	4.474000e-02	-2.666276e-02	0.0	3.844000e-02	-2.483434e-02	0.0	3.260000e-02	-2.295578e-02	0.0	2.723000e-02	-2.103922e-02	0.0	2.232000e-02	-1.908953e-02	0.0	1.790000e-02	-1.712750e-02	0.0	1.395000e-02	-1.515233e-02	0.0	1.049000e-02	-1.318015e-02	0.0	7.520000e-03	-1.121595e-02	0.0	5.040000e-03	-9.260369e-03	0.0	3.050000e-03	-7.306611e-03	0.0	1.560000e-03	-5.349391e-03	0.0	5.600000e-04	-3.336597e-03	0.0	6.000000e-05	-1.183366e-03	0.0	0.000000e+00	0.000000e+00	0.0	6.000000e-05	1.143256e-03	0.0	5.600000e-04	3.132732e-03	0.0	1.560000e-03	4.910572e-03	0.0	3.050000e-03	6.577746e-03	0.0	5.040000e-03	8.194284e-03	0.0	7.520000e-03	9.776435e-03	0.0	1.049000e-02	1.133997e-02	0.0	1.395000e-02	1.289335e-02	0.0	1.790000e-02	1.444073e-02	0.0	2.232000e-02	1.597690e-02	0.0	2.723000e-02	1.750924e-02	0.0	3.260000e-02	1.902764e-02	0.0	3.844000e-02	2.053387e-02	0.0	4.474000e-02	2.202335e-02	0.0	5.149000e-02	2.349169e-02	0.0	5.869000e-02	2.493665e-02	0.0	6.633000e-02	2.635387e-02	0.0	7.440000e-02	2.773932e-02	0.0	8.290000e-02	2.909087e-02	0.0	9.181000e-02	3.040341e-02	0.0	1.011300e-01	3.167530e-02	0.0	1.108500e-01	3.290363e-02	0.0	1.209500e-01	3.408474e-02	0.0	1.314400e-01	3.521877e-02	0.0	1.422900e-01	3.630173e-02	0.0	1.534900e-01	3.733235e-02	0.0	1.650400e-01	3.831046e-02	0.0	1.769300e-01	3.923514e-02	0.0	1.891400e-01	4.010504e-02	0.0	2.016600e-01	4.091990e-02	0.0	2.144700e-01	4.167905e-02	0.0	2.275700e-01	4.238320e-02	0.0	2.409400e-01	4.303194e-02	0.0	2.545700e-01	4.362550e-02	0.0	2.684500e-01	4.416406e-02	0.0	2.825500e-01	4.464701e-02	0.0	2.968700e-01	4.507477e-02	0.0	3.114000e-01	4.544713e-02	0.0	3.261100e-01	4.576320e-02	0.0	3.409900e-01	4.602245e-02	0.0	3.560400e-01	4.622413e-02	0.0	3.712300e-01	4.636680e-02	0.0	3.865400e-01	4.644905e-02	0.0	4.019700e-01	4.646934e-02	0.0	4.175000e-01	4.642577e-02	0.0	4.331100e-01	4.631637e-02	0.0	4.487800e-01	4.613911e-02	0.0	4.645100e-01	4.589158e-02	0.0	4.802700e-01	4.557169e-02	0.0	4.960500e-01	4.517699e-02	0.0	5.118400e-01	4.470488e-02	0.0	5.276100e-01	4.415337e-02	0.0	5.433600e-01	4.351949e-02	0.0	5.590600e-01	4.280152e-02	0.0	5.747100e-01	4.199665e-02	0.0	5.902800e-01	4.110399e-02	0.0	6.057600e-01	4.012237e-02	0.0	6.211300e-01	3.905229e-02	0.0	6.363800e-01	3.789499e-02	0.0	6.515000e-01	3.665337e-02	0.0	6.664700e-01	3.533326e-02	0.0	6.812700e-01	3.394292e-02	0.0	6.958900e-01	3.249201e-02	0.0	7.103200e-01	3.099217e-02	0.0	7.245300e-01	2.945866e-02	0.0	7.385200e-01	2.790422e-02	0.0	7.522800e-01	2.634221e-02	0.0	7.657800e-01	2.478674e-02	0.0	7.790100e-01	2.324707e-02	0.0	7.919700e-01	2.172784e-02	0.0	8.046400e-01	2.023229e-02	0.0	8.170100e-01	1.875883e-02	0.0	8.290500e-01	1.730529e-02	0.0	8.407700e-01	1.586256e-02	0.0	8.521600e-01	1.442259e-02	0.0	8.631800e-01	1.298072e-02	0.0	8.738500e-01	1.152463e-02	0.0	8.841500e-01	1.004812e-02	0.0	8.940600e-01	8.548536e-03	0.0	9.035800e-01	7.027880e-03	0.0	9.127000e-01	5.503924e-03	0.0	9.214000e-01	4.017973e-03	0.0	9.296900e-01	2.632346e-03	0.0	9.375400e-01	1.437984e-03	0.0	9.449600e-01	5.250391e-04	0.0	9.519400e-01	-3.441898e-05	0.0	9.584700e-01	-2.200762e-04	0.0	9.645400e-01	-8.193723e-05	0.0	9.701500e-01	2.661831e-04	0.0	9.752800e-01	6.764013e-04	0.0	9.799500e-01	1.015305e-03	0.0	9.841300e-01	1.194930e-03	0.0	9.878400e-01	1.194236e-03	0.0	9.910500e-01	1.045876e-03	0.0	9.937800e-01	8.105315e-04	0.0	9.960200e-01	5.520472e-04	0.0	9.977600e-01	3.204820e-04	0.0	9.990000e-01	1.448312e-04	0.0	9.997500e-01	3.632227e-05	0.0	1.000000e+00	0.000000e+00	0.0	
CELLS 200	600
2	199	0	2	0	1	2	1	2	2	2	3	2	3	4	2	4	5	2	5	6	2	6	7	2	7	8	2	8	9	2	9	10	2	10	11	2	11	12	2	12	13	2	13	14	2	14	15	2	15	16	2	16	17	2	17	18	2	18	19	2	19	20	2	20	21	2	21	22	2	22	23	2	23	24	2	24	25	2	25	26	2	26	27	2	27	28	2	28	29	2	29	30	2	30	31	2	31	32	2	32	33	2	33	34	2	34	35	2	35	36	2	36	37	2	37	38	2	38	39	2	39	40	2	40	41	2	41	42	2	42	43	2	43	44	2	44	45	2	45	46	2	46	47	2	47	48	2	48	49	2	49	50	2	50	51	2	51	52	2	52	53	2	53	54	2	54	55	2	55	56	2	56	57	2	57	58	2	58	59	2	59	60	2	60	61	2	61	62	2	62	63	2	63	64	2	64	65	2	65	66	2	66	67	2	67	68	2	68	69	2	69	70	2	70	71	2	71	72	2	72	73	2	73	74	2	74	75	2	75	76	2	76	77	2	77	78	2	78	79	2	79	80	2	80	81	2	81	82	2	82	83	2	83	84	2	84	85	2	85	86	2	86	87	2	87	88	2	88	89	2	89	90	2	90	91	2	91	92	2	92	93	2	93	94	2	94	95	2	95	96	2	96	97	2	97	98	2	98	99	2	99	100	2	100	101	2	101	102	2	102	103	2	103	104	2	104	105	2	105	106	2	106	107	2	107	108	2	108	109	2	109	110	2	110	111	2	111	112	2	112	113	2	113	114	2	114	115	2	115	116	2	116	117	2	117	118	2	118	119	2	119	120	2	120	121	2	121	122	2	122	123	2	123	124	2	124	125	2	125	126	2	126	127	2	127	128	2	128	129	2	129	130	2	130	131	2	131	132	2	132	133	2	133	134	2	134	135	2	135	136	2	136	137	2	137	138	2	138	139	2	139	140	2	140	141	2	141	142	2	142	143	2	143	144	2	144	145	2	145	146	2	146	147	2	147	148	2	148	149	2	149	150	2	150	151	2	151	152	2	152	153	2	153	154	2	154	155	2	155	156	2	156	157	2	157	158	2	158	159	2	159	160	2	160	161	2	161	162	2	162	163	2	163	164	2	164	165	2	165	166	2	166	167	2	167	168	2	168	169	2	169	170	2	170	171	2	171	172	2	172	173	2	173	174	2	174	175	2	175	176	2	176	177	2	177	178	2	178	179	2	179	180	2	180	181	2	181	182	2	182	183	2	183	184	2	184	185	2	185	186	2	186	187	2	187	188	2	188	189	2	189	190	2	190	191	2	191	192	2	192	193	2	193	194	2	194	195	2	195	196	2	196	197	2	197	198	2	198	199	
CELL_TYPES 200
3	3	3	3	3	3	3	3	3	3	3	3	3	3	3	3	3	3	3	3	3	3	3	3	3	3	3	3	3	3	3	3	3	3	3	3	3	3	3	3	3	3	3	3	3	3	3	3	3	3	3	3	3	3	3	3	3	3	3	3	3	3	3	3	3	3	3	3	3	3	3	3	3	3	3	3	3	3	3	3	3	3	3	3	3	3	3	3	3	3	3	3	3	3	3	3	3	3	3	3	3	3	3	3	3	3	3	3	3	3	3	3	3	3	3	3	3	3	3	3	3	3	3	3	3	3	3	3	3	3	3	3	3	3	3	3	3	3	3	3	3	3	3	3	3	3	3	3	3	3	3	3	3	3	3	3	3	3	3	3	3	3	3	3	3	3	3	3	3	3	3	3	3	3	3	3	3	3	3	3	3	3	3	3	3	3	3	3	3	3	3	3	3	3	3	3	3	3	3	3	
POINT_DATA 200

SCALARS Conservative_1 float 1
LOOKUP_TABLE default
1.193979e+00	1.179640e+00	1.173555e+00	1.171786e+00	1.171118e+00	1.168594e+00	1.160129e+00	1.142675e+00	1.113307e+00	1.071231e+00	1.016506e+00	9.401117e-01	8.658725e-01	8.415592e-01	8.616245e-01	9.012108e-01	9.415139e-01	9.700377e-01	9.846060e-01	9.870990e-01	9.797174e-01	9.650239e-01	9.457837e-01	9.238737e-01	8.983956e-01	8.687806e-01	8.422316e-01	8.277677e-01	8.266756e-01	8.346854e-01	8.469804e-01	8.602405e-01	8.727672e-01	8.837607e-01	8.931830e-01	9.011496e-01	9.079110e-01	9.137481e-01	9.188657e-01	9.235167e-01	9.278322e-01	9.319529e-01	9.359064e-01	9.397156e-01	9.433193e-01	9.466631e-01	9.496452e-01	9.521862e-01	9.541835e-01	9.555625e-01	9.562406e-01	9.561734e-01	9.553166e-01	9.536545e-01	9.511710e-01	9.478746e-01	9.437685e-01	9.388856e-01	9.332978e-01	9.270933e-01	9.202970e-01	9.127053e-01	9.042095e-01	8.954172e-01	8.876825e-01	8.811636e-01	8.731240e-01	8.584774e-01	8.352205e-01	8.110494e-01	7.961358e-01	7.921175e-01	7.951484e-01	8.012928e-01	8.085849e-01	8.164803e-01	8.252653e-01	8.352644e-01	8.464666e-01	8.588046e-01	8.722896e-01	8.868717e-01	9.025984e-01	9.194519e-01	9.374711e-01	9.567341e-01	9.772441e-01	9.991023e-01	1.022483e+00	1.047421e+00	1.074241e+00	1.103410e+00	1.135299e+00	1.170901e+00	1.211046e+00	1.255608e+00	1.301057e+00	1.345914e+00	1.350015e+00	1.327050e+00	1.303717e+00	1.233365e+00	1.109930e+00	1.026986e+00	9.748708e-01	9.436910e-01	9.242586e-01	9.104452e-01	8.992430e-01	8.896242e-01	8.810442e-01	8.730778e-01	8.656297e-01	8.585230e-01	8.517363e-01	8.453044e-01	8.391245e-01	8.331177e-01	8.273314e-01	8.218236e-01	8.166940e-01	8.119286e-01	8.073940e-01	8.030079e-01	7.988740e-01	7.951871e-01	7.920069e-01	7.891700e-01	7.865690e-01	7.842787e-01	7.824581e-01	7.811434e-01	7.802331e-01	7.796035e-01	7.792572e-01	7.792669e-01	7.795269e-01	7.793176e-01	7.777860e-01	7.759971e-01	7.797136e-01	7.981380e-01	8.315049e-01	8.613259e-01	8.728310e-01	8.696348e-01	8.615542e-01	8.557107e-01	8.540672e-01	8.557615e-01	8.591737e-01	8.632720e-01	8.678026e-01	8.729688e-01	8.788348e-01	8.852757e-01	8.921647e-01	8.995805e-01	9.076735e-01	9.164605e-01	9.258077e-01	9.355415e-01	9.454577e-01	9.553735e-01	9.650584e-01	9.743400e-01	9.830204e-01	9.909925e-01	9.981528e-01	1.004565e+00	1.010295e+00	1.015514e+00	1.020466e+00	1.025425e+00	1.030712e+00	1.036685e+00	1.043750e+00	1.052426e+00	1.063238e+00	1.076690e+00	1.092836e+00	1.111065e+00	1.129809e+00	1.146992e+00	1.160231e+00	1.167214e+00	1.165944e+00	1.155139e+00	1.134669e+00	1.106864e+00	1.077886e+00	1.055513e+00	1.047183e+00	1.056044e+00	1.077848e+00	1.104733e+00	1.131557e+00	1.157779e+00	1.186214e+00	1.175048e+00	
SCALARS Conservative_2 float 1
LOOKUP_TABLE default
7.000407e-01	7.219089e-01	7.336441e-01	7.369041e-01	7.352245e-01	7.343251e-01	7.379794e-01	7.509068e-01	7.759296e-01	8.128749e-01	8.581194e-01	9.046647e-01	9.382041e-01	9.615324e-01	9.749889e-01	9.739018e-01	9.653127e-01	9.549433e-01	9.464067e-01	9.427612e-01	9.441256e-01	9.492176e-01	9.560886e-01	9.632852e-01	9.699522e-01	9.748229e-01	9.767235e-01	9.773195e-01	9.779820e-01	9.787246e-01	9.792702e-01	9.793770e-01	9.791241e-01	9.783898e-01	9.774546e-01	9.763655e-01	9.752593e-01	9.742042e-01	9.731228e-01	9.720872e-01	9.710148e-01	9.699506e-01	9.688386e-01	9.677318e-01	9.666106e-01	9.655431e-01	9.645356e-01	9.636627e-01	9.629414e-01	9.624351e-01	9.621553e-01	9.621568e-01	9.624313e-01	9.629971e-01	9.638330e-01	9.649391e-01	9.662679e-01	9.677876e-01	9.694286e-01	9.711193e-01	9.728631e-01	9.746261e-01	9.763733e-01	9.777872e-01	9.787003e-01	9.791712e-01	9.798357e-01	9.809379e-01	9.815116e-01	9.797505e-01	9.772121e-01	9.758402e-01	9.756264e-01	9.758029e-01	9.760764e-01	9.760462e-01	9.757193e-01	9.749756e-01	9.735131e-01	9.711787e-01	9.678711e-01	9.632782e-01	9.571950e-01	9.492773e-01	9.391636e-01	9.263682e-01	9.103348e-01	8.905015e-01	8.659793e-01	8.355030e-01	7.975699e-01	7.499064e-01	6.889096e-01	6.102220e-01	5.072596e-01	3.743103e-01	2.175280e-01	6.671272e-02	-5.773016e-03	7.551006e-03	7.617722e-02	2.404047e-01	4.663007e-01	6.360167e-01	7.463887e-01	8.161025e-01	8.600765e-01	8.891116e-01	9.089760e-01	9.233101e-01	9.340213e-01	9.421607e-01	9.485514e-01	9.536361e-01	9.576866e-01	9.609432e-01	9.635348e-01	9.655704e-01	9.672185e-01	9.685043e-01	9.695031e-01	9.702778e-01	9.708171e-01	9.711176e-01	9.713077e-01	9.714338e-01	9.715300e-01	9.715328e-01	9.714875e-01	9.714225e-01	9.714137e-01	9.714530e-01	9.715399e-01	9.716459e-01	9.717915e-01	9.719628e-01	9.721177e-01	9.720799e-01	9.719548e-01	9.721522e-01	9.738474e-01	9.781090e-01	9.807668e-01	9.797704e-01	9.787827e-01	9.789343e-01	9.796383e-01	9.802394e-01	9.804852e-01	9.805202e-01	9.803630e-01	9.801110e-01	9.797611e-01	9.793070e-01	9.786456e-01	9.777695e-01	9.766547e-01	9.752383e-01	9.734615e-01	9.712722e-01	9.686384e-01	9.655774e-01	9.621134e-01	9.583208e-01	9.542901e-01	9.501494e-01	9.460180e-01	9.420407e-01	9.382234e-01	9.346833e-01	9.313518e-01	9.281211e-01	9.248764e-01	9.214193e-01	9.174839e-01	9.127686e-01	9.068236e-01	8.991214e-01	8.888979e-01	8.755234e-01	8.585703e-01	8.385084e-01	8.170001e-01	7.971621e-01	7.827410e-01	7.772741e-01	7.831894e-01	8.010068e-01	8.284690e-01	8.606725e-01	8.899355e-01	9.079552e-01	9.104314e-01	8.987645e-01	8.760384e-01	8.464178e-01	8.124036e-01	7.743443e-01	7.315210e-01	6.576500e-01	
SCALARS Conservative_3 float 1
LOOKUP_TABLE default
9.995094e-02	1.043609e-01	1.121027e-01	1.233346e-01	1.420212e-01	1.693312e-01	2.039254e-01	2.416919e-01	2.763548e-01	2.988441e-01	3.006623e-01	2.832591e-01	2.396188e-01	1.840591e-01	1.361359e-01	1.019208e-01	8.654990e-02	8.743224e-02	9.755072e-02	1.110242e-01	1.233176e-01	1.314802e-01	1.338956e-01	1.304026e-01	1.226840e-01	1.127003e-01	1.002805e-01	8.640105e-02	7.287369e-02	6.071741e-02	5.039369e-02	4.194612e-02	3.529696e-02	3.014560e-02	2.616425e-02	2.307160e-02	2.061755e-02	1.860473e-02	1.690226e-02	1.542685e-02	1.415343e-02	1.309398e-02	1.228406e-02	1.176877e-02	1.159368e-02	1.178779e-02	1.236523e-02	1.331120e-02	1.459741e-02	1.616159e-02	1.793631e-02	1.982728e-02	2.174315e-02	2.357796e-02	2.523173e-02	2.660613e-02	2.761486e-02	2.817465e-02	2.821208e-02	2.763944e-02	2.640393e-02	2.454367e-02	2.213573e-02	1.905882e-02	1.497530e-02	9.624373e-03	3.312783e-03	-2.887864e-03	-8.267881e-03	-1.466418e-02	-2.318756e-02	-3.286636e-02	-4.324369e-02	-5.419818e-02	-6.585401e-02	-7.831480e-02	-9.171371e-02	-1.060614e-01	-1.213493e-01	-1.376211e-01	-1.548825e-01	-1.731198e-01	-1.923513e-01	-2.125449e-01	-2.336587e-01	-2.556636e-01	-2.785325e-01	-3.022105e-01	-3.265412e-01	-3.514154e-01	-3.765841e-01	-4.012766e-01	-4.241817e-01	-4.420652e-01	-4.472054e-01	-4.243107e-01	-3.464150e-01	-1.805425e-01	5.886896e-02	2.569969e-01	4.423879e-01	6.304378e-01	6.718291e-01	6.164201e-01	5.403204e-01	4.719407e-01	4.163270e-01	3.712575e-01	3.342498e-01	3.031517e-01	2.767493e-01	2.538734e-01	2.337639e-01	2.158626e-01	1.997449e-01	1.850989e-01	1.716883e-01	1.592958e-01	1.478069e-01	1.370999e-01	1.270965e-01	1.177538e-01	1.089925e-01	1.007220e-01	9.291815e-02	8.556020e-02	7.866958e-02	7.217112e-02	6.602618e-02	6.018842e-02	5.466914e-02	4.946294e-02	4.453943e-02	3.984140e-02	3.533462e-02	3.101306e-02	2.690837e-02	2.298168e-02	1.895497e-02	1.443237e-02	9.378188e-03	4.695262e-03	2.986781e-03	1.685797e-03	-2.487989e-03	-7.948751e-03	-1.344444e-02	-1.833587e-02	-2.281898e-02	-2.727935e-02	-3.194835e-02	-3.694452e-02	-4.222079e-02	-4.771291e-02	-5.335280e-02	-5.914448e-02	-6.507531e-02	-7.107964e-02	-7.703853e-02	-8.282969e-02	-8.830796e-02	-9.335551e-02	-9.780506e-02	-1.015643e-01	-1.045342e-01	-1.067351e-01	-1.081994e-01	-1.090826e-01	-1.095791e-01	-1.099418e-01	-1.104341e-01	-1.113035e-01	-1.127667e-01	-1.149751e-01	-1.180292e-01	-1.219941e-01	-1.268414e-01	-1.323845e-01	-1.380935e-01	-1.428444e-01	-1.447615e-01	-1.413727e-01	-1.301665e-01	-1.096046e-01	-7.972421e-02	-4.269936e-02	-2.938426e-03	3.323792e-02	5.834664e-02	6.560724e-02	5.179018e-02	2.036827e-02	-1.981232e-02	-5.827286e-02	-8.689489e-02	-1.030002e-01	-1.090435e-01	-1.069345e-01	-9.998548e-02	3.298498e-03	
SCALARS Conservative_4 float 1
LOOKUP_TABLE default
3.426864e+00	3.391032e+00	3.376488e+00	3.372508e+00	3.370967e+00	3.364874e+00	3.343762e+00	3.300156e+00	3.226596e+00	3.120912e+00	2.982752e+00	2.787684e+00	2.596470e+00	2.535903e+00	2.590475e+00	2.693424e+00	2.797605e+00	2.870942e+00	2.907938e+00	2.914046e+00	2.895008e+00	2.857320e+00	2.807902e+00	2.751448e+00	2.685482e+00	2.608319e+00	2.538623e+00	2.500445e+00	2.497437e+00	2.518400e+00	2.550670e+00	2.585469e+00	2.618339e+00	2.647099e+00	2.671708e+00	2.692460e+00	2.710045e+00	2.725215e+00	2.738484e+00	2.750539e+00	2.761702e+00	2.772359e+00	2.782567e+00	2.792400e+00	2.801690e+00	2.810309e+00	2.817986e+00	2.824529e+00	2.829667e+00	2.833217e+00	2.834960e+00	2.834791e+00	2.832590e+00	2.828320e+00	2.821933e+00	2.813455e+00	2.802884e+00	2.790301e+00	2.775885e+00	2.759852e+00	2.742276e+00	2.722613e+00	2.700573e+00	2.677679e+00	2.657462e+00	2.640348e+00	2.619307e+00	2.581042e+00	2.520119e+00	2.456285e+00	2.416563e+00	2.405716e+00	2.413674e+00	2.429940e+00	2.449309e+00	2.470243e+00	2.493515e+00	2.519960e+00	2.549479e+00	2.581884e+00	2.617214e+00	2.655284e+00	2.696208e+00	2.739895e+00	2.786408e+00	2.835900e+00	2.888326e+00	2.943927e+00	3.003089e+00	3.065792e+00	3.132825e+00	3.205286e+00	3.283919e+00	3.371230e+00	3.469109e+00	3.577254e+00	3.687369e+00	3.799428e+00	3.807431e+00	3.749413e+00	3.698580e+00	3.530836e+00	3.216097e+00	3.005240e+00	2.873566e+00	2.795761e+00	2.747547e+00	2.713134e+00	2.684884e+00	2.660405e+00	2.638429e+00	2.617881e+00	2.598593e+00	2.580126e+00	2.562430e+00	2.545617e+00	2.529416e+00	2.513622e+00	2.498394e+00	2.483873e+00	2.470328e+00	2.457733e+00	2.445723e+00	2.434072e+00	2.423087e+00	2.413288e+00	2.404835e+00	2.397275e+00	2.390338e+00	2.384225e+00	2.379373e+00	2.375871e+00	2.373452e+00	2.371782e+00	2.370872e+00	2.370906e+00	2.371593e+00	2.371000e+00	2.366946e+00	2.362344e+00	2.372578e+00	2.422001e+00	2.510116e+00	2.588165e+00	2.618195e+00	2.609816e+00	2.588753e+00	2.573584e+00	2.569370e+00	2.573878e+00	2.582857e+00	2.593630e+00	2.605531e+00	2.619098e+00	2.634473e+00	2.651329e+00	2.669329e+00	2.688668e+00	2.709730e+00	2.732551e+00	2.756772e+00	2.781938e+00	2.807514e+00	2.833033e+00	2.857901e+00	2.881687e+00	2.903890e+00	2.924256e+00	2.942507e+00	2.958841e+00	2.973423e+00	2.986685e+00	2.999256e+00	3.011834e+00	3.025223e+00	3.040324e+00	3.058141e+00	3.079969e+00	3.107070e+00	3.140693e+00	3.180910e+00	3.226188e+00	3.272618e+00	3.315176e+00	3.348086e+00	3.365726e+00	3.363134e+00	3.336992e+00	3.286623e+00	3.217531e+00	3.144974e+00	3.088192e+00	3.066201e+00	3.087788e+00	3.142262e+00	3.209377e+00	3.275830e+00	3.340349e+00	3.410789e+00	3.366234e+00	
SCALARS Pressure float 1
LOOKUP_TABLE default
1.286984e+00	1.266208e+00	1.256726e+00	1.253723e+00	1.252628e+00	1.248755e+00	1.236447e+00	1.211147e+00	1.168760e+00	1.108325e+00	1.030432e+00	9.238935e-01	8.220101e-01	7.865881e-01	8.112343e-01	8.645729e-01	9.195082e-01	9.587839e-01	9.793043e-01	9.830381e-01	9.729335e-01	9.526113e-01	9.260686e-01	8.960223e-01	8.614003e-01	8.216421e-01	7.865226e-01	7.675963e-01	7.662934e-01	7.769527e-01	7.932239e-01	8.107759e-01	8.273616e-01	8.420038e-01	8.545944e-01	8.652941e-01	8.744038e-01	8.822783e-01	8.892146e-01	8.955216e-01	9.013962e-01	9.070074e-01	9.124085e-01	9.176139e-01	9.225519e-01	9.271341e-01	9.312303e-01	9.347190e-01	9.374662e-01	9.393607e-01	9.402953e-01	9.401986e-01	9.390171e-01	9.367251e-01	9.333067e-01	9.287706e-01	9.231312e-01	9.164356e-01	9.087917e-01	9.003288e-01	8.910727e-01	8.807637e-01	8.692617e-01	8.574438e-01	8.471243e-01	8.385021e-01	8.278023e-01	8.082415e-01	7.773462e-01	7.457525e-01	7.265954e-01	7.215785e-01	7.255857e-01	7.335789e-01	7.429985e-01	7.532356e-01	7.646471e-01	7.776792e-01	7.923865e-01	8.086917e-01	8.266004e-01	8.461014e-01	8.672662e-01	8.901173e-01	9.147440e-01	9.413029e-01	9.698516e-01	1.000547e+00	1.033693e+00	1.069444e+00	1.108296e+00	1.150997e+00	1.198263e+00	1.251508e+00	1.312121e+00	1.379907e+00	1.449227e+00	1.514266e+00	1.522454e+00	1.489802e+00	1.448519e+00	1.338513e+00	1.165928e+00	1.049321e+00	9.752410e-01	9.299479e-01	9.014422e-01	8.813200e-01	8.653427e-01	8.518471e-01	8.399487e-01	8.290461e-01	8.189283e-01	8.093381e-01	8.002400e-01	7.916601e-01	7.834627e-01	7.755412e-01	7.679248e-01	7.607017e-01	7.539945e-01	7.477756e-01	7.418829e-01	7.362177e-01	7.308813e-01	7.261251e-01	7.220222e-01	7.183825e-01	7.150507e-01	7.121215e-01	7.097853e-01	7.080967e-01	7.069218e-01	7.061066e-01	7.056492e-01	7.056538e-01	7.059933e-01	7.057600e-01	7.037668e-01	7.013059e-01	7.057453e-01	7.290624e-01	7.726799e-01	8.123648e-01	8.277574e-01	8.235176e-01	8.126779e-01	8.047769e-01	8.025028e-01	8.046838e-01	8.091760e-01	8.145832e-01	8.205689e-01	8.273981e-01	8.351829e-01	8.437557e-01	8.529531e-01	8.628920e-01	8.737808e-01	8.856509e-01	8.983339e-01	9.115965e-01	9.251697e-01	9.387984e-01	9.521672e-01	9.650245e-01	9.770923e-01	9.881997e-01	9.982182e-01	1.007197e+00	1.015240e+00	1.022584e+00	1.029562e+00	1.036563e+00	1.044047e+00	1.052525e+00	1.062602e+00	1.075028e+00	1.090612e+00	1.110098e+00	1.133624e+00	1.160315e+00	1.187888e+00	1.213170e+00	1.232525e+00	1.242457e+00	1.240035e+00	1.223517e+00	1.193069e+00	1.152387e+00	1.110540e+00	1.078993e+00	1.068098e+00	1.081490e+00	1.113101e+00	1.152130e+00	1.191577e+00	1.230585e+00	1.272406e+00	1.272877e+00	
SCALARS Temperature float 1
LOOKUP_TABLE default
1.077896e+00	1.073385e+00	1.070872e+00	1.069925e+00	1.069600e+00	1.068596e+00	1.065784e+00	1.059922e+00	1.049809e+00	1.034628e+00	1.013700e+00	9.827486e-01	9.493431e-01	9.346794e-01	9.415172e-01	9.593459e-01	9.766274e-01	9.883987e-01	9.946154e-01	9.958860e-01	9.930756e-01	9.871375e-01	9.791547e-01	9.698536e-01	9.588206e-01	9.457417e-01	9.338556e-01	9.273088e-01	9.269578e-01	9.308329e-01	9.365315e-01	9.424991e-01	9.479752e-01	9.527509e-01	9.567966e-01	9.602114e-01	9.630941e-01	9.655597e-01	9.677307e-01	9.696864e-01	9.715077e-01	9.732331e-01	9.748929e-01	9.764804e-01	9.779847e-01	9.793707e-01	9.806086e-01	9.816556e-01	9.824800e-01	9.830448e-01	9.833250e-01	9.832930e-01	9.829381e-01	9.822479e-01	9.812187e-01	9.798454e-01	9.781330e-01	9.760887e-01	9.737424e-01	9.711307e-01	9.682446e-01	9.650033e-01	9.613499e-01	9.575913e-01	9.543099e-01	9.515850e-01	9.480925e-01	9.414827e-01	9.307077e-01	9.194909e-01	9.126527e-01	9.109487e-01	9.125161e-01	9.154941e-01	9.188874e-01	9.225398e-01	9.265470e-01	9.310575e-01	9.361108e-01	9.416480e-01	9.476215e-01	9.540291e-01	9.608550e-01	9.680956e-01	9.757570e-01	9.838710e-01	9.924353e-01	1.001446e+00	1.010963e+00	1.021026e+00	1.031702e+00	1.043127e+00	1.055460e+00	1.068842e+00	1.083461e+00	1.098995e+00	1.113884e+00	1.125084e+00	1.127731e+00	1.122643e+00	1.111068e+00	1.085252e+00	1.050452e+00	1.021747e+00	1.000380e+00	9.854369e-01	9.753138e-01	9.680099e-01	9.623013e-01	9.575359e-01	9.533560e-01	9.495672e-01	9.460492e-01	9.427098e-01	9.395397e-01	9.365385e-01	9.336667e-01	9.308902e-01	9.281949e-01	9.256265e-01	9.232277e-01	9.209869e-01	9.188610e-01	9.168250e-01	9.148894e-01	9.131499e-01	9.116362e-01	9.103014e-01	9.090757e-01	9.079955e-01	9.071225e-01	9.064874e-01	9.060392e-01	9.057253e-01	9.055408e-01	9.055355e-01	9.056690e-01	9.056128e-01	9.048334e-01	9.037481e-01	9.051340e-01	9.134541e-01	9.292548e-01	9.431562e-01	9.483593e-01	9.469695e-01	9.432697e-01	9.404778e-01	9.396249e-01	9.403131e-01	9.418072e-01	9.435997e-01	9.455709e-01	9.477980e-01	9.503297e-01	9.530993e-01	9.560489e-01	9.592160e-01	9.626599e-01	9.663820e-01	9.703244e-01	9.744052e-01	9.785415e-01	9.826506e-01	9.866420e-01	9.904391e-01	9.939695e-01	9.971818e-01	1.000066e+00	1.002621e+00	1.004894e+00	1.006962e+00	1.008914e+00	1.010862e+00	1.012938e+00	1.015280e+00	1.018062e+00	1.021476e+00	1.025746e+00	1.031029e+00	1.037324e+00	1.044327e+00	1.051406e+00	1.057697e+00	1.062310e+00	1.064464e+00	1.063546e+00	1.059195e+00	1.051469e+00	1.041128e+00	1.030294e+00	1.022245e+00	1.019972e+00	1.024096e+00	1.032707e+00	1.042903e+00	1.053042e+00	1.062884e+00	1.072661e+00	1.083255e+00	
SCALARS Pressure_Coefficient float 1
LOOKUP_TABLE default
6.405900e-01	5.942151e-01	5.730499e-01	5.663461e-01	5.639011e-01	5.552565e-01	5.277840e-01	4.713095e-01	3.766974e-01	2.417977e-01	6.792934e-02	-1.698806e-01	-3.972989e-01	-4.763659e-01	-4.213520e-01	-3.022927e-01	-1.796691e-01	-9.200013e-02	-4.619578e-02	-3.786144e-02	-6.041638e-02	-1.057783e-01	-1.650255e-01	-2.320932e-01	-3.093744e-01	-3.981204e-01	-4.765119e-01	-5.187583e-01	-5.216665e-01	-4.978735e-01	-4.615539e-01	-4.223752e-01	-3.853535e-01	-3.526700e-01	-3.245660e-01	-3.006828e-01	-2.803488e-01	-2.627716e-01	-2.472889e-01	-2.332108e-01	-2.200979e-01	-2.075728e-01	-1.955166e-01	-1.838976e-01	-1.728752e-01	-1.626470e-01	-1.535038e-01	-1.457166e-01	-1.395844e-01	-1.353556e-01	-1.332695e-01	-1.334853e-01	-1.361226e-01	-1.412386e-01	-1.488690e-01	-1.589943e-01	-1.715822e-01	-1.865277e-01	-2.035900e-01	-2.224802e-01	-2.431414e-01	-2.661525e-01	-2.918265e-01	-3.182059e-01	-3.412405e-01	-3.604864e-01	-3.843699e-01	-4.280323e-01	-4.969952e-01	-5.675168e-01	-6.102780e-01	-6.214767e-01	-6.125319e-01	-5.946900e-01	-5.736641e-01	-5.508134e-01	-5.253413e-01	-4.962518e-01	-4.634230e-01	-4.270276e-01	-3.870527e-01	-3.435236e-01	-2.962807e-01	-2.452738e-01	-1.903037e-01	-1.310204e-01	-6.729560e-02	1.220956e-03	7.520701e-02	1.550098e-01	2.417323e-01	3.370467e-01	4.425508e-01	5.614025e-01	6.966994e-01	8.480061e-01	1.002738e+00	1.147916e+00	1.166192e+00	1.093309e+00	1.001158e+00	7.556086e-01	3.703757e-01	1.100906e-01	-5.526569e-02	-1.563662e-01	-2.199951e-01	-2.649108e-01	-3.005744e-01	-3.306985e-01	-3.572573e-01	-3.815936e-01	-4.041780e-01	-4.255847e-01	-4.458928e-01	-4.650444e-01	-4.833423e-01	-5.010242e-01	-5.180250e-01	-5.341479e-01	-5.491194e-01	-5.630009e-01	-5.761543e-01	-5.887997e-01	-6.007113e-01	-6.113280e-01	-6.204862e-01	-6.286105e-01	-6.360474e-01	-6.425859e-01	-6.478006e-01	-6.515699e-01	-6.541924e-01	-6.560121e-01	-6.570331e-01	-6.570228e-01	-6.562649e-01	-6.567857e-01	-6.612348e-01	-6.667280e-01	-6.568185e-01	-6.047714e-01	-5.074109e-01	-4.188286e-01	-3.844702e-01	-3.939338e-01	-4.181296e-01	-4.357658e-01	-4.408419e-01	-4.359738e-01	-4.259465e-01	-4.138767e-01	-4.005158e-01	-3.852721e-01	-3.678954e-01	-3.487596e-01	-3.282297e-01	-3.060446e-01	-2.817392e-01	-2.552435e-01	-2.269333e-01	-1.973292e-01	-1.670320e-01	-1.366108e-01	-1.067695e-01	-7.807042e-02	-5.113320e-02	-2.633993e-02	-3.977206e-03	1.606564e-02	3.401690e-02	5.041123e-02	6.598677e-02	8.161392e-02	9.831919e-02	1.172441e-01	1.397356e-01	1.674722e-01	2.022592e-01	2.457552e-01	2.982686e-01	3.578461e-01	4.193935e-01	4.758253e-01	5.190286e-01	5.411990e-01	5.357923e-01	4.989223e-01	4.309580e-01	3.401492e-01	2.467415e-01	1.763243e-01	1.520037e-01	1.818981e-01	2.524569e-01	3.395750e-01	4.276271e-01	5.146986e-01	6.080496e-01	6.091003e-01	
SCALARS Mach float 1
LOOKUP_TABLE default
4.821215e-01	5.044084e-01	5.164891e-01	5.209802e-01	5.225161e-01	5.272347e-01	5.402785e-01	5.667189e-01	6.102686e-01	6.717578e-01	7.508666e-01	8.596695e-01	9.700395e-01	1.016947e+00	9.951676e-01	9.375673e-01	8.803422e-01	8.403721e-01	8.188769e-01	8.144473e-01	8.242276e-01	8.446983e-01	8.718349e-01	9.029600e-01	9.392831e-01	9.816314e-01	1.019561e+00	1.040261e+00	1.041368e+00	1.029134e+00	1.011063e+00	9.920269e-01	9.744484e-01	9.590241e-01	9.458839e-01	9.347367e-01	9.252848e-01	9.171685e-01	9.099967e-01	9.035152e-01	8.974606e-01	8.917082e-01	8.861585e-01	8.808356e-01	8.757780e-01	8.711060e-01	8.669233e-01	8.633780e-01	8.605814e-01	8.586633e-01	8.577108e-01	8.578195e-01	8.590256e-01	8.613695e-01	8.648585e-01	8.695033e-01	8.752787e-01	8.821505e-01	8.900069e-01	8.987152e-01	9.082953e-01	9.190025e-01	9.310085e-01	9.432944e-01	9.539687e-01	9.627981e-01	9.740706e-01	9.952779e-01	1.029530e+00	1.064827e+00	1.086193e+00	1.091501e+00	1.086619e+00	1.077328e+00	1.066717e+00	1.055265e+00	1.042662e+00	1.028424e+00	1.012401e+00	9.947493e-01	9.755869e-01	9.548801e-01	9.326299e-01	9.087887e-01	8.832630e-01	8.558532e-01	8.264477e-01	7.949100e-01	7.608312e-01	7.237947e-01	6.831695e-01	6.378439e-01	5.862305e-01	5.260825e-01	4.533897e-01	3.632950e-01	2.517654e-01	1.139457e-01	3.487058e-02	1.545409e-01	2.760772e-01	4.438151e-01	6.075714e-01	7.210967e-01	7.986769e-01	8.505149e-01	8.847486e-01	9.090725e-01	9.278882e-01	9.434751e-01	9.570633e-01	9.693166e-01	9.806435e-01	9.913527e-01	1.001482e+00	1.011041e+00	1.020160e+00	1.028953e+00	1.037467e+00	1.045561e+00	1.053105e+00	1.060138e+00	1.066800e+00	1.073169e+00	1.079216e+00	1.084643e+00	1.089360e+00	1.093516e+00	1.097330e+00	1.100687e+00	1.103400e+00	1.105372e+00	1.106763e+00	1.107737e+00	1.108310e+00	1.108326e+00	1.107912e+00	1.108086e+00	1.110504e+00	1.113869e+00	1.109572e+00	1.083695e+00	1.034121e+00	9.899235e-01	9.732112e-01	9.776850e-01	9.895599e-01	9.984880e-01	1.001210e+00	9.990140e-01	9.942404e-01	9.885029e-01	9.821798e-01	9.750190e-01	9.668552e-01	9.578950e-01	9.483177e-01	9.379916e-01	9.267112e-01	9.144549e-01	9.013962e-01	8.877908e-01	8.739025e-01	8.600022e-01	8.463950e-01	8.333483e-01	8.211235e-01	8.099166e-01	7.997846e-01	7.907478e-01	7.826600e-01	7.752624e-01	7.682427e-01	7.611992e-01	7.536505e-01	7.450780e-01	7.348231e-01	7.221143e-01	7.060184e-01	6.857761e-01	6.611300e-01	6.329542e-01	6.035468e-01	5.765120e-01	5.560644e-01	5.463217e-01	5.504907e-01	5.699327e-01	6.032805e-01	6.459305e-01	6.886128e-01	7.192310e-01	7.277282e-01	7.122634e-01	6.792650e-01	6.387536e-01	5.966036e-01	5.534820e-01	5.079110e-01	4.544805e-01	