# vtk DataFile Version 3.0
vtk output
ASCII
DATASET UNSTRUCTURED_GRID
POINTS 5233 float
9.997500e-01	-3.633560e-05	0.0	9.990000e-01	-1.456725e-04	0.0	9.977600e-01	-3.296953e-04	0.0	9.960200e-01	-6.016777e-04	0.0	9.937800e-01	-9.892023e-04	0.0	9.910500e-01	-1.537076e-03	0.0	9.878400e-01	-2.302433e-03	0.0	9.841300e-01	-3.345533e-03	0.0	9.799500e-01	-4.681929e-03	0.0	9.752800e-01	-6.285362e-03	0.0	9.701500e-01	-8.049054e-03	0.0	9.645400e-01	-9.837864e-03	0.0	9.584700e-01	-1.149955e-02	0.0	9.519400e-01	-1.293217e-02	0.0	9.449600e-01	-1.410635e-02	0.0	9.375400e-01	-1.507061e-02	0.0	9.296900e-01	-1.592597e-02	0.0	9.214000e-01	-1.678952e-02	0.0	9.127000e-01	-1.775387e-02	0.0	9.035800e-01	-1.887515e-02	0.0	8.940600e-01	-2.016104e-02	0.0	8.841500e-01	-2.158321e-02	0.0	8.738500e-01	-2.309189e-02	0.0	8.631800e-01	-2.462580e-02	0.0	8.521600e-01	-2.612691e-02	0.0	8.407700e-01	-2.755299e-02	0.0	8.290500e-01	-2.886795e-02	0.0	8.170100e-01	-3.005445e-02	0.0	8.046400e-01	-3.110950e-02	0.0	7.919700e-01	-3.203637e-02	0.0	7.790100e-01	-3.284711e-02	0.0	7.657800e-01	-3.355682e-02	0.0	7.522800e-01	-3.418259e-02	0.0	7.385200e-01	-3.473975e-02	0.0	7.245300e-01	-3.524059e-02	0.0	7.103200e-01	-3.569529e-02	0.0	6.958900e-01	-3.611129e-02	0.0	6.812700e-01	-3.649252e-02	0.0	6.664700e-01	-3.684167e-02	0.0	6.515000e-01	-3.716031e-02	0.0	6.363800e-01	-3.744946e-02	0.0	6.211300e-01	-3.771060e-02	0.0	6.057600e-01	-3.794618e-02	0.0	5.902800e-01	-3.815972e-02	0.0	5.747100e-01	-3.835573e-02	0.0	5.590600e-01	-3.853981e-02	0.0	5.433600e-01	-3.871804e-02	0.0	5.276100e-01	-3.889709e-02	0.0	5.118400e-01	-3.908315e-02	0.0	4.960500e-01	-3.928214e-02	0.0	4.802700e-01	-3.949862e-02	0.0	4.645100e-01	-3.973607e-02	0.0	4.487800e-01	-3.999648e-02	0.0	4.331100e-01	-4.027979e-02	0.0	4.175000e-01	-4.058479e-02	0.0	4.019700e-01	-4.090825e-02	0.0	3.865400e-01	-4.124545e-02	0.0	3.712300e-01	-4.159030e-02	0.0	3.560400e-01	-4.193615e-02	0.0	3.409900e-01	-4.227502e-02	0.0	3.261100e-01	-4.259821e-02	0.0	3.114000e-01	-4.289734e-02	0.0	2.968700e-01	-4.316372e-02	0.0	2.825500e-01	-4.338842e-02	0.0	2.684500e-01	-4.356321e-02	0.0	2.545700e-01	-4.368028e-02	0.0	2.409400e-01	-4.373207e-02	0.0	2.275700e-01	-4.371180e-02	0.0	2.144700e-01	-4.361327e-02	0.0	2.016600e-01	-4.343100e-02	0.0	1.891400e-01	-4.315988e-02	0.0	1.769300e-01	-4.279570e-02	0.0	1.650400e-01	-4.233475e-02	0.0	1.534900e-01	-4.177440e-02	0.0	1.422900e-01	-4.111242e-02	0.0	1.314400e-01	-4.034644e-02	0.0	1.209500e-01	-3.947519e-02	0.0	1.108500e-01	-3.850013e-02	0.0	1.011300e-01	-3.741995e-02	0.0	9.181000e-02	-3.623700e-02	0.0	8.290000e-02	-3.495373e-02	0.0	7.440000e-02	-3.357189e-02	0.0	6.633000e-02	-3.209744e-02	0.0	5.869000e-02	-3.053401e-02	0.0	5.149000e-02	-2.888799e-02	0.0	4.474000e-02	-2.716703e-02	0.0	3.844000e-02	-2.537710e-02	0.0	3.260000e-02	-2.352755e-02	0.0	2.723000e-02	-2.162893e-02	0.0	2.232000e-02	-1.968469e-02	0.0	1.790000e-02	-1.771431e-02	0.0	1.395000e-02	-1.571593e-02	0.0	1.049000e-02	-1.370503e-02	0.0	7.520000e-03	-1.168637e-02	0.0	5.040000e-03	-9.660990e-03	0.0	3.050000e-03	-7.623310e-03	0.0	1.560000e-03	-5.571406e-03	0.0	5.600000e-04	-3.458134e-03	0.0	6.000000e-05	-1.212101e-03	0.0	0.000000e+00	0.000000e+00	0.0	6.000000e-05	1.168060e-03	0.0	5.600000e-04	3.225862e-03	0.0	1.560000e-03	5.060438e-03	0.0	3.050000e-03	6.760939e-03	0.0	5.040000e-03	8.383042e-03	0.0	7.520000e-03	9.941085e-03	0.0	1.049000e-02	1.145070e-02	0.0	1.395000e-02	1.292115e-02	0.0	1.790000e-02	1.435809e-02	0.0	2.232000e-02	1.575894e-02	0.0	2.723000e-02	1.713291e-02	0.0	3.260000e-02	1.847357e-02	0.0	3.844000e-02	1.978528e-02	0.0	4.474000e-02	2.106688e-02	0.0	5.149000e-02	2.231746e-02	0.0	5.869000e-02	2.353800e-02	0.0	6.633000e-02	2.472768e-02	0.0	7.440000e-02	2.588596e-02	0.0	8.290000e-02	2.701384e-02	0.0	9.181000e-02	2.810979e-02	0.0	1.011300e-01	2.917505e-02	0.0	1.108500e-01	3.020970e-02	0.0	1.209500e-01	3.121299e-02	0.0	1.314400e-01	3.218727e-02	0.0	1.422900e-01	3.313110e-02	0.0	1.534900e-01	3.404510e-02	0.0	1.650400e-01	3.493064e-02	0.0	1.769300e-01	3.578814e-02	0.0	1.891400e-01	3.661728e-02	0.0	2.016600e-01	3.741839e-02	0.0	2.144700e-01	3.819104e-02	0.0	2.275700e-01	3.893576e-02	0.0	2.409400e-01	3.965165e-02	0.0	2.545700e-01	4.033807e-02	0.0	2.684500e-01	4.099396e-02	0.0	2.825500e-01	4.161698e-02	0.0	2.968700e-01	4.220577e-02	0.0	3.114000e-01	4.275795e-02	0.0	3.261100e-01	4.326997e-02	0.0	3.409900e-01	4.373864e-02	0.0	3.560400e-01	4.416054e-02	0.0	3.712300e-01	4.453100e-02	0.0	3.865400e-01	4.484542e-02	0.0	4.019700e-01	4.509933e-02	0.0	4.175000e-01	4.528767e-02	0.0	4.331100e-01	4.540533e-02	0.0	4.487800e-01	4.544732e-02	0.0	4.645100e-01	4.540872e-02	0.0	4.802700e-01	4.528474e-02	0.0	4.960500e-01	4.507081e-02	0.0	5.118400e-01	4.476248e-02	0.0	5.276100e-01	4.435607e-02	0.0	5.433600e-01	4.384760e-02	0.0	5.590600e-01	4.323446e-02	0.0	5.747100e-01	4.251358e-02	0.0	5.902800e-01	4.168403e-02	0.0	6.057600e-01	4.074511e-02	0.0	6.211300e-01	3.969810e-02	0.0	6.363800e-01	3.854537e-02	0.0	6.515000e-01	3.729128e-02	0.0	6.664700e-01	3.594330e-02	0.0	6.812700e-01	3.451160e-02	0.0	6.958900e-01	3.300787e-02	0.0	7.103200e-01	3.144583e-02	0.0	7.245300e-01	2.984296e-02	0.0	7.385200e-01	2.821407e-02	0.0	7.522800e-01	2.657456e-02	0.0	7.657800e-01	2.494061e-02	0.0	7.790100e-01	2.332328e-02	0.0	7.919700e-01	2.172886e-02	0.0	8.046400e-01	2.016221e-02	0.0	8.170100e-01	1.862321e-02	0.0	8.290500e-01	1.711116e-02	0.0	8.407700e-01	1.561819e-02	0.0	8.521600e-01	1.413753e-02	0.0	8.631800e-01	1.266583e-02	0.0	8.738500e-01	1.119171e-02	0.0	8.841500e-01	9.709789e-03	0.0	8.940600e-01	8.217678e-03	0.0	9.035800e-01	6.716968e-03	0.0	9.127000e-01	5.224118e-03	0.0	9.214000e-01	3.778056e-03	0.0	9.296900e-01	2.437898e-03	0.0	9.375400e-01	1.290505e-03	0.0	9.449600e-01	4.220217e-04	0.0	9.519400e-01	-9.908408e-05	0.0	9.584700e-01	-2.549149e-04	0.0	9.645400e-01	-9.627962e-05	0.0	9.701500e-01	2.638278e-04	0.0	9.752800e-01	6.794537e-04	0.0	9.799500e-01	1.019598e-03	0.0	9.841300e-01	1.198433e-03	0.0	9.878400e-01	1.196410e-03	0.0	9.910500e-01	1.046957e-03	0.0	9.937800e-01	8.109544e-04	0.0	9.960200e-01	5.521704e-04	0.0	9.977600e-01	3.205056e-04	0.0	9.990000e-01	1.448334e-04	0.0	9.997500e-01	3.632230e-05	0.0	1.000000e+00	0.000000e+00	0.0	1.984229e+01	2.506660e+00	0.0	1.937166e+01	4.973800e+00	0.0	1.859553e+01	7.362490e+00	0.0	1.752613e+01	9.635070e+00	0.0	1.618034e+01	1.175571e+01	0.0	1.457937e+01	1.369094e+01	0.0	1.274848e+01	1.541027e+01	0.0	1.071654e+01	1.688656e+01	0.0	8.515590e+00	1.809654e+01	0.0	6.180340e+00	1.902113e+01	0.0	3.747630e+00	1.964575e+01	0.0	1.255810e+00	1.996053e+01	0.0	-1.255810e+00	1.996053e+01	0.0	-3.747630e+00	1.964574e+01	0.0	-6.180340e+00	1.902113e+01	0.0	-8.515590e+00	1.809654e+01	0.0	-1.071654e+01	1.688656e+01	0.0	-1.274848e+01	1.541026e+01	0.0	-1.457937e+01	1.369094e+01	0.0	-1.618034e+01	1.175570e+01	0.0	-1.752613e+01	9.635070e+00	0.0	-1.859553e+01	7.362490e+00	0.0	-1.937166e+01	4.973800e+00	0.0	-1.984229e+01	2.506660e+00	0.0	-2.000000e+01	0.000000e+00	0.0	-1.984229e+01	-2.506670e+00	0.0	-1.937166e+01	-4.973800e+00	0.0	-1.859553e+01	-7.362490e+00	0.0	-1.752613e+01	-9.635080e+00	0.0	-1.618034e+01	-1.175571e+01	0.0	-1.457937e+01	-1.369094e+01	0.0	-1.274848e+01	-1.541027e+01	0.0	-1.071653e+01	-1.688656e+01	0.0	-8.515580e+00	-1.809654e+01	0.0	-6.180340e+00	-1.902113e+01	0.0	-3.747620e+00	-1.964575e+01	0.0	-1.255810e+00	-1.996053e+01	0.0	1.255810e+00	-1.996053e+01	0.0	3.747630e+00	-1.964574e+01	0.0	6.180340e+00	-1.902113e+01	0.0	8.515590e+00	-1.809654e+01	0.0	1.071654e+01	-1.688656e+01	0.0	1.274848e+01	-1.541026e+01	0.0	1.457937e+01	-1.369094e+01	0.0	1.618034e+01	-1.175570e+01	0.0	1.752614e+01	-9.635070e+00	0.0	1.859553e+01	-7.362490e+00	0.0	1.937166e+01	-4.973790e+00	0.0	1.984229e+01	-2.506660e+00	0.0	2.000000e+01	0.000000e+00	0.0	6.108513e-02	-3.819963e-02	0.0	6.596201e-01	-5.075456e-02	0.0	4.254773e-01	5.952939e-02	0.0	6.898002e-01	4.695569e-02	0.0	3.791896e-01	-5.569293e-02	0.0	9.994689e-01	-7.247862e-04	0.0	9.985589e-01	-1.332050e-03	0.0	7.734219e-01	-4.513144e-02	0.0	6.893017e-01	-4.970837e-02	0.0	-8.327951e-04	4.953804e-03	0.0	7.463138e-01	-4.695310e-02	0.0	5.833252e-01	5.609919e-02	0.0	9.928463e-01	-3.840145e-03	0.0	9.899839e-01	-4.956032e-03	0.0	5.989111e-01	5.512829e-02	0.0	7.182415e-01	-4.845251e-02	0.0	-1.261902e-03	5.830960e-04	0.0	9.866431e-01	-6.289978e-03	0.0	9.828286e-01	-7.850132e-03	0.0	-9.324015e-04	-5.369767e-03	0.0	6.445412e-01	-5.120838e-02	0.0	8.242666e-01	-4.019996e-02	0.0	7.994387e-01	-4.291349e-02	0.0	3.484105e-01	5.772131e-02	0.0	8.477584e-01	-3.702138e-02	0.0	2.473360e-01	5.256211e-02	0.0	8.698482e-01	-3.351182e-02	0.0	1.069218e-02	1.540593e-02	0.0	8.904324e-01	-2.996114e-02	0.0	7.735948e-02	-4.193591e-02	0.0	9.094534e-01	-2.668013e-02	0.0	-1.482027e-03	-2.682058e-03	0.0	9.425469e-01	-2.088864e-02	0.0	9.268507e-01	-2.375853e-02	0.0	1.834633e-02	-2.270478e-02	0.0	4.256799e-01	-5.499552e-02	0.0	8.589878e-01	-3.529029e-02	0.0	9.564592e-01	-1.756265e-02	0.0	9.785289e-01	-9.648885e-03	0.0	9.684761e-01	-1.363506e-02	0.0	1.586200e-01	-5.259720e-02	0.0	9.001440e-01	-2.827318e-02	0.0	7.599987e-01	-4.608725e-02	0.0	9.971457e-01	-2.100465e-03	0.0	5.985346e-01	-5.232410e-02	0.0	4.413382e-01	-5.475835e-02	0.0	5.359432e-01	-5.338721e-02	0.0	4.728199e-01	-5.429421e-02	0.0	5.043896e-01	-5.384245e-02	0.0	4.885931e-01	-5.406630e-02	0.0	1.252961e-01	-4.943373e-02	0.0	2.822470e-02	-2.744085e-02	0.0	3.945937e-01	-5.546760e-02	0.0	4.657322e-02	-3.411870e-02	0.0	4.100917e-01	-5.523426e-02	0.0	3.189273e-01	-5.639727e-02	0.0	3.487571e-01	-5.610272e-02	0.0	3.387786e-02	-2.971804e-02	0.0	2.897788e-01	-5.652622e-02	0.0	9.349169e-01	-2.234876e-02	0.0	1.471582e-01	-5.165140e-02	0.0	1.950013e-01	-5.477099e-02	0.0	8.613342e-02	-4.365465e-02	0.0	1.049279e-01	-4.677440e-02	0.0	5.673668e-01	-5.290388e-02	0.0	1.704246e-01	-5.343300e-02	0.0	6.139902e-01	-5.198747e-02	0.0	8.803363e-01	-3.172147e-02	0.0	2.305792e-02	-2.509870e-02	0.0	9.952398e-01	-2.913368e-03	0.0	7.150893e-03	-1.540007e-02	0.0	1.869078e-02	1.919652e-02	0.0	9.183576e-01	-2.518382e-02	0.0	9.49
[...]
POINT_DATA 5233

SCALARS Conservative_1 float 1
LOOKUP_TABLE default
1.194879e+00	1.179030e+00	1.171979e+00	1.169286e+00	1.167910e+00	1.165011e+00	1.156709e+00	1.140187e+00	1.112946e+00	1.074498e+00	1.025215e+00	9.642070e-01	9.092793e-01	8.874071e-01	8.978177e-01	9.248914e-01	9.543094e-01	9.758908e-01	9.864192e-01	9.866661e-01	9.783102e-01	9.634892e-01	9.445688e-01	9.233727e-01	8.998371e-01	8.740830e-01	8.510387e-01	8.371124e-01	8.339887e-01	8.390232e-01	8.484410e-01	8.592490e-01	8.697639e-01	8.790749e-01	8.870321e-01	8.937173e-01	8.993638e-01	9.042531e-01	9.086019e-01	9.126695e-01	9.165919e-01	9.205055e-01	9.244268e-01	9.283625e-01	9.322295e-01	9.359509e-01	9.394024e-01	9.424882e-01	9.450915e-01	9.471289e-01	9.485065e-01	9.491739e-01	9.490799e-01	9.482078e-01	9.465422e-01	9.440923e-01	9.408701e-01	9.369069e-01	9.322452e-01	9.269311e-01	9.210378e-01	9.145825e-01	9.075667e-01	8.999550e-01	8.919479e-01	8.838925e-01	8.759750e-01	8.675315e-01	8.572873e-01	8.445263e-01	8.311533e-01	8.206885e-01	8.153305e-01	8.147730e-01	8.176516e-01	8.226838e-01	8.293721e-01	8.375813e-01	8.471461e-01	8.579670e-01	8.700593e-01	8.833889e-01	8.980195e-01	9.139504e-01	9.312444e-01	9.500145e-01	9.702959e-01	9.922220e-01	1.016022e+00	1.041782e+00	1.069879e+00	1.100826e+00	1.134988e+00	1.173231e+00	1.215951e+00	1.262384e+00	1.307780e+00	1.348066e+00	1.347903e+00	1.321367e+00	1.296405e+00	1.222536e+00	1.088092e+00	9.914160e-01	9.265188e-01	8.861281e-01	8.617404e-01	8.463326e-01	8.358087e-01	8.283368e-01	8.229237e-01	8.188874e-01	8.159705e-01	8.138240e-01	8.123663e-01	8.116606e-01	8.115862e-01	8.120213e-01	8.129878e-01	8.146539e-01	8.173373e-01	8.211654e-01	8.258456e-01	8.307346e-01	8.352493e-01	8.391434e-01	8.423978e-01	8.450492e-01	8.471729e-01	8.488894e-01	8.502785e-01	8.513376e-01	8.520024e-01	8.522122e-01	8.519531e-01	8.512250e-01	8.500483e-01	8.484305e-01	8.463710e-01	8.438729e-01	8.409227e-01	8.375204e-01	8.337358e-01	8.297014e-01	8.255168e-01	8.212023e-01	8.166975e-01	8.121662e-01	8.082645e-01	8.066327e-01	8.096032e-01	8.190074e-01	8.337007e-01	8.489808e-01	8.604377e-01	8.681506e-01	8.747420e-01	8.825066e-01	8.922073e-01	9.032311e-01	9.146910e-01	9.262052e-01	9.377254e-01	9.491688e-01	9.602776e-01	9.708500e-01	9.806922e-01	9.897181e-01	9.978341e-01	1.005118e+00	1.011641e+00	1.017575e+00	1.023162e+00	1.028662e+00	1.034377e+00	1.040632e+00	1.047802e+00	1.056366e+00	1.066824e+00	1.079681e+00	1.095036e+00	1.112365e+00	1.130213e+00	1.146583e+00	1.159128e+00	1.165543e+00	1.163812e+00	1.152628e+00	1.131849e+00	1.103827e+00	1.074771e+00	1.052456e+00	1.044324e+00	1.053476e+00	1.075566e+00	1.102672e+00	1.129654e+00	1.156054e+00	1.184333e+00	1.174503e+00	9.999828e-01	9.999866e-01	9.999804e-01	9.999684e-01	9.999568e-01	9.999432e-01	9.999213e-01	9.998881e-01	9.998491e-01	9.998143e-01	9.997897e-01	9.997942e-01	9.998283e-01	9.998990e-01	9.999603e-01	1.000009e+00	1.000035e+00	1.000050e+00	1.000058e+00	1.000061e+00	1.000061e+00	1.000061e+00	1.000060e+00	1.000061e+00	1.000061e+00	1.000063e+00	1.000066e+00	1.000071e+00	1.000077e+00	1.000086e+00	1.000096e+00	1.000109e+00	1.000120e+00	1.000134e+00	1.000139e+00	1.000134e+00	1.000119e+00	1.000097e+00	1.000081e+00	1.000072e+00	1.000072e+00	1.000069e+00	1.000065e+00	1.000058e+00	1.000048e+00	1.000036e+00	1.000028e+00	1.000023e+00	1.000001e+00	9.999788e-01	9.207417e-01	9.123539e-01	8.273243e-01	9.355040e-01	9.389469e-01	1.178927e+00	1.171846e+00	8.598513e-01	9.038912e-01	1.217746e+00	8.785567e-01	8.706519e-01	1.156623e+00	1.149486e+00	8.771044e-01	8.931713e-01	1.316356e+00	1.137429e+00	1.118323e+00	1.327037e+00	9.162152e-01	8.513112e-01	8.437404e-01	8.455226e-01	8.945766e-01	8.550136e-01	9.376314e-01	9.013230e-01	9.692870e-01	8.900977e-01	9.823155e-01	1.344742e+00	9.248225e-01	9.656448e-01	1.076357e+00	9.469146e-01	9.179051e-01	9.210054e-01	1.091103e+00	1.010538e+00	8.221730e-01	9.790303e-01	8.695475e-01	1.165085e+00	9.274830e-01	9.481136e-01	9.411051e-01	9.483455e-01	9.458589e-01	9.474238e-01	8.359003e-01	1.022717e+00	9.423188e-01	9.567902e-01	9.449799e-01	9.191755e-01	9.302165e-01	9.989936e-01	9.059410e-01	9.462530e-01	8.244242e-01	8.428946e-01	8.767041e-01	8.536169e-01	9.347311e-01	8.239798e-01	9.237455e-01	9.548724e-01	1.048418e+00	1.161103e+00	1.176737e+00	8.626237e-01	9.779836e-01	9.121603e-01	1.055884e+00	1.129138e+00	8.700659e-01	8.835938e-01	9.380777e-01	8.864262e-01	8.505267e-01	8.440297e-01	8.675768e-01	9.311740e-01	9.083086e-01	9.380618e-01	1.216102e+00	1.106832e+00	9.348965e-01	8.311266e-01	1.205251e+00	8.762625e-01	8.645486e-01	9.128484e-01	8.909232e-01	9.485875e-01	8.989325e-01	1.286154e+00	1.296734e+00	8.303260e-01	1.331473e+00	8.422330e-01	8.241822e-01	8.307026e-01	8.291518e-01	8.313468e-01	1.121055e+00	8.177740e-01	8.146467e-01	1.112551e+00	1.143494e+00	1.063432e+00	8.116662e-01	8.231618e-01	8.390299e-01	1.116619e+00	1.087441e+00	8.211337e-01	1.091732e+00	1.149340e+00	1.141668e+00	8.228527e-01	8.224056e-01	8.534540e-01	8.549319e-01	8.477361e-01	8.503087e-01	8.188370e-01	8.352721e-01	8.418456e-01	8.335583e-01	8.920572e-01	8.514845e-01	8.539053e-01	9.133850e-01	8.610883e-01	9.772030e-01	9.571841e-01	1.008853e+00	9.944780e-01	1.032783e+00	1.021108e+00	1.074549e+00	1.046030e+00	1.148427e+00	1.101780e+00	1.130832e+00	1.039062e+00	1.054036e+00	1.015162e+00	1.026893e+00	9.862192e-01	1.002014e+00	9.464463e-01	9.674881e-01	9.023233e-01	9.244866e-01	8.466955e-01	8.836187e-01	8.528328e-01	8.546592e-01	8.451025e-01	8.498256e-01	8.269038e-01	8.379537e-01	8.786592e-01	8.357080e-01	8.562044e-01	9.824230e-01	9.581743e-01	8.428118e-01	9.249558e-01	9.437313e-01	1.048426e+00	8.509018e-01	9.341831e-01	8.215191e-01	8.214336e-01	8.544061e-01	8.254132e-01	1.073554e+00	1.063502e+00	8.520843e-01	1.065444e+00	1.078585e+00	8.481278e-01	8.424828e-01	1.130497e+00	1.200061e+00	1.144137e+00	1.164723e+00	9.199865e-01	9.770681e-01	1.098688e+00	8.119018e-01	1.257508e+00	1.140275e+00	9.047606e-01	8.292918e-01	8.985003e-01	8.317591e-01	1.196664e+00	1.259596e+00	9.048218e-01	9.036661e-01	9.765263e-01	1.170023e+00	8.715931e-01	9.081232e-01	8.618221e-01	1.132564e+00	9.232680e-01	9.136710e-01	8.715405e-01	8.842290e-01	1.301179e+00	8.671256e-01	1.106624e+00	9.636546e-01	8.331364e-01	8.985774e-01	9.160037e-01	9.477293e-01	8.975294e-01	9.405449e-01	9.713682e-01	8.551598e-01	9.661328e-01	8.875139e-01	9.234175e-01	1.030982e+00	8.341568e-01	9.339379e-01	8.507554e-01	1.051742e+00	1.077670e+00	8.500681e-01	8.207471e-01	1.135281e+00	1.060265e+00	1.083583e+00	1.133409e+00	1.088797e+00	8.579688e-01	8.523532e-01	8.575366e-01	8.317066e-01	9.122062e-01	8.557210e-01	9.322975e-01	8.449287e-01	8.404133e-01	1.115626e+00	1.096437e+00	1.069938e+00	8.319949e-01	1.209295e+00	1.131213e+00	1.112885e+00	1.010905e+00	1.129311e+00	1.204361e+00	1.331138e+00	1.319349e+00	1.078046e+00	1.212020e+00	9.277505e-01	1.161753e+00	1.150115e+00	8.335387e-01	9.398255e-01	1.117701e+00	9.478661e-01	8.793790e-01	1.143007e+00	1.324677e+00	9.469374e-01	8.372426e-01	8.921487e-01	8.569097e-01	9.321398e-01	9.612752e-01	9.120250e-01	9.767325e-01	9.703676e-01	9.360771e-01	1.027034e+00	9.400626e-01	1.001185e+00	1.097004e+00	8.438583e-01	8.784142e-01	8.701153e-01	1.155865e+00	9.478574e-01	9.473494e-01	9.462238e-01	1.051702e+00	9.433461e-01	9.454832e-01	9.284158e-01	9.829060e-01	9.590421e-01	9.454799e-01	8.374656e-01	8.721083e-01	9.368891e-01	9.268331e-01	1.038812e+00	1.070669e+00	8.927790e-01	8.860931e-01	8.613102e-01	8.518548e-01	9.337033e-01	9.303132e-01	9.632020e-01	9.448289e-01	1.137181e+00	9.330291e-01	9.370964e-01	8.356482e-01	8.441371e-01	8.764393e-01	8.838811e-01	9.114853e-01	9.176489e-01	8.907854e-01	1.301811e+00	1.239907e+00	8.456730e-01	1.079511e+00	8.302039e-01	8.174470e-01	8.185364e-01	8.217936e-01	1.102021e+00	1.126656e+00	1.104576e+00	8.257687e-01	8.297184e-01	8.408589e-01	1.092518e+00	1.132482e+00	8.336351e-01	8.364537e-01	8.580188e-01	8.576595e-01	8.481138e-01	8.413445e-01	8.375789e-01	1.005969e+00	9.740656e-01	9.645911e-01	9.989268e-01	1.024898e+00	1.080746e+00	1.044160e+00	1.037318e+00	1.018867e+00	1.012616e+00	9.912458e-01	9.829583e-01	9.546482e-01	9.443723e-01	9.128456e-01	9.025213e-01	8.598925e-01	8.447288e-01	8.932776e-01	8.857887e-01	8.567602e-01	8.557205e-01	8.544356e-01	8.528339e-01	9.069361e-01	8.525641e-01	8.614507e-01	8.526553e-01	8.575747e-01	9.445663e-01	9.423981e-01	1.066868e+00	8.727833e-01	8.305895e-01	8.306891e-01	8.542506e-01	8.557660e-01	8.442884e-01	8.473877e-01	1.125729e+00	1.116029e+00	9.232700e-01	9.196856e-01	1.004106e+00	1.274045e+00	8.977738e-01	1.298386e+00	9.418858e-01	9.105902e-01	8.667562e-01	9.412393e-01	9.729896e-01	1.089406e+00	1.086517e+00	1.120049e+00	1.078093e+00	1.097914e+00	1.148944e+00	1.174203e+00	1.151446e+00	1.194889e+00	1.079662e+00	1.281301e+00	8.925181e-01	9.673029e-01	1.129403e+00	8.725504e-01	1.170085e+00	1.193459e+00	9.037723e-01	1.252956e+00	8.987907e-01	1.105852e+00	9.435581e-01	1.163190e+00	9.269876e-01	9.289739e-01	9.082490e-01	1.138584e+00	1.133991e+00	1.096104e+00	8.324080e-01	1.122984e+00	9.234663e-01	1.110041e+00	8.256744e-01	8.603881e-01	8.545833e-01	8.540102e-01	8.442500e-01	1.162812e+00	1.274843e+00	1.180310e+00	9.294863e-01	1.236924e+00	9.994548e-01	9.056705e-01	1.311928e+00	8.424253e-01	9.473252e-01	1.054890e+00	9.888215e-01	1.029171e+00	1.003521e+00	9.334734e-01	1.089081e+00	1.123273e+00	1.065577e+00	1.056984e+00	8.565537e-01	8.594609e-01	8.610146e-01	8.403382e-01	9.160458e-01	9.122881e-01	8.668942e-01	9.559501e-01	8.513395e-01	1.105044e+00	1.122161e+00	1.029818e+00	1.129463e+00	1.223777e+00	1.308370e+00	1.031314e+00	1.180590e+00	1.173793e+00	1.029985e+00	1.117650e+00	8.820138e-01	9.468821e-01	8.397395e-01	8.920371e-01	9.115401e-01	9.559617e-01	9.659455e-01	9.354054e-01	9.199820e-01	9.724856e-01	9.749331e-01	9.567760e-01	9.722146e-01	1.102116e+00	8.795911e-01	8.726434e-01	1.144787e+00	9.471756e-01	9.464242e-01	9.441754e-01	9.458278e-01	1.009530e+00	9.596822e-01	9.542471e-01	8.525530e-01	8.463327e-01	9.387254e-01	9.359305e-01	1.057800e+00	1.081934e+00	8.930947e-01	8.866801e-01	8.805552e-01	8.696386e-01	8.602296e-01	9.328916e-01	9.297078e-01	9.893369e-01	9.701617e-01	9.520973e-01	9.314817e-01	9.355200e-01	9.389865e-01	8.426815e-01	8.474961e-01	8.563830e-01	8.766736e-01	8.845605e-01	9.165517e-01	9.219847e-01	8.913288e-01	8.596107e-01	8.240538e-01	8.257500e-01	1.113629e+00	8.290580e-01	8.327092e-01	8.362716e-01	8.431179e-01	1.094832e+00	8.481131e-01	8.531660e-01	8.609504e-01	8.611651e-01	8.483418e-01	8.453893e-01	8.425866e-01	9.718966e-01	1.084829e+00	1.074860e+00	1.049164e+00	1.042051e+00	1.035522e+00	1.022931e+00	1.016726e+00	1.010294e+00	9.964098e-01	9.887703e-01	9.805742e-01	9.627511e-01	9.532044e-01	9.434263e-01	9.134650e-01	8.590761e-01	8.445225e-01	9.039702e-01	8.956859e-01	8.888427e-01	8.605453e-01	8.597855e-01	8.588200e-01	8.576330e-01	8.561013e-01	8.679150e-01	8.785982e-01	8.635191e-01	8.658350e-01	8.753956e-01	9.451676e-01	9.433976e-01	8.919688e-01	9.084956e-01	8.393082e-01	8.398106e-01	8.415111e-01	8.581914e-01	8.464252e-01	8.495426e-01	8.522801e-01	1.119358e+00	1.112942e+00	1.104523e+00	9.264095e-01	9.230488e-01	9.195976e-01	8.977505e-01	9.042815e-01	1.273401e+00	9.013560e-01	1.116775e+00	1.094560e+00	9.403359e-01	1.255094e+00	1.156573e+00	9.725690e-01	9.696132e-01	1.034853e+00	1.099062e+00	8.327911e-01	1.251205e+00	9.762190e-01	1.180847e+00	1.112570e+00	1.107110e+00	1.166139e+00	9.236028e-01	1.125606e+00	1.179123e+00	1.181657e+00	8.734692e-01	8.539287e-01	1.080308e+00	9.429511e-01	9.143305e-01	9.466417e-01	9.160359e-01	1.092422e+00	8.720625e-01	1.113416e+00	1.111859e+00	1.001588e+00	8.578030e-01	8.641257e-01	1.116718e+00	8.595563e-01	9.416503e-01	1.134934e+00	1.093777e+00	1.141326e+00	1.048995e+00	1.103860e+00	9.085457e-01	1.207043e+00	9.046516e-01	8.992507e-01	1.129138e+00	1.126489e+00	1.155015e+00	1.027105e+00	8.355454e-01	8.609514e-01	1.212927e+00	1.007189e+00	9.339109e-01	1.061884e+00	8.592852e-01	8.623343e-01	8.633857e-01	9.161767e-01	9.129012e-01	1.099159e+00	1.042830e+00	1.083542e+00	1.231854e+00	1.284811e+00	1.057011e+00	1.025967e+00	1.104202e+00	8.850629e-01	9.123981e-01	9.281242e-01	9.529884e-01	9.624026e-01	9.432574e-01	9.282804e-01	9.692688e-01	9.732943e-01	9.742611e-01	9.827634e-01	1.002462e+00	8.818477e-01	8.784387e-01	1.134628e+00	9.468070e-01	9.464111e-01	9.447291e-01	9.459539e-01	9.678532e-01	9.711478e-01	8.627084e-01	8.563454e-01	9.379991e-01	1.070028e+00	1.088672e+00	8.945843e-01	8.880651e-01	8.894290e-01	8.789050e-01	8.702303e-01	9.351895e-01	9.324847e-01	1.014939e+00	9.954973e-01	9.766228e-01	9.591675e-01	9.303164e-01	9.342409e-01	9.376334e-01	9.405635e-01	8.553447e-01	8.606354e-01	8.686527e-01	8.776681e-01	8.856989e-01	9.260133e-01	9.211957e-01	8.926426e-01	8.317136e-01	1.104595e+00	1.109429e+00	8.337508e-01	8.366848e-01	8.398884e-01	8.430415e-01	8.461436e-01	8.660106e-01	8.740665e-01	8.645430e-01	8.646675e-01	8.553145e-01	8.528614e-01	8.508807e-01	8.493022e-01	1.086890e+00	1.078416e+00	1.070072e+00	1.054175e+00	1.047051e+00	1.040442e+00	1.033282e+00	1.021669e+00	1.014608e+00	1.008249e+00	9.942728e-01	9.869028e-01	9.786725e-01	9.705666e-01	9.613764e-01	9.527238e-01	9.428172e-01	8.461630e-01	8.578081e-01	9.150740e-01	9.055366e-01	8.991739e-01	8.915677e-01	8.644714e-01	8.640040e-01	8.632520e-01	8.623230e-01	8.612105e-01	8.597231e-01	8.834723e-01	8.953742e-01	8.762120e-01	8.827842e-01	8.955827e-01	9.454834e-01	9.442541e-01	9.424915e-01	9.104777e-01	9.284712e-01	9.498759e-01	8.485271e-01	8.491000e-01	8.514803e-01	8.549850e-01	8.491586e-01	8.521072e-01	8.549569e-01	8.572851e-01	1.094934e+00	1.107921e+00	1.102260e+00	9.292729e-01	9.264116e-01	9.229462e-01	9.199567e-01	8.986715e-01	9.046561e-01	9.104113e-01	1.124170e+00	1.113594e+00	1.044343e+00	1.169894e+00	1.147154e+00	9.036381e-01	9.108706e-01	1.169559e+00	1.096461e+00	1.213122e+00	1.058531e+00	8.668716e-01	8.621810e-01	1.021632e+00	1.121601e+00	1.225906e+00	1.288002e+00	1.289557e+00	1.274406e+00	1.230371e+00	1.135501e+00	8.643381e-01	1.062059e+00	1.115838e+00	9.786589e-01	8.853520e-01	9.438627e-01	1.104966e+00	1.087726e+00	1.102138e+00	8.641326e-01	8.459098e-01	9.291672e-01	9.960178e-01	8.404426e-01	9.407774e-01	8.620092e-01	1.099619e+00	9.235716e-01	1.156045e+00	1.095275e+00	1.284237e+00	1.176827e+00	1.168835e+00	9.760506e-01	1.038905e+00	1.248470e+00	9.930993e-01	1.191839e+00	1.105021e+00	1.155164e+00	1.170581e+00	1.171437e+00	1.101979e+00	9.251212e-01	9.207728e-01	1.096206e+00	8.851524e-01	1.104551e+00	1.105310e+00	9.116260e-01	1.192088e+00	8.652144e-01	8.669138e-01	8.672230e-01	9.186035e-01	1.052643e+00	1.086500e+00	1.259711e+00	1.080650e+00	9.301774e-01	9.408102e-01	9.518648e-01	9.605998e-01	9.370365e-01	9.520377e-01	9.679332e-01	9.726571e-01	9.755354e-01	9.768672e-01	1.007654e+00	1.025795e+00	8.890442e-01	1.124293e+00	9.464108e-01	9.463125e-01	9.450918e-01	9.458705e-01	9.829920e-01	9.925007e-01	8.730857e-01	8.662128e-01	1.078473e+00	1.092988e+00	8.963250e-01	8.989368e-01	8.877656e-01	8.820385e-01	9.361598e-01	1.020139e+00	1.001468e+00	9.834198e-01	9.675496e-01	9.293997e-01	9.331055e-01	9.364791e-01	9.394035e-01	9.417865e-01	8.666830e-01	8.726853e-01	8.784767e-01	8.866239e-01	8.933050e-01	1.098947e+00	1.101758e+00	1.103996e+00	8.390378e-01	8.422274e-01	8.437993e-01	8.474720e-01	8.494025e-01	8.794376e-01	8.888023e-01	8.683845e-01	8.681601e-01	8.593420e-01	8.590234e-01	8.583828e-01	1.079917e+00	1.073190e+00	1.065428e+00	1.058427e+00	1.051257e+00	1.044741e+00	1.037792e+00	1.028335e+00	1.019741e+00	1.009232e+00	9.812107e-01	9.649797e-01	9.474352e-01	9.124408e-01	8.987848e-01	8.687806e-01	8.679806e-01	8.681142e-01	8.667584e-01	8.667110e-01	8.655726e-01	8.641022e-01	8.998072e-01	9.123785e-01	8.910437e-01	8.989587e-01	9.146172e-01	9.456325e-01	9.440148e-01	9.280097e-01	9.471464e-01	9.683895e-01	8.583596e-01	8.594766e-01	8.622897e-01	8.673375e-01	8.729256e-01	8.528526e-01	8.547139e-01	8.578815e-01	8.606744e-01	1.098653e+00	1.092485e+00	9.307498e-01	9.249039e-01	8.999900e-01	9.052308e-01	9.109610e-01	9.156887e-01	1.162973e+00	1.143161e+00	1.158567e+00	1.245433e+00	1.174350e+00	1.070956e+00	1.099331e+00	1.174285e+00	1.098109e+00	1.137425e+00	1.095740e+00	1.237738e+00	1.060053e+00	1.138876e+00	8.665224e-01	1.170961e+00	1.059428e+00	1.144726e+00	1.118882e+00	1.056996e+00	9.427063e-01	1.096728e+00	9.266250e-01	9.920729e-01	9.839551e-01	9.294748e-01	9.205114e-01	8.780456e-01	1.210656e+00	9.448389e-01	9.472936e-01	9.340691e-01	8.666424e-01	1.095770e+00	1.082391e+00	1.202290e+00	1.032443e+00	1.042382e+00	1.162582e+00	1.095590e+00	1.285263e+00	1.225806e+00	1.106120e+00	9.047401e-01	8.511861e-01	8.474986e-01	1.103494e+00	1.167126e+00	1.118689e+00	1.262424e+00	1.171613e+00	1.042569e+00	1.195382e+00	1.177577e+00	8.816084e-01	1.079553e+00	1.098018e+00	1.095750e+00	8.626677e-01	8.694081e-01	8.713629e-01	9.112882e-01	1.087809e+00	1.116724e+00	1.099834e+00	9.472626e-01	9.635708e-01	9.606329e-01	9.752172e-01	9.808266e-01	1.027431e+00	1.115099e+00	9.460045e-01	1.001193e+00	1.013140e+00	8.809083e-01	1.083916e+00	8.989234e-01	8.956255e-01	9.040830e-01	8.922356e-01	9.392363e-01	1.025039e+00	1.006481e+00	9.894570e-01	9.777284e-01	9.338101e-01	9.394958e-01	9.429933e-01	8.847132e-01	8.970897e-01	1.096656e+00	1.097638e+00	8.504582e-01	8.550423e-01	9.036706e-01	8.724085e-01	8.674578e-01	1.015638e+00	1.070695e+00	1.057591e+00	1.044932e+00	1.034134e+00	1.025080e+00	1.004050e+00	9.906734e-01	9.760065e-01	9.601182e-01	9.429946e-01	9.262515e-01	9.122146e-01	8.990552e-01	8.725394e-01	8.719132e-01	8.715027e-01	8.695372e-01	8.689599e-01	9.163683e-01	9.296630e-01	8.988036e-01	9.109000e-01	9.314503e-01	9.459087e-01	9.448137e-01	9.449801e-01	9.638391e-01	9.849012e-01	1.007303e+00	8.686777e-01	8.703713e-01	8.736359e-01	8.793559e-01	8.875680e-01	8.921067e-01	8.594398e-01	8.637739e-01	1.094862e+00	1.090124e+00	9.346516e-01	9.239223e-01	9.179078e-01	9.088215e-01	9.183468e-01	1.108123e+00	1.161884e+00	1.157632e+00	1.125399e+00	1.004565e+00	1.101458e+00	1.167228e+00	1.131488e+00	1.164415e+00	1.113925e+00	1.144246e+00	1.121806e+00	1.087847e+00	1.182254e+00	1.217031e+00	1.093221e+00	9.076327e-01	8.698202e-01	1.114840e+00	9.829889e-01	1.078537e+00	9.125711e-01	1.064205e+00	1.148220e+00	9.440914e-01	1.007409e+00	9.286539e-01	9.415780e-01	1.065850e+00	1.077051e+00	1.061442e+00	1.046374e+00	1.163800e+00	1.095652e+00	1.097906e+00	1.092506e+00	8.748296e-01	8.976143e-01	9.178936e-01	9.685041e-01	1.139940e+00	1.147643e+00	1.261498e+00	1.053972e+00	1.092891e+00	1.168879e+00	1.087690e+00	1.159187e+00	1.130934e+00	9.440376e-01	1.205455e+00	9.586913e-01	9.431793e-01	1.094263e+00	1.221847e+00	1.041850e+00	1.097453e+00	9.123473e-01	1.238842e+00	1.170474e+00	9.843847e-01	1.192829e+00	1.179327e+00	8.651201e-01	1.096499e+00	1.090786e+00	8.800983e-01	8.725239e-01	9.123112e-01	1.111736e+00	1.135174e+00	9.611406e-01	9.737574e-01	9.890641e-01	9.968485e-01	1.107071e+00	9.454643e-01	1.018142e+00	1.029650e+00	9.416695e-01	9.160271e-01	9.315794e-01	9.050740e-01	9.282796e-01	9.136140e-01	9.010201e-01	1.028460e+00	9.317723e-01	9.375270e-01	8.921858e-01	8.905048e-01	9.234395e-01	1.093550e+00	8.571034e-01	8.561043e-01	8.765550e-01	1.073151e+00	1.062134e+00	1.021209e+00	1.050494e+00	1.039718e+00	1.030264e+00	1.011015e+00	9.990541e-01	9.857543e-01	9.714212e-01	9.558755e-01	9.397343e-01	9.251528e-01	8.764094e-01	8.772949e-01	8.775790e-01	8.772859e-01	8.754826e-01	8.753879e-01	9.318816e-01	9.465945e-01	9.070738e-01	9.473470e-01	9.459788e-01	9.454543e-01	9.612804e-01	9.786916e-01	9.987981e-01	1.019272e+00	1.041056e+00	8.797123e-01	8.830437e-01	8.862522e-01	8.916871e-01	9.003945e-01	8.590329e-01	8.627982e-01	8.665774e-01	1.088135e+00	1.081890e+00	9.379760e-01	9.335346e-01	8.968202e-01	9.072527e-01	9.170507e-01	9.249648e-01	1.142741e+00	1.149971e+00	1.147340e+00	1.110500e+00	1.145784e+00	1.128847e+00	1.106551e+00	1.021680e+00	1.166417e+00	1.114722e+00	1.111513e+00	1.051727e+00	1.157823e+00	1.089047e+00	8.804837e-01	1.133232e+00	1.137379e+00	1.108276e+00	1.162484e+00	1.067573e+00	9.111443e-01	1.007461e+00	9.919124e-01	9.140629e-01	1.128782e+00	1.122179e+00	1.118482e+00	1.166636e+00	1.152007e+00	8.971276e-01	9.