# vtk DataFile Version 3.0
vtk output
ASCII
DATASET UNSTRUCTURED_GRID
POINTS 200 float
9.997500e-01	-3.633560e-05	0.0	9.990000e-01	-1.456725e-04	0.0	9.977600e-01	-3.296953e-04	0.0	9.960200e-01	-6.016777e-04	0.0	9.937800e-01	-9.892023e-04	0.0	9.910500e-01	-1.537076e-03	0.0	9.878400e-01	-2.302433e-03	0.0	9.841300e-01	-3.345533e-03	0.0	9.799500e-01	-4.681929e-03	0.0	9.752800e-01	-6.285362e-03	0.0	9.701500e-01	-8.049054e-03	0.0	9.645400e-01	-9.837864e-03	0.0	9.584700e-01	-1.149955e-02	0.0	9.519400e-01	-1.293217e-02	0.0	9.449600e-01	-1.410635e-02	0.0	9.375400e-01	-1.507061e-02	0.0	9.296900e-01	-1.592597e-02	0.0	9.214000e-01	-1.678952e-02	0.0	9.127000e-01	-1.775387e-02	0.0	9.035800e-01	-1.887515e-02	0.0	8.940600e-01	-2.016104e-02	0.0	8.841500e-01	-2.158321e-02	0.0	8.738500e-01	-2.309189e-02	0.0	8.631800e-01	-2.462580e-02	0.0	8.521600e-01	-2.612691e-02	0.0	8.407700e-01	-2.755299e-02	0.0	8.290500e-01	-2.886795e-02	0.0	8.170100e-01	-3.005445e-02	0.0	8.046400e-01	-3.110950e-02	0.0	7.919700e-01	-3.203637e-02	0.0	7.790100e-01	-3.284711e-02	0.0	7.657800e-01	-3.355682e-02	0.0	7.522800e-01	-3.418259e-02	0.0	7.385200e-01	-3.473975e-02	0.0	7.245300e-01	-3.524059e-02	0.0	7.103200e-01	-3.569529e-02	0.0	6.958900e-01	-3.611129e-02	0.0	6.812700e-01	-3.649252e-02	0.0	6.664700e-01	-3.684167e-02	0.0	6.515000e-01	-3.716031e-02	0.0	6.363800e-01	-3.744946e-02	0.0	6.211300e-01	-3.771060e-02	0.0	6.057600e-01	-3.794618e-02	0.0	5.902800e-01	-3.815972e-02	0.0	5.747100e-01	-3.835573e-02	0.0	5.590600e-01	-3.853981e-02	0.0	5.433600e-01	-3.871804e-02	0.0	5.276100e-01	-3.889709e-02	0.0	5.118400e-01	-3.908315e-02	0.0	4.960500e-01	-3.928214e-02	0.0	4.802700e-01	-3.949862e-02	0.0	4.645100e-01	-3.973607e-02	0.0	4.487800e-01	-3.999648e-02	0.0	4.331100e-01	-4.027979e-02	0.0	4.175000e-01	-4.058479e-02	0.0	4.019700e-01	-4.090825e-02	0.0	3.865400e-01	-4.124545e-02	0.0	3.712300e-01	-4.159030e-02	0.0	3.560400e-01	-4.193615e-02	0.0	3.409900e-01	-4.227502e-02	0.0	3.261100e-01	-4.259821e-02	0.0	3.114000e-01	-4.289734e-02	0.0	2.968700e-01	-4.316372e-02	0.0	2.825500e-01	-4.338842e-02	0.0	2.684500e-01	-4.356321e-02	0.0	2.545700e-01	-4.368028e-02	0.0	2.409400e-01	-4.373207e-02	0.0	2.275700e-01	-4.371180e-02	0.0	2.144700e-01	-4.361327e-02	0.0	2.016600e-01	-4.343100e-02	0.0	1.891400e-01	-4.315988e-02	0.0	1.769300e-01	-4.279570e-02	0.0	1.650400e-01	-4.233475e-02	0.0	1.534900e-01	-4.177440e-02	0.0	1.422900e-01	-4.111242e-02	0.0	1.314400e-01	-4.034644e-02	0.0	1.209500e-01	-3.947519e-02	0.0	1.108500e-01	-3.850013e-02	0.0	1.011300e-01	-3.741995e-02	0.0	9.181000e-02	-3.623700e-02	0.0	8.290000e-02	-3.495373e-02	0.0	7.440000e-02	-3.357189e-02	0.0	6.633000e-02	-3.209744e-02	0.0	5.869000e-02	-3.053401e-02	0.0	5.149000e-02	-2.888799e-02	0.0	4.474000e-02	-2.716703e-02	0.0	3.844000e-02	-2.537710e-02	0.0	3.260000e-02	-2.352755e-02	0.0	2.723000e-02	-2.162893e-02	0.0	2.232000e-02	-1.968469e-02	0.0	1.790000e-02	-1.771431e-02	0.0	1.395000e-02	-1.571593e-02	0.0	1.049000e-02	-1.370503e-02	0.0	7.520000e-03	-1.168637e-02	0.0	5.040000e-03	-9.660990e-03	0.0	3.050000e-03	-7.623310e-03	0.0	1.560000e-03	-5.571406e-03	0.0	5.600000e-04	-3.458134e-03	0.0	6.000000e-05	-1.212101e-03	0.0	0.000000e+00	0.000000e+00	0.0	6.000000e-05	1.168060e-03	0.0	5.600000e-04	3.225862e-03	0.0	1.560000e-03	5.060438e-03	0.0	3.050000e-03	6.760939e-03	0.0	5.040000e-03	8.383042e-03	0.0	7.520000e-03	9.941085e-03	0.0	1.049000e-02	1.145070e-02	0.0	1.395000e-02	1.292115e-02	0.0	1.790000e-02	1.435809e-02	0.0	2.232000e-02	1.575894e-02	0.0	2.723000e-02	1.713291e-02	0.0	3.260000e-02	1.847357e-02	0.0	3.844000e-02	1.978528e-02	0.0	4.474000e-02	2.106688e-02	0.0	5.149000e-02	2.231746e-02	0.0	5.869000e-02	2.353800e-02	0.0	6.633000e-02	2.472768e-02	0.0	7.440000e-02	2.588596e-02	0.0	8.290000e-02	2.701384e-02	0.0	9.181000e-02	2.810979e-02	0.0	1.011300e-01	2.917505e-02	0.0	1.108500e-01	3.020970e-02	0.0	1.209500e-01	3.121299e-02	0.0	1.314400e-01	3.218727e-02	0.0	1.422900e-01	3.313110e-02	0.0	1.534900e-01	3.404510e-02	0.0	1.650400e-01	3.493064e-02	0.0	1.769300e-01	3.578814e-02	0.0	1.891400e-01	3.661728e-02	0.0	2.016600e-01	3.741839e-02	0.0	2.144700e-01	3.819104e-02	0.0	2.275700e-01	3.893576e-02	0.0	2.409400e-01	3.965165e-02	0.0	2.545700e-01	4.033807e-02	0.0	2.684500e-01	4.099396e-02	0.0	2.825500e-01	4.161698e-02	0.0	2.968700e-01	4.220577e-02	0.0	3.114000e-01	4.275795e-02	0.0	3.261100e-01	4.326997e-02	0.0	3.409900e-01	4.373864e-02	0.0	3.560400e-01	4.416054e-02	0.0	3.712300e-01	4.453100e-02	0.0	3.865400e-01	4.484542e-02	0.0	4.019700e-01	4.509933e-02	0.0	4.175000e-01	4.528767e-02	0.0	4.331100e-01	4.540533e-02	0.0	4.487800e-01	4.544732e-02	0.0	4.645100e-01	4.540872e-02	0.0	4.802700e-01	4.528474e-02	0.0	4.960500e-01	4.507081e-02	0.0	5.118400e-01	4.476248e-02	0.0	5.276100e-01	4.435607e-02	0.0	5.433600e-01	4.384760e-02	0.0	5.590600e-01	4.323446e-02	0.0	5.747100e-01	4.251358e-02	0.0	5.902800e-01	4.168403e-02	0.0	6.057600e-01	4.074511e-02	0.0	6.211300e-01	3.969810e-02	0.0	6.363800e-01	3.854537e-02	0.0	6.515000e-01	3.729128e-02	0.0	6.664700e-01	3.594330e-02	0.0	6.812700e-01	3.451160e-02	0.0	6.958900e-01	3.300787e-02	0.0	7.103200e-01	3.144583e-02	0.0	7.245300e-01	2.984296e-02	0.0	7.385200e-01	2.821407e-02	0.0	7.522800e-01	2.657456e-02	0.0	7.657800e-01	2.494061e-02	0.0	7.790100e-01	2.332328e-02	0.0	7.919700e-01	2.172886e-02	0.0	8.046400e-01	2.016221e-02	0.0	8.170100e-01	1.862321e-02	0.0	8.290500e-01	1.711116e-02	0.0	8.407700e-01	1.561819e-02	0.0	8.521600e-01	1.413753e-02	0.0	8.631800e-01	1.266583e-02	0.0	8.738500e-01	1.119171e-02	0.0	8.841500e-01	9.709789e-03	0.0	8.940600e-01	8.217678e-03	0.0	9.035800e-01	6.716968e-03	0.0	9.127000e-01	5.224118e-03	0.0	9.214000e-01	3.778056e-03	0.0	9.296900e-01	2.437898e-03	0.0	9.375400e-01	1.290505e-03	0.0	9.449600e-01	4.220217e-04	0.0	9.519400e-01	-9.908408e-05	0.0	9.584700e-01	-2.549149e-04	0.0	9.645400e-01	-9.627962e-05	0.0	9.701500e-01	2.638278e-04	0.0	9.752800e-01	6.794537e-04	0.0	9.799500e-01	1.019598e-03	0.0	9.841300e-01	1.198433e-03	0.0	9.878400e-01	1.196410e-03	0.0	9.910500e-01	1.046957e-03	0.0	9.937800e-01	8.109544e-04	0.0	9.960200e-01	5.521704e-04	0.0	9.977600e-01	3.205056e-04	0.0	9.990000e-01	1.448334e-04	0.0	9.997500e-01	3.632230e-05	0.0	1.000000e+00	0.000000e+00	0.0	
CELLS 200	600
2	199	0	2	0	1	2	1	2	2	2	3	2	3	4	2	4	5	2	5	6	2	6	7	2	7	8	2	8	9	2	9	10	2	10	11	2	11	12	2	12	13	2	13	14	2	14	15	2	15	16	2	16	17	2	17	18	2	18	19	2	19	20	2	20	21	2	21	22	2	22	23	2	23	24	2	24	25	2	25	26	2	26	27	2	27	28	2	28	29	2	29	30	2	30	31	2	31	32	2	32	33	2	33	34	2	34	35	2	35	36	2	36	37	2	37	38	2	38	39	2	39	40	2	40	41	2	41	42	2	42	43	2	43	44	2	44	45	2	45	46	2	46	47	2	47	48	2	48	49	2	49	50	2	50	51	2	51	52	2	52	53	2	53	54	2	54	55	2	55	56	2	56	57	2	57	58	2	58	59	2	59	60	2	60	61	2	61	62	2	62	63	2	63	64	2	64	65	2	65	66	2	66	67	2	67	68	2	68	69	2	69	70	2	70	71	2	71	72	2	72	73	2	73	74	2	74	75	2	75	76	2	76	77	2	77	78	2	78	79	2	79	80	2	80	81	2	81	82	2	82	83	2	83	84	2	84	85	2	85	86	2	86	87	2	87	88	2	88	89	2	89	90	2	90	91	2	91	92	2	92	93	2	93	94	2	94	95	2	95	96	2	96	97	2	97	98	2	98	99	2	99	100	2	100	101	2	101	102	2	102	103	2	103	104	2	104	105	2	105	106	2	106	107	2	107	108	2	108	109	2	109	110	2	110	111	2	111	112	2	112	113	2	113	114	2	114	115	2	115	116	2	116	117	2	117	118	2	118	119	2	119	120	2	120	121	2	121	122	2	122	123	2	123	124	2	124	125	2	125	126	2	126	127	2	127	128	2	128	129	2	129	130	2	130	131	2	131	132	2	132	133	2	133	134	2	134	135	2	135	136	2	136	137	2	137	138	2	138	139	2	139	140	2	140	141	2	141	142	2	142	143	2	143	144	2	144	145	2	145	146	2	146	147	2	147	148	2	148	149	2	149	150	2	150	151	2	151	152	2	152	153	2	153	154	2	154	155	2	155	156	2	156	157	2	157	158	2	158	159	2	159	160	2	160	161	2	161	162	2	162	163	2	163	164	2	164	165	2	165	166	2	166	167	2	167	168	2	168	169	2	169	170	2	170	171	2	171	172	2	172	173	2	173	174	2	174	175	2	175	176	2	176	177	2	177	178	2	178	179	2	179	180	2	180	181	2	181	182	2	182	183	2	183	184	2	184	185	2	185	186	2	186	187	2	187	188	2	188	189	2	189	190	2	190	191	2	191	192	2	192	193	2	193	194	2	194	195	2	195	196	2	196	197	2	197	198	2	198	199	
CELL_TYPES 200
3	3	3	3	3	3	3	3	3	3	3	3	3	3	3	3	3	3	3	3	3	3	3	3	3	3	3	3	3	3	3	3	3	3	3	3	3	3	3	3	3	3	3	3	3	3	3	3	3	3	3	3	3	3	3	3	3	3	3	3	3	3	3	3	3	3	3	3	3	3	3	3	3	3	3	3	3	3	3	3	3	3	3	3	3	3	3	3	3	3	3	3	3	3	3	3	3	3	3	3	3	3	3	3	3	3	3	3	3	3	3	3	3	3	3	3	3	3	3	3	3	3	3	3	3	3	3	3	3	3	3	3	3	3	3	3	3	3	3	3	3	3	3	3	3	3	3	3	3	3	3	3	3	3	3	3	3	3	3	3	3	3	3	3	3	3	3	3	3	3	3	3	3	3	3	3	3	3	3	3	3	3	3	3	3	3	3	3	3	3	3	3	3	3	3	3	3	3	3	3	
POINT_DATA 200

SCALARS Conservative_1 float 1
LOOKUP_TABLE default
1.194879e+00	1.179030e+00	1.171979e+00	1.169286e+00	1.167910e+00	1.165011e+00	1.156709e+00	1.140187e+00	1.112946e+00	1.074498e+00	1.025215e+00	9.642070e-01	9.092793e-01	8.874071e-01	8.978177e-01	9.248914e-01	9.543094e-01	9.758908e-01	9.864192e-01	9.866661e-01	9.783102e-01	9.634892e-01	9.445688e-01	9.233727e-01	8.998371e-01	8.740830e-01	8.510387e-01	8.371124e-01	8.339887e-01	8.390232e-01	8.484410e-01	8.592490e-01	8.697639e-01	8.790749e-01	8.870321e-01	8.937173e-01	8.993638e-01	9.042531e-01	9.086019e-01	9.126695e-01	9.165919e-01	9.205055e-01	9.244268e-01	9.283625e-01	9.322295e-01	9.359509e-01	9.394024e-01	9.424882e-01	9.450915e-01	9.471289e-01	9.485065e-01	9.491739e-01	9.490799e-01	9.482078e-01	9.465422e-01	9.440923e-01	9.408701e-01	9.369069e-01	9.322452e-01	9.269311e-01	9.210378e-01	9.145825e-01	9.075667e-01	8.999550e-01	8.919479e-01	8.838925e-01	8.759750e-01	8.675315e-01	8.572873e-01	8.445263e-01	8.311533e-01	8.206885e-01	8.153305e-01	8.147730e-01	8.176516e-01	8.226838e-01	8.293721e-01	8.375813e-01	8.471461e-01	8.579670e-01	8.700593e-01	8.833889e-01	8.980195e-01	9.139504e-01	9.312444e-01	9.500145e-01	9.702959e-01	9.922220e-01	1.016022e+00	1.041782e+00	1.069879e+00	1.100826e+00	1.134988e+00	1.173231e+00	1.215951e+00	1.262384e+00	1.307780e+00	1.348066e+00	1.347903e+00	1.321367e+00	1.296405e+00	1.222536e+00	1.088092e+00	9.914160e-01	9.265188e-01	8.861281e-01	8.617404e-01	8.463326e-01	8.358087e-01	8.283368e-01	8.229237e-01	8.188874e-01	8.159705e-01	8.138240e-01	8.123663e-01	8.116606e-01	8.115862e-01	8.120213e-01	8.129878e-01	8.146539e-01	8.173373e-01	8.211654e-01	8.258456e-01	8.307346e-01	8.352493e-01	8.391434e-01	8.423978e-01	8.450492e-01	8.471729e-01	8.488894e-01	8.502785e-01	8.513376e-01	8.520024e-01	8.522122e-01	8.519531e-01	8.512250e-01	8.500483e-01	8.484305e-01	8.463710e-01	8.438729e-01	8.409227e-01	8.375204e-01	8.337358e-01	8.297014e-01	8.255168e-01	8.212023e-01	8.166975e-01	8.121662e-01	8.082645e-01	8.066327e-01	8.096032e-01	8.190074e-01	8.337007e-01	8.489808e-01	8.604377e-01	8.681506e-01	8.747420e-01	8.825066e-01	8.922073e-01	9.032311e-01	9.146910e-01	9.262052e-01	9.377254e-01	9.491688e-01	9.602776e-01	9.708500e-01	9.806922e-01	9.897181e-01	9.978341e-01	1.005118e+00	1.011641e+00	1.017575e+00	1.023162e+00	1.028662e+00	1.034377e+00	1.040632e+00	1.047802e+00	1.056366e+00	1.066824e+00	1.079681e+00	1.095036e+00	1.112365e+00	1.130213e+00	1.146583e+00	1.159128e+00	1.165543e+00	1.163812e+00	1.152628e+00	1.131849e+00	1.103827e+00	1.074771e+00	1.052456e+00	1.044324e+00	1.053476e+00	1.075566e+00	1.102672e+00	1.129654e+00	1.156054e+00	1.184333e+00	1.174503e+00	
SCALARS Conservative_2 float 1
LOOKUP_TABLE default
7.165609e-01	7.386170e-01	7.514481e-01	7.561408e-01	7.559121e-01	7.560835e-01	7.601419e-01	7.724016e-01	7.953756e-01	8.289186e-01	8.696805e-01	9.106018e-01	9.416039e-01	9.617479e-01	9.708412e-01	9.685920e-01	9.603896e-01	9.514496e-01	9.447862e-01	9.424998e-01	9.446122e-01	9.499463e-01	9.567820e-01	9.637681e-01	9.700298e-01	9.746325e-01	9.768824e-01	9.778273e-01	9.784386e-01	9.790038e-01	9.794425e-01	9.795597e-01	9.794521e-01	9.790030e-01	9.784071e-01	9.776945e-01	9.769694e-01	9.762794e-01	9.755407e-01	9.748132e-01	9.740120e-01	9.731763e-01	9.722485e-01	9.712782e-01	9.702446e-01	9.692156e-01	9.681960e-01	9.672637e-01	9.664349e-01	9.657773e-01	9.653034e-01	9.650765e-01	9.650911e-01	9.653723e-01	9.659070e-01	9.666956e-01	9.677024e-01	9.689026e-01	9.702474e-01	9.716800e-01	9.731760e-01	9.746606e-01	9.761422e-01	9.775229e-01	9.787589e-01	9.796803e-01	9.803623e-01	9.808632e-01	9.813550e-01	9.814960e-01	9.809493e-01	9.798202e-01	9.787962e-01	9.780187e-01	9.775464e-01	9.770302e-01	9.764490e-01	9.755982e-01	9.741690e-01	9.719957e-01	9.689679e-01	9.647680e-01	9.591759e-01	9.518164e-01	9.422854e-01	9.300440e-01	9.144489e-01	8.948273e-01	8.701395e-01	8.389310e-01	7.994602e-01	7.491916e-01	6.842454e-01	6.002085e-01	4.910299e-01	3.529533e-01	1.964603e-01	5.325412e-02	-1.085864e-02	6.880660e-03	7.771323e-02	2.410602e-01	4.696109e-01	6.453713e-01	7.589262e-01	8.297141e-01	8.732876e-01	9.011070e-01	9.192964e-01	9.318000e-01	9.407531e-01	9.472808e-01	9.522869e-01	9.562084e-01	9.593414e-01	9.619516e-01	9.641098e-01	9.659307e-01	9.675786e-01	9.690826e-01	9.705033e-01	9.718280e-01	9.729896e-01	9.739128e-01	9.746564e-01	9.752826e-01	9.758259e-01	9.762890e-01	9.766855e-01	9.770289e-01	9.773326e-01	9.775974e-01	9.778400e-01	9.780575e-01	9.782677e-01	9.784595e-01	9.786412e-01	9.788002e-01	9.789238e-01	9.790200e-01	9.790743e-01	9.790688e-01	9.789930e-01	9.788514e-01	9.786185e-01	9.783092e-01	9.779012e-01	9.775059e-01	9.771945e-01	9.772634e-01	9.779585e-01	9.792156e-01	9.801057e-01	9.799984e-01	9.792832e-01	9.785856e-01	9.779430e-01	9.769980e-01	9.754981e-01	9.733511e-01	9.706178e-01	9.673842e-01	9.636812e-01	9.595725e-01	9.551574e-01	9.505856e-01	9.459948e-01	9.415429e-01	9.372369e-01	9.332143e-01	9.294098e-01	9.257247e-01	9.220582e-01	9.182182e-01	9.139671e-01	9.090225e-01	9.029735e-01	8.953258e-01	8.853563e-01	8.724540e-01	8.561869e-01	8.369844e-01	8.164227e-01	7.975065e-01	7.838920e-01	7.790617e-01	7.854213e-01	8.034807e-01	8.309769e-01	8.630299e-01	8.919977e-01	9.096827e-01	9.119158e-01	9.001551e-01	8.774439e-01	8.479102e-01	8.139976e-01	7.759316e-01	7.325622e-01	6.654010e-01	
SCALARS Conservative_3 float 1
LOOKUP_TABLE default
1.016077e-01	1.066402e-01	1.140233e-01	1.244092e-01	1.415266e-01	1.664333e-01	1.979309e-01	2.322150e-01	2.634211e-01	2.836554e-01	2.862622e-01	2.697163e-01	2.323089e-01	1.855299e-01	1.438536e-01	1.146446e-01	1.012750e-01	1.016798e-01	1.101192e-01	1.213496e-01	1.313636e-01	1.375715e-01	1.386379e-01	1.344968e-01	1.264868e-01	1.162126e-01	1.040769e-01	9.097924e-02	7.823359e-02	6.672460e-02	5.689852e-02	4.877729e-02	4.227444e-02	3.712111e-02	3.299014e-02	2.960660e-02	2.673346e-02	2.418992e-02	2.186028e-02	1.968103e-02	1.764295e-02	1.577784e-02	1.413650e-02	1.278095e-02	1.176986e-02	1.114705e-02	1.093606e-02	1.113344e-02	1.171718e-02	1.263333e-02	1.381912e-02	1.518544e-02	1.664439e-02	1.809403e-02	1.943696e-02	2.057775e-02	2.142878e-02	2.190715e-02	2.194679e-02	2.148162e-02	2.045823e-02	1.883859e-02	1.661112e-02	1.378136e-02	1.032367e-02	6.134044e-03	1.113341e-03	-4.669099e-03	-1.091938e-02	-1.741299e-02	-2.451802e-02	-3.266264e-02	-4.187342e-02	-5.196463e-02	-6.287063e-02	-7.459859e-02	-8.727247e-02	-1.009262e-01	-1.155970e-01	-1.313614e-01	-1.482586e-01	-1.663093e-01	-1.855660e-01	-2.060325e-01	-2.277062e-01	-2.505904e-01	-2.746806e-01	-2.999278e-01	-3.261598e-01	-3.531921e-01	-3.806260e-01	-4.073593e-01	-4.314969e-01	-4.487742e-01	-4.499213e-01	-4.180685e-01	-3.269016e-01	-1.499256e-01	9.234861e-02	2.876052e-01	4.681065e-01	6.551731e-01	6.974890e-01	6.358011e-01	5.485031e-01	4.686080e-01	4.037534e-01	3.519177e-01	3.102026e-01	2.758895e-01	2.474057e-01	2.233240e-01	2.027374e-01	1.849428e-01	1.694067e-01	1.557529e-01	1.436802e-01	1.329039e-01	1.232412e-01	1.145253e-01	1.066621e-01	9.959642e-02	9.323292e-02	8.744384e-02	8.210222e-02	7.713898e-02	7.255073e-02	6.830173e-02	6.435559e-02	6.066634e-02	5.720325e-02	5.392339e-02	5.078233e-02	4.772796e-02	4.472564e-02	4.173389e-02	3.871968e-02	3.564354e-02	3.246838e-02	2.916128e-02	2.568668e-02	2.201693e-02	1.811850e-02	1.398385e-02	9.610711e-03	4.990484e-03	9.089487e-05	-5.147501e-03	-1.076420e-02	-1.679046e-02	-2.307388e-02	-2.936331e-02	-3.529519e-02	-4.125222e-02	-4.801457e-02	-5.550028e-02	-6.314058e-02	-7.054120e-02	-7.760215e-02	-8.433680e-02	-9.071126e-02	-9.660441e-02	-1.017773e-01	-1.061041e-01	-1.094921e-01	-1.119802e-01	-1.136021e-01	-1.145179e-01	-1.149271e-01	-1.150887e-01	-1.152679e-01	-1.157125e-01	-1.166336e-01	-1.181784e-01	-1.204413e-01	-1.234875e-01	-1.273001e-01	-1.317240e-01	-1.362858e-01	-1.399482e-01	-1.409450e-01	-1.369102e-01	-1.254010e-01	-1.048779e-01	-7.533208e-02	-3.886359e-02	1.935731e-04	3.558146e-02	5.987995e-02	6.637925e-02	5.195633e-02	2.015745e-02	-2.018182e-02	-5.865011e-02	-8.721841e-02	-1.032759e-01	-1.092906e-01	-1.071135e-01	-1.008576e-01	4.154396e-03	
SCALARS Conservative_4 float 1
LOOKUP_TABLE default
3.432195e+00	3.392361e+00	3.375410e+00	3.369144e+00	3.365865e+00	3.358840e+00	3.338135e+00	3.296848e+00	3.228632e+00	3.132147e+00	3.007928e+00	2.852708e+00	2.711954e+00	2.656943e+00	2.685122e+00	2.755143e+00	2.830772e+00	2.886055e+00	2.912743e+00	2.913158e+00	2.891663e+00	2.853657e+00	2.805053e+00	2.750425e+00	2.689477e+00	2.622382e+00	2.561948e+00	2.525251e+00	2.516894e+00	2.530005e+00	2.554684e+00	2.583019e+00	2.610606e+00	2.634982e+00	2.655787e+00	2.673229e+00	2.687941e+00	2.700675e+00	2.711974e+00	2.722541e+00	2.732710e+00	2.742856e+00	2.753003e+00	2.763187e+00	2.773178e+00	2.782792e+00	2.791698e+00	2.799660e+00	2.806370e+00	2.811624e+00	2.815171e+00	2.816895e+00	2.816655e+00	2.814414e+00	2.810127e+00	2.803822e+00	2.795521e+00	2.785304e+00	2.773274e+00	2.759541e+00	2.744298e+00	2.727573e+00	2.709378e+00	2.689597e+00	2.668752e+00	2.647715e+00	2.627002e+00	2.604882e+00	2.578063e+00	2.544580e+00	2.509358e+00	2.481653e+00	2.467411e+00	2.465854e+00	2.473437e+00	2.486707e+00	2.504381e+00	2.526064e+00	2.551250e+00	2.579662e+00	2.611347e+00	2.646161e+00	2.684261e+00	2.725594e+00	2.770283e+00	2.818566e+00	2.870471e+00	2.926315e+00	2.986609e+00	3.051455e+00	3.121758e+00	3.198717e+00	3.283044e+00	3.376915e+00	3.481106e+00	3.593814e+00	3.703846e+00	3.804245e+00	3.802019e+00	3.735218e+00	3.680690e+00	3.504515e+00	3.161260e+00	2.914070e+00	2.747989e+00	2.645278e+00	2.583570e+00	2.544634e+00	2.517884e+00	2.498788e+00	2.484917e+00	2.474517e+00	2.467011e+00	2.461498e+00	2.457774e+00	2.456030e+00	2.455931e+00	2.457162e+00	2.459814e+00	2.464318e+00	2.471514e+00	2.481727e+00	2.494163e+00	2.507106e+00	2.519042e+00	2.529338e+00	2.537949e+00	2.544968e+00	2.550593e+00	2.555142e+00	2.558827e+00	2.561639e+00	2.563413e+00	2.563986e+00	2.563326e+00	2.561430e+00	2.558354e+00	2.554113e+00	2.548703e+00	2.542135e+00	2.534371e+00	2.525406e+00	2.515424e+00	2.504775e+00	2.493714e+00	2.482301e+00	2.470372e+00	2.458396e+00	2.448112e+00	2.443905e+00	2.451945e+00	2.477013e+00	2.515863e+00	2.556028e+00	2.586048e+00	2.606283e+00	2.623623e+00	2.644000e+00	2.669366e+00	2.698093e+00	2.727863e+00	2.757691e+00	2.787455e+00	2.816946e+00	2.845501e+00	2.872617e+00	2.897805e+00	2.920869e+00	2.941555e+00	2.960107e+00	2.976695e+00	2.991763e+00	3.005935e+00	3.019869e+00	3.034326e+00	3.050127e+00	3.068189e+00	3.089715e+00	3.115909e+00	3.148020e+00	3.186239e+00	3.229259e+00	3.273454e+00	3.313992e+00	3.345187e+00	3.361422e+00	3.357686e+00	3.330595e+00	3.279435e+00	3.209771e+00	3.136983e+00	3.080319e+00	3.058819e+00	3.081159e+00	3.136379e+00	3.204076e+00	3.270939e+00	3.335905e+00	3.405793e+00	3.365969e+00	
SCALARS Pressure float 1
LOOKUP_TABLE default
1.285207e+00	1.262472e+00	1.251583e+00	1.247216e+00	1.245065e+00	1.240642e+00	1.228573e+00	1.204630e+00	1.165299e+00	1.109989e+00	1.039637e+00	9.539982e-01	8.778959e-01	8.465560e-01	8.594780e-01	8.963437e-01	9.368576e-01	9.667789e-01	9.816566e-01	9.822163e-01	9.707225e-01	9.502153e-01	9.241209e-01	8.950659e-01	8.630953e-01	8.285129e-01	7.979668e-01	7.796836e-01	7.757081e-01	7.824730e-01	7.949761e-01	8.093107e-01	8.232368e-01	8.356211e-01	8.462306e-01	8.551827e-01	8.627630e-01	8.693320e-01	8.752021e-01	8.806939e-01	8.860103e-01	8.913159e-01	8.966493e-01	9.020041e-01	9.072796e-01	9.123579e-01	9.170791e-01	9.212996e-01	9.248670e-01	9.276572e-01	9.295487e-01	9.304602e-01	9.303291e-01	9.291269e-01	9.268375e-01	9.234710e-01	9.190507e-01	9.136209e-01	9.072463e-01	8.999989e-01	8.919752e-01	8.832145e-01	8.737106e-01	8.634412e-01	8.526733e-01	8.419077e-01	8.313626e-01	8.201476e-01	8.065219e-01	7.896243e-01	7.720499e-01	7.584396e-01	7.515274e-01	7.508842e-01	7.546659e-01	7.612630e-01	7.699941e-01	7.807217e-01	7.932976e-01	8.076064e-01	8.236621e-01	8.414737e-01	8.611358e-01	8.826980e-01	9.062861e-01	9.321077e-01	9.602735e-01	9.909950e-01	1.024662e+00	1.061518e+00	1.102142e+00	1.147362e+00	1.197907e+00	1.255022e+00	1.319489e+00	1.390098e+00	1.459293e+00	1.517942e+00	1.519524e+00	1.481560e+00	1.437539e+00	1.322076e+00	1.134547e+00	1.000057e+00	9.099228e-01	8.531706e-01	8.185958e-01	7.967017e-01	7.819031e-01	7.715000e-01	7.639999e-01	7.584648e-01	7.544546e-01	7.514928e-01	7.494625e-01	7.484200e-01	7.482255e-01	7.487119e-01	7.498761e-01	7.519499e-01	7.553474e-01	7.602482e-01	7.662899e-01	7.726480e-01	7.785365e-01	7.836151e-01	7.878523e-01	7.913009e-01	7.940600e-01	7.962876e-01	7.980869e-01	7.994561e-01	8.003071e-01	8.005625e-01	8.001989e-01	7.992206e-01	7.976514e-01	7.955052e-01	7.927847e-01	7.894901e-01	7.856068e-01	7.811387e-01	7.761793e-01	7.709003e-01	7.654403e-01	7.598199e-01	7.539639e-01	7.480507e-01	7.429300e-01	7.406945e-01	7.443821e-01	7.564423e-01	7.756021e-01	7.957632e-01	8.109746e-01	8.211901e-01	8.298737e-01	8.401511e-01	8.530836e-01	8.678792e-01	8.833530e-01	8.989826e-01	9.147015e-01	9.303883e-01	9.456908e-01	9.603149e-01	9.739850e-01	9.865550e-01	9.979108e-01	1.008116e+00	1.017279e+00	1.025641e+00	1.033526e+00	1.041306e+00	1.049411e+00	1.058308e+00	1.068550e+00	1.080834e+00	1.095930e+00	1.114580e+00	1.136980e+00	1.162378e+00	1.188648e+00	1.212737e+00	1.231070e+00	1.240163e+00	1.237063e+00	1.219999e+00	1.189124e+00	1.148157e+00	1.106230e+00	1.074795e+00	1.064190e+00	1.077981e+00	1.109974e+00	1.149294e+00	1.188952e+00	1.228218e+00	1.269975e+00	1.270990e+00	
SCALARS Temperature float 1
LOOKUP_TABLE default
1.075596e+00	1.070771e+00	1.067923e+00	1.066648e+00	1.066062e+00	1.064919e+00	1.062128e+00	1.056520e+00	1.047040e+00	1.033030e+00	1.014067e+00	9.894122e-01	9.654854e-01	9.539658e-01	9.572968e-01	9.691340e-01	9.817127e-01	9.906630e-01	9.951718e-01	9.954901e-01	9.922440e-01	9.862231e-01	9.783521e-01	9.693441e-01	9.591684e-01	9.478652e-01	9.376387e-01	9.313965e-01	9.301182e-01	9.326000e-01	9.369845e-01	9.418814e-01	9.465061e-01	9.505687e-01	9.540022e-01	9.568828e-01	9.593037e-01	9.613812e-01	9.632404e-01	9.649647e-01	9.666356e-01	9.682896e-01	9.699517e-01	9.716076e-01	9.732364e-01	9.747924e-01	9.762367e-01	9.775185e-01	9.786005e-01	9.794414e-01	9.800130e-01	9.802842e-01	9.802431e-01	9.798769e-01	9.791825e-01	9.781575e-01	9.768093e-01	9.751458e-01	9.731843e-01	9.709448e-01	9.684458e-01	9.657024e-01	9.626958e-01	9.594270e-01	9.559676e-01	9.525002e-01	9.490711e-01	9.453808e-01	9.407836e-01	9.349907e-01	9.288899e-01	9.241504e-01	9.217458e-01	9.215870e-01	9.229676e-01	9.253410e-01	9.284062e-01	9.321145e-01	9.364354e-01	9.413024e-01	9.466735e-01	9.525517e-01	9.589277e-01	9.658052e-01	9.731989e-01	9.811511e-01	9.896707e-01	9.987633e-01	1.008504e+00	1.018944e+00	1.030156e+00	1.042274e+00	1.055436e+00	1.069714e+00	1.085150e+00	1.101169e+00	1.115855e+00	1.126015e+00	1.127325e+00	1.121233e+00	1.108866e+00	1.081422e+00	1.042694e+00	1.008716e+00	9.820878e-01	9.628073e-01	9.499332e-01	9.413577e-01	9.355049e-01	9.313845e-01	9.283970e-01	9.262138e-01	9.246101e-01	9.234095e-01	9.225672e-01	9.220850e-01	9.219298e-01	9.220349e-01	9.223706e-01	9.230299e-01	9.241563e-01	9.258161e-01	9.278851e-01	9.300781e-01	9.321008e-01	9.338274e-01	9.352497e-01	9.363962e-01	9.373057e-01	9.380346e-01	9.386182e-01	9.390589e-01	9.393250e-01	9.393934e-01	9.392523e-01	9.389063e-01	9.383601e-01	9.376198e-01	9.366870e-01	9.355557e-01	9.342200e-01	9.326802e-01	9.309656e-01	9.291298e-01	9.272256e-01	9.252529e-01	9.231863e-01	9.210561e-01	9.191669e-01	9.182550e-01	9.194406e-01	9.236086e-01	9.303124e-01	9.373158e-01	9.425141e-01	9.459073e-01	9.487068e-01	9.520054e-01	9.561496e-01	9.608606e-01	9.657393e-01	9.706085e-01	9.754470e-01	9.802138e-01	9.848099e-01	9.891486e-01	9.931607e-01	9.968040e-01	1.000077e+00	1.002983e+00	1.005573e+00	1.007926e+00	1.010129e+00	1.012292e+00	1.014535e+00	1.016986e+00	1.019802e+00	1.023163e+00	1.027283e+00	1.032323e+00	1.038304e+00	1.044961e+00	1.051703e+00	1.057697e+00	1.062066e+00	1.064021e+00	1.062941e+00	1.058450e+00	1.050603e+00	1.040161e+00	1.029270e+00	1.021226e+00	1.019023e+00	1.023261e+00	1.031990e+00	1.042281e+00	1.052493e+00	1.062422e+00	1.072312e+00	1.082151e+00	
SCALARS Pressure_Coefficient float 1
LOOKUP_TABLE default
6.366222e-01	5.858753e-01	5.615684e-01	5.518206e-01	5.470212e-01	5.371477e-01	5.102081e-01	4.567635e-01	3.689709e-01	2.455107e-01	8.847473e-02	-1.026826e-01	-2.725539e-01	-3.425089e-01	-3.136651e-01	-2.313756e-01	-1.409429e-01	-7.415415e-02	-4.094517e-02	-3.969570e-02	-6.535166e-02	-1.111266e-01	-1.693729e-01	-2.342280e-01	-3.055908e-01	-3.827838e-01	-4.509669e-01	-4.917777e-01	-5.006516e-01	-4.855514e-01	-4.576426e-01	-4.256459e-01	-3.945607e-01	-3.669173e-01	-3.432353e-01	-3.232528e-01	-3.063326e-01	-2.916697e-01	-2.785668e-01	-2.663083e-01	-2.544413e-01	-2.425983e-01	-2.306934e-01	-2.187408e-01	-2.069651e-01	-1.956298e-01	-1.850913e-01	-1.756705e-01	-1.677076e-01	-1.614794e-01	-1.572574e-01	-1.552228e-01	-1.555154e-01	-1.581988e-01	-1.633092e-01	-1.708238e-01	-1.806905e-01	-1.928105e-01	-2.070394e-01	-2.232167e-01	-2.411268e-01	-2.606818e-01	-2.818960e-01	-3.048188e-01	-3.288543e-01	-3.528845e-01	-3.764228e-01	-4.014562e-01	-4.318709e-01	-4.695887e-01	-5.088171e-01	-5.391974e-01	-5.546262e-01	-5.560620e-01	-5.476207e-01	-5.328950e-01	-5.134060e-01	-4.894605e-01	-4.613893e-01	-4.294501e-01	-3.936114e-01	-3.538534e-01	-3.099648e-01	-2.618348e-01	-2.091828e-01	-1.515452e-01	-8.867533e-02	-2.010048e-02	5.504986e-02	1.373165e-01	2.279959e-01	3.289335e-01	4.417561e-01	5.692456e-01	7.131448e-01	8.707553e-01	1.025207e+00	1.156122e+00	1.159653e+00	1.074911e+00	9.766504e-01	7.189205e-01	3.003289e-01	1.280136e-04	-2.010653e-01	-3.277442e-01	-4.049202e-01	-4.537908e-01	-4.868235e-01	-5.100445e-01	-5.267860e-01	-5.391410e-01	-5.480925e-01	-5.547036e-01	-5.592354e-01	-5.615624e-01	-5.619967e-01	-5.609109e-01	-5.583123e-01	-5.536832e-01	-5.460996e-01	-5.351603e-01	-5.216744e-01	-5.074821e-01	-4.943382e-01	-4.830020e-01	-4.735439e-01	-4.658462e-01	-4.596876e-01	-4.547153e-01	-4.506990e-01	-4.476426e-01	-4.457431e-01	-4.451730e-01	-4.459846e-01	-4.481683e-01	-4.516710e-01	-4.564615e-01	-4.625341e-01	-4.698881e-01	-4.785562e-01	-4.885297e-01	-4.995998e-01	-5.113833e-01	-5.235707e-01	-5.361164e-01	-5.491877e-01	-5.623869e-01	-5.738170e-01	-5.788068e-01	-5.705758e-01	-5.436556e-01	-5.008882e-01	-4.558858e-01	-4.219316e-01	-3.991293e-01	-3.797462e-01	-3.568056e-01	-3.279384e-01	-2.949126e-01	-2.603727e-01	-2.254852e-01	-1.903985e-01	-1.553832e-01	-1.212259e-01	-8.858282e-02	-5.806925e-02	-3.001108e-02	-4.663282e-03	1.811679e-02	3.856878e-02	5.723365e-02	7.483459e-02	9.219999e-02	1.102922e-01	1.301526e-01	1.530131e-01	1.804327e-01	2.141302e-01	2.557590e-01	3.057598e-01	3.624510e-01	4.210901e-01	4.748592e-01	5.157810e-01	5.360783e-01	5.291589e-01	4.910695e-01	4.221512e-01	3.307087e-01	2.371196e-01	1.669531e-01	1.432821e-01	1.740644e-01	2.454772e-01	3.332456e-01	4.217681e-01	5.094141e-01	6.026225e-01	6.048874e-01	
SCALARS Mach float 1
LOOKUP_TABLE default
4.935868e-01	5.169657e-01	5.303815e-01	5.362999e-01	5.389989e-01	5.442425e-01	5.568821e-01	5.816398e-01	6.218029e-01	6.780035e-01	7.495230e-01	8.368863e-01	9.174130e-01	9.550851e-01	9.442537e-01	9.053474e-01	8.631841e-01	8.325753e-01	8.169380e-01	8.158283e-01	8.271097e-01	8.478280e-01	8.745402e-01	9.046505e-01	9.381468e-01	9.748021e-01	1.007540e+00	1.027351e+00	1.031393e+00	1.023541e+00	1.009622e+00	9.940026e-01	9.791749e-01	9.660828e-01	9.549668e-01	9.456026e-01	9.377046e-01	9.309054e-01	9.248034e-01	9.191294e-01	9.136169e-01	9.081458e-01	9.026338e-01	8.971274e-01	8.916967e-01	8.864944e-01	8.816532e-01	8.773467e-01	8.737032e-01	8.708670e-01	8.689367e-01	8.680200e-01	8.681588e-01	8.693963e-01	8.717409e-01	8.751959e-01	8.797306e-01	8.853110e-01	8.918706e-01	8.993332e-01	9.076286e-01	9.166973e-01	9.265927e-01	9.373015e-01	9.485818e-01	9.598357e-01	9.709163e-01	9.827899e-01	9.975111e-01	1.015959e+00	1.035273e+00	1.050204e+00	1.057757e+00	1.058255e+00	1.053921e+00	1.046459e+00	1.036800e+00	1.025078e+00	1.011368e+00	9.958536e-01	9.786366e-01	9.596687e-01	9.389329e-01	9.163582e-01	8.918218e-01	8.650868e-01	8.359963e-01	8.043681e-01	7.697169e-01	7.315488e-01	6.891463e-01	6.413014e-01	5.863330e-01	5.219763e-01	4.443665e-01	3.490699e-01	2.333303e-01	9.400055e-02	5.491170e-02	1.737743e-01	2.937679e-01	4.640905e-01	6.396011e-01	7.689538e-01	8.619121e-01	9.262266e-01	9.681351e-01	9.956767e-01	1.014326e+00	1.027389e+00	1.036829e+00	1.043711e+00	1.048759e+00	1.052533e+00	1.055179e+00	1.056693e+00	1.057180e+00	1.056850e+00	1.055796e+00	1.053726e+00	1.050186e+00	1.044964e+00	1.038444e+00	1.031520e+00	1.025122e+00	1.019650e+00	1.015136e+00	1.011493e+00	1.008600e+00	1.006279e+00	1.004420e+00	1.003015e+00	1.002167e+00	1.001948e+00	1.002398e+00	1.003501e+00	1.005242e+00	1.007600e+00	1.010568e+00	1.014164e+00	1.018405e+00	1.023286e+00	1.028714e+00	1.034516e+00	1.040523e+00	1.046736e+00	1.053235e+00	1.059921e+00	1.065841e+00	1.068696e+00	1.064984e+00	1.051908e+00	1.030779e+00	1.008567e+00	9.919786e-01	9.810988e-01	9.720908e-01	9.614375e-01	9.479897e-01	9.326111e-01	9.165756e-01	9.004517e-01	8.843018e-01	8.682581e-01	8.526540e-01	8.377935e-01	8.239320e-01	8.112384e-01	7.997443e-01	7.894621e-01	7.802338e-01	7.717978e-01	7.638505e-01	7.560038e-01	7.478128e-01	7.387995e-01	7.283624e-01	7.157817e-01	7.001669e-01	6.807564e-01	6.572342e-01	6.303616e-01	6.022927e-01	5.765108e-01	5.571618e-01	5.483324e-01	5.532244e-01	5.732084e-01	6.069345e-01	6.498175e-01	6.925556e-01	7.230490e-01	7.312566e-01	7.154107e-01	6.820488e-01	6.412757e-01	5.989409e-01	5.555610e-01	5.095931e-01	4.602882e-01	