TITLE = "SU2 Simulation"
VARIABLES = "Iteration","Sens_Geo","Sens_Mach","Sens_AoA","Sens_Press","Sens_Temp","Sens_AoS","Res_AdjFlow[0]","Res_AdjFlow[1]","Res_AdjFlow[2]","Res_AdjFlow[3]","Res_AdjFlow[4]","Linear_Solver_Iterations","CFL_Number","Time(min)"
ZONE T= "Convergence history"
        2113, -2.43310971e-01, 1.30202774e-03, 2.26924565e-04, 1.43128056e-04, 2.00539858e-03, 0.0, -6.01537622e+00, -5.76466519e+00, -5.90295895e+00, -6.04979047e+00, 0.0, 2.0000000000, 8.0000000000, 0.0007733822
        2114, -2.43523962e-01, 1.27200513e-03, 2.27445788e-04, 1.11474059e-04, 1.95647074e-03, 0.0, -5.75499399e+00, -5.73712042e+00, -5.70677682e+00, -6.11584390e+00, 0.0, 2.0000000000, 8.0000000000, 0.0011160135
        2115, -2.46242096e-01, 1.36877567e-03, 2.30185079e-04, 1.46930839e-04, 2.02539759e-03, 0.0, -5.63262990e+00, -5.60174896e+00, -5.73495850e+00, -6.15827452e+00, 0.0, 2.0000000000, 8.0000000000, 0.0014687657
        2116, -2.45736969e-01, 1.74974502e-03, 2.36146846e-04, 4.62431951e-04, 2.38249542e-03, 0.0, -5.63827094e+00, -5.56286321e+00, -5.81665703e+00, -6.12282729e+00, 0.0, 2.0000000000, 8.0000000000, 0.0019165317
        2117, -2.44067844e-01, 2.03441170e-03, 2.45223695e-04, 6.63399845e-04, 2.57477184e-03, 0.0, -5.59693876e+00, -5.51149187e+00, -5.76720747e+00, -6.06601895e+00, 0.0, 2.0000000000, 8.0000000000, 0.0022780299
        2118, -2.43560015e-01, 2.24304584e-03, 2.56487990e-04, 7.15802949e-04, 2.66458671e-03, 0.0, -5.59030091e+00, -5.49184898e+00, -5.77825560e+00, -6.06127790e+00, 0.0, 2.0000000000, 8.0000000000, 0.0026366830
        2119, -2.43558994e-01, 2.49293218e-03, 2.69637365e-04, 7.28339131e-04, 2.82635682e-03, 0.0, -5.57375531e+00, -5.46179102e+00, -5.77506942e+00, -6.03234051e+00, 0.0, 2.0000000000, 8.0000000000, 0.0029780149
        2120, -2.43520943e-01, 2.75027244e-03, 2.83506158e-04, 6.81568471e-04, 3.02992516e-03, 0.0, -5.56915169e+00, -5.44776012e+00, -5.78278400e+00, -6.01957323e+00, 0.0, 2.0000000000, 8.0000000000, 0.0033134659
        2121, -2.43439992e-01, 2.97317337e-03, 2.96457684e-04, 5.55357243e-04, 3.21099168e-03, 0.0, -5.58678630e+00, -5.45304872e+00, -5.80911668e+00, -6.03285981e+00, 0.0, 2.0000000000, 8.0000000000, 0.0036493977
        2122, -2.43314012e-01, 3.24096615e-03, 3.07580555e-04, 4.43055804e-04, 3.44302202e-03, 0.0, -5.61433904e+00, -5.46509339e+00, -5.83985368e+00, -6.05575542e+00, 0.0, 2.0000000000, 8.0000000000, 0.0040045500
        2123, -2.43453036e-01, 3.51048646e-03, 3.16310147e-04, 3.43381613e-04, 3.66669887e-03, 0.0, -5.65248829e+00, -5.49083215e+00, -5.90759347e+00, -6.11870015e+00, 0.0, 2.0000000000, 8.0000000000, 0.0043387492
        2124, -2.43628978e-01, 3.72244061e-03, 3.23005370e-04, 1.81064459e-04, 3.80874656e-03, 0.0, -5.64175570e+00, -5.46219270e+00, -5.85828864e+00, -6.06609025e+00, 0.0, 2.0000000000, 8.0000000000, 0.0046782136
        2125, -2.43861117e-01, 3.94259076e-03, 3.27445743e-04, 4.15303489e-05, 3.95928422e-03, 0.0, -5.64092076e+00, -5.45251697e+00, -5.82535675e+00, -6.05391131e+00, 0.0, 2.0000000000, 8.0000000000, 0.0050182501
        2126, -2.44232347e-01, 4.19513360e-03, 3.30183665e-04, -3.88539660e-05, 4.15628583e-03, 0.0, -5.64108030e+00, -5.44655283e+00, -5.80457099e+00, -6.05523334e+00, 0.0, 2.0000000000, 8.0000000000, 0.0054040472
        2127, -2.44773035e-01, 4.42715307e-03, 3.31452794e-04, -1.10105624e-04, 4.34193801e-03, 0.0, -5.64572745e+00, -5.44528990e+00, -5.81172815e+00, -6.06723115e+00, 0.0, 2.0000000000, 8.0000000000, 0.0057591995
        2128, -2.45410328e-01, 4.63457182e-03, 3.31512252e-04, -1.74609734e-04, 4.51320769e-03, 0.0, -5.65097429e+00, -5.44604452e+00, -5.82943063e+00, -6.08079861e+00, 0.0, 2.0000000000, 8.0000000000, 0.0060942809
        2129, -2.46037082e-01, 4.81401236e-03, 3.30618711e-04, -2.29011529e-04, 4.66631908e-03, 0.0, -5.66001897e+00, -5.45142790e+00, -5.85198958e+00, -6.10022421e+00, 0.0, 2.0000000000, 8.0000000000, 0.0064443827
        2130, -2.46592559e-01, 4.96469912e-03, 3.28894717e-04, -2.65983563e-04, 4.80028014e-03, 0.0, -5.67117985e+00, -5.46095487e+00, -5.87559411e+00, -6.12281515e+00, 0.0, 2.0000000000, 8.0000000000, 0.0068245649
        2131, -2.47044470e-01, 5.08307344e-03, 3.26372133e-04, -2.82862093e-04, 4.91073320e-03, 0.0, -5.68490947e+00, -5.47491680e+00, -5.90102601e+00, -6.14811656e+00, 0.0, 2.0000000000, 8.0000000000, 0.0071668148
        2132, -2.47373807e-01, 5.16587443e-03, 3.23095414e-04, -2.79726603e-04, 4.99317591e-03, 0.0, -5.70142692e+00, -5.49344537e+00, -5.92922066e+00, -6.17562534e+00, 0.0, 2.0000000000, 8.0000000000, 0.0075123827
        2133, -2.47574902e-01, 5.21237144e-03, 3.19185902e-04, -2.57690377e-04, 5.04521910e-03, 0.0, -5.72087287e+00, -5.51630969e+00, -5.96019007e+00, -6.20461810e+00, 0.0, 2.0000000000, 8.0000000000, 0.0078596314
        2134, -2.47656030e-01, 5.22427038e-03, 3.14824207e-04, -2.19039838e-04, 5.06651840e-03, 0.0, -5.74326099e+00, -5.54313080e+00, -5.99333000e+00, -6.23457744e+00, 0.0, 2.0000000000, 8.0000000000, 0.0081985831
        2135, -2.47634906e-01, 5.20508184e-03, 3.10200179e-04, -1.67632102e-04, 5.05842293e-03, 0.0, -5.76847546e+00, -5.57347225e+00, -6.02805297e+00, -6.26512173e+00, 0.0, 2.0000000000, 8.0000000000, 0.0085358977
        2136, -2.47531699e-01, 5.15965162e-03, 3.05475418e-04, -1.08616754e-04, 5.02388915e-03, 0.0, -5.79632069e+00, -5.60693226e+00, -6.06395987e+00, -6.29608496e+00, 0.0, 2.0000000000, 8.0000000000, 0.0088934978
        2137, -2.47362971e-01, 5.09391321e-03, 3.00770324e-04, -4.76008582e-05, 4.96751762e-03, 0.0, -5.82655223e+00, -5.64318589e+00, -6.10080693e+00, -6.32759145e+00, 0.0, 2.0000000000, 8.0000000000, 0.0093138496
        2138, -2.47135385e-01, 5.01425908e-03, 2.96168027e-04, 9.89533127e-06, 4.89492987e-03, 0.0, -5.85891256e+00, -5.68202928e+00, -6.13858603e+00, -6.36017481e+00, 0.0, 2.0000000000, 8.0000000000, 0.0098337809
        2139, -2.46827303e-01, 4.92356952e-03, 2.91716241e-04, 5.56909628e-05, 4.80794315e-03, 0.0, -5.89288538e+00, -5.72319292e+00, -6.17714547e+00, -6.39430206e+00, 0.0, 2.0000000000, 8.0000000000, 0.0103632967
        2140, -2.46585092e-01, 4.77397908e-03, 2.87365362e-04, 3.43707778e-05, 4.64723976e-03, 0.0, -5.92584845e+00, -5.76469026e+00, -6.21209153e+00, -6.42662713e+00, 0.0, 2.0000000000, 8.0000000000, 0.0107451479
        2141, -2.46605884e-01, 4.72685976e-03, 2.83442700e-04, 8.70592074e-05, 4.60716966e-03, 0.0, -5.92311595e+00, -5.77936869e+00, -6.17263833e+00, -6.39159915e+00, 0.0, 2.0000000000, 8.0000000000, 0.0111376643
        2142, -2.46483595e-01, 4.62639592e-03, 2.79892783e-04, 5.66296509e-05, 4.49950588e-03, 0.0, -5.93943870e+00, -5.81052798e+00, -6.17554702e+00, -6.41388870e+00, 0.0, 2.0000000000, 8.0000000000, 0.0114528974
        2143, -2.46060638e-01, 4.61360380e-03, 2.76656621e-04, 8.02883793e-05, 4.49388963e-03, 0.0, -5.94355102e+00, -5.83059224e+00, -6.19048732e+00, -6.41323194e+00, 0.0, 2.0000000000, 8.0000000000, 0.0118054668
        2144, -2.45623046e-01, 4.64262776e-03, 2.73703289e-04, 1.23554260e-04, 4.53447355e-03, 0.0, -5.98282569e+00, -5.87746047e+00, -6.25935065e+00, -6.49326979e+00, 0.0, 2.0000000000, 8.0000000000, 0.0122048974
        2145, -2.45366548e-01, 4.67009669e-03, 2.70879959e-04, 1.39442042e-04, 4.56935454e-03, 0.0, -6.00637767e+00, -5.91274074e+00, -6.30040003e+00, -6.53817343e+00, 0.0, 2.0000000000, 8.0000000000, 0.0125308474
        2146, -2.45198436e-01, 4.70348394e-03, 2.68243809e-04, 1.34374204e-04, 4.60814302e-03, 0.0, -6.01169860e+00, -5.93165372e+00, -6.30320361e+00, -6.54655331e+00, 0.0, 2.0000000000, 8.0000000000, 0.0128698468
        2147, -2.45027598e-01, 4.74600396e-03, 2.65869424e-04, 1.17095087e-04, 4.65524396e-03, 0.0, -6.01160177e+00, -5.94214664e+00, -6.30198035e+00, -6.54645213e+00, 0.0, 2.0000000000, 8.0000000000, 0.0132464488
        2148, -2.44854225e-01, 4.80006949e-03, 2.63763541e-04, 9.89064831e-05, 4.71382190e-03, 0.0, -6.01483630e+00, -5.95127749e+00, -6.30603045e+00, -6.54880321e+00, 0.0, 2.0000000000, 8.0000000000, 0.0135823647
        2149, -2.44721722e-01, 4.86151769e-03, 2.61856392e-04, 8.41525512e-05, 4.77906852e-03, 0.0, -6.02044785e+00, -5.96005532e+00, -6.31115873e+00, -6.55347448e+00, 0.0, 2.0000000000, 8.0000000000, 0.0139284134
        2150, -2.44653665e-01, 4.92431990e-03, 2.60073218e-04, 7.39765537e-05, 4.84415325e-03, 0.0, -6.02819718e+00, -5.96909152e+00, -6.31702947e+00, -6.56025365e+00, 0.0, 2.0000000000, 8.0000000000, 0.0142479499
        2151, -2.44643268e-01, 4.98332314e-03, 2.58369640e-04, 6.79579335e-05, 4.90360028e-03, 0.0, -6.03833228e+00, -5.97906110e+00, -6.32621939e+00, -6.57023353e+00, 0.0, 2.0000000000, 8.0000000000, 0.0145721157
        2152, -2.44675807e-01, 5.03473466e-03, 2.56728719e-04, 6.55796246e-05, 4.95370007e-03, 0.0, -6.05223701e+00, -5.99149895e+00, -6.34108843e+00, -6.58480283e+00, 0.0, 2.0000000000, 8.0000000000, 0.0148994486
        2153, -2.44742917e-01, 5.07559521e-03, 2.55131130e-04, 6.56043629e-05, 4.99167110e-03, 0.0, -6.07005538e+00, -6.00705491e+00, -6.36161919e+00, -6.60452816e+00, 0.0, 2.0000000000, 8.0000000000, 0.0152253469
        2154, -2.44842375e-01, 5.10387312e-03, 2.53548458e-04, 6.69073169e-05, 5.01571160e-03, 0.0, -6.09059348e+00, -6.02521875e+00, -6.38540264e+00, -6.62785971e+00, 0.0, 2.0000000000, 8.0000000000, 0.0155544480
        2155, -2.44971459e-01, 5.11842757e-03, 2.51945750e-04, 6.80419161e-05, 5.02499578e-03, 0.0, -6.11140233e+00, -6.04422302e+00, -6.40889324e+00, -6.65187170e+00, 0.0, 2.0000000000, 8.0000000000, 0.0158794165
        2156, -2.45122904e-01, 5.11813167e-03, 2.50291690e-04, 6.69324315e-05, 5.01863465e-03, 0.0, -6.12992977e+00, -6.06189786e+00, -6.42869956e+00, -6.67306364e+00, 0.0, 2.0000000000, 8.0000000000, 0.0162169814
        2157, -2.45300475e-01, 5.07572091e-03, 2.48517361e-04, 3.56568790e-05, 4.96425738e-03, 0.0, -6.14358434e+00, -6.07577238e+00, -6.44105312e+00, -6.68741470e+00, 0.0, 2.0000000000, 8.0000000000, 0.0165531317
        2158, -2.45503921e-01, 5.07157850e-03, 2.46747418e-04, 4.57608853e-05, 4.95829816e-03, 0.0, -6.14194341e+00, -6.07714547e+00, -6.42786612e+00, -6.67735860e+00, 0.0, 2.0000000000, 8.0000000000, 0.0168751001
        2159, -2.45678070e-01, 5.04243760e-03, 2.44825115e-04, 3.92110239e-05, 4.92487118e-03, 0.0, -6.15212606e+00, -6.08632959e+00, -6.45429634e+00, -6.70118002e+00, 0.0, 2.0000000000, 8.0000000000, 0.0171910803
        2160, -2.45846693e-01, 5.00878380e-03, 2.42754930e-04, 3.11979463e-05, 4.88837459e-03, 0.0, -6.15046765e+00, -6.08563734e+00, -6.44533205e+00, -6.68878410e+00, 0.0, 2.0000000000, 8.0000000000, 0.0175191323
        2161, -2.45983323e-01, 4.96015442e-03, 2.40553572e-04, 9.39659281e-06, 4.83582665e-03, 0.0, -6.15228429e+00, -6.08628143e+00, -6.44256438e+00, -6.68536789e+00, 0.0, 2.0000000000, 8.0000000000, 0.0178251664
        2162, -2.46084303e-01, 4.94646114e-03, 2.38320322e-04, 1.85837788e-05, 4.82685564e-03, 0.0, -6.13538910e+00, -6.07173309e+00, -6.41127957e+00, -6.64909223e+00, 0.0, 2.0000000000, 8.0000000000, 0.0181419134
        2163, -2.46164604e-01, 4.91567090e-03, 2.35983871e-04, 1.10170669e-05, 4.79838020e-03, 0.0, -6.15078342e+00, -6.08219639e+00, -6.44177533e+00, -6.67781005e+00, 0.0, 2.0000000000, 8.0000000000, 0.0184639653
        2164, -2.46210525e-01, 4.88705215e-03, 2.33554543e-04, 4.48624178e-06, 4.77320982e-03, 0.0, -6.15483335e+00, -6.08493070e+00, -6.44925914e+00, -6.67528841e+00, 0.0, 2.0000000000, 8.0000000000, 0.0187844475
        2165, -2.46262229e-01, 4.90925500e-03, 2.31197005e-04, 4.24060218e-05, 4.80960643e-03, 0.0, -6.16026038e+00, -6.08933207e+00, -6.44387643e+00, -6.67401450e+00, 0.0, 2.0000000000, 8.0000000000, 0.0191129327
        2166, -2.46340829e-01, 4.85825170e-03, 2.28618130e-04, 1.14391214e-05, 4.75817389e-03, 0.0, -6.19420352e+00, -6.11454850e+00, -6.51407659e+00, -6.73819126e+00, 0.0, 2.0000000000, 8.0000000000, 0.0194284836
        2167, -2.46373915e-01, 4.84109037e-03, 2.25984565e-04, 1.05488086e-05, 4.74761151e-03, 0.0, -6.19161643e+00, -6.11425409e+00, -6.50020058e+00, -6.71410839e+00, 0.0, 2.0000000000, 8.0000000000, 0.0197463830
        2168, -2.46436765e-01, 4.85867325e-03, 2.23503770e-04, 4.16356067e-05, 4.77892549e-03, 0.0, -6.19939967e+00, -6.12315468e+00, -6.48626485e+00, -6.71529529e+00, 0.0, 2.0000000000, 8.0000000000, 0.0200902502
        2169, -2.46488705e-01, 4.84459116e-03, 2.20831755e-04, 4.69561928e-05, 4.77225919e-03, 0.0, -6.23164868e+00, -6.14893614e+00, -6.55076182e+00, -6.77174632e+00, 0.0, 2.0000000000, 8.0000000000, 0.0204370300
        2170, -2.46558058e-01, 4.82782864e-03, 2.18226125e-04, 4.50808214e-05, 4.76238400e-03, 0.0, -6.24679506e+00, -6.16467509e+00, -6.56291905e+00, -6.78505637e+00, 0.0, 2.0000000000, 8.0000000000, 0.0207572500
        2171, -2.46602046e-01, 4.80977375e-03, 2.15499523e-04, 4.69483329e-05, 4.75110339e-03, 0.0, -6.26483856e+00, -6.18088186e+00, -6.57617335e+00, -6.80415209e+00, 0.0, 2.0000000000, 8.0000000000, 0.0211484830
        2172, -2.46695350e-01, 4.77284075e-03, 2.12813127e-04, 3.10815622e-05, 4.71728901e-03, 0.0, -6.27633973e+00, -6.19263840e+00, -6.59318038e+00, -6.81504098e+00, 0.0, 2.0000000000, 8.0000000000, 0.0214719137
        2173, -2.46719433e-01, 4.76288978e-03, 2.10040072e-04, 4.54991137e-05, 4.71625186e-03, 0.0, -6.28314748e+00, -6.19768982e+00, -6.59464299e+00, -6.82121112e+00, 0.0, 2.0000000000, 8.0000000000, 0.0218138973
        2174, -2.46835250e-01, 4.73990672e-03, 2.07354983e-04, 5.04012424e-05, 4.69977008e-03, 0.0, -6.29578928e+00, -6.20985136e+00, -6.60427262e+00, -6.83170439e+00, 0.0, 2.0000000000, 8.0000000000, 0.0221423825
        2175, -2.46920544e-01, 4.71568081e-03, 2.04690839e-04, 5.41603485e-05, 4.68206832e-03, 0.0, -6.29944848e+00, -6.21174117e+00, -6.60402739e+00, -6.83149859e+00, 0.0, 2.0000000000, 8.0000000000, 0.0224684636
        2176, -2.46966873e-01, 4.67781816e-03, 2.02126636e-04, 4.44679488e-05, 4.64810588e-03, 0.0, -6.31018491e+00, -6.22071508e+00, -6.61318432e+00, -6.84615634e+00, 0.0, 2.0000000000, 8.0000000000, 0.0228006482
        2177, -2.47034009e-01, 4.65187127e-03, 1.99661242e-04, 4.74880096e-05, 4.62874002e-03, 0.0, -6.31192758e+00, -6.22059203e+00, -6.61725603e+00, -6.84607134e+00, 0.0, 2.0000000000, 8.0000000000, 0.0231435974
        2178, -2.47104971e-01, 4.62398905e-03, 1.97244286e-04, 5.27513894e-05, 4.60753517e-03, 0.0, -6.32033933e+00, -6.22375630e+00, -6.62278835e+00, -6.85283018e+00, 0.0, 2.0000000000, 8.0000000000, 0.0234664996
        2179, -2.47185423e-01, 4.59386427e-03, 1.94833842e-04, 5.65259169e-05, 4.58422695e-03, 0.0, -6.32777488e+00, -6.22610372e+00, -6.62667194e+00, -6.86255923e+00, 0.0, 2.0000000000, 8.0000000000, 0.0238182823
        2180, -2.47266266e-01, 4.56215808e-03, 1.92460950e-04, 6.01027318e-05, 4.55952433e-03, 0.0, -6.33550485e+00, -6.22819038e+00, -6.63240975e+00, -6.86665979e+00, 0.0, 2.0000000000, 8.0000000000, 0.0241334478
        2181, -2.47337257e-01, 4.53068630e-03, 1.90142791e-04, 6.34738786e-05, 4.53534870e-03, 0.0, -6.34247867e+00, -6.22947591e+00, -6.63721478e+00, -6.87167166e+00, 0.0, 2.0000000000, 8.0000000000, 0.0244531830
        2182, -2.47402883e-01, 4.49868966e-03, 1.87908779e-04, 6.69364076e-05, 4.51048889e-03, 0.0, -6.35175148e+00, -6.23300581e+00, -6.64475123e+00, -6.87668973e+00, 0.0, 2.0000000000, 8.0000000000, 0.0248989304
        2183, -2.47466995e-01, 4.46718287e-03, 1.85750330e-04, 7.00928515e-05, 4.48596642e-03, 0.0, -6.36080369e+00, -6.23673684e+00, -6.65175048e+00, -6.88345648e+00, 0.0, 2.0000000000, 8.0000000000, 0.0253501336
        2184, -2.47531048e-01, 4.43573780e-03, 1.83674383e-04, 7.33138752e-05, 4.46119249e-03, 0.0, -6.37105608e+00, -6.24180709e+00, -6.65874300e+00, -6.88902245e+00, 0.0, 2.0000000000, 8.0000000000, 0.0257919987
        2185, -2.47595468e-01, 4.40490574e-03, 1.81670280e-04, 7.59709502e-05, 4.43680831e-03, 0.0, -6.38121194e+00, -6.24720655e+00, -6.66637581e+00, -6.89711119e+00, 0.0, 2.0000000000, 8.0000000000, 0.0264053822
        2186, -2.47659009e-01, 4.37459623e-03, 1.79743684e-04, 7.85138704e-05, 4.41268910e-03, 0.0, -6.39200486e+00, -6.25338127e+00, -6.67438356e+00, -6.90415357e+00, 0.0, 2.0000000000, 8.0000000000, 0.0269074480
        2187, -2.47721469e-01, 4.34523259e-03, 1.77887814e-04, 8.05400984e-05, 4.38929836e-03, 0.0, -6.40278555e+00, -6.26000825e+00, -6.68309023e+00, -6.91326181e+00, 0.0, 2.0000000000, 8.0000000000, 0.0273609320
        2188, -2.47783022e-01, 4.31676218e-03, 1.76106003e-04, 8.23899736e-05, 4.36652654e-03, 0.0, -6.41414496e+00, -6.26745734e+00, -6.69204201e+00, -6.92196597e+00, 0.0, 2.0000000000, 8.0000000000, 0.0277925491
        2189, -2.47844254e-01, 4.28943635e-03, 1.74392550e-04, 8.37765187e-05, 4.34464134e-03, 0.0, -6.42562559e+00, -6.27551882e+00, -6.70132557e+00, -6.93219315e+00, 0.0, 2.0000000000, 8.0000000000, 0.0282586972
        2190, -2.47905605e-01, 4.26320555e-03, 1.72748771e-04, 8.49431275e-05, 4.32357381e-03, 0.0, -6.43765221e+00, -6.28444025e+00, -6.71074615e+00, -6.94242086e+00, 0.0, 2.0000000000, 8.0000000000, 0.0287224968
        2191, -2.47967409e-01, 4.23818859e-03, 1.71170084e-04, 8.57176927e-05, 4.30347282e-03, 0.0, -6.44990406e+00, -6.29405466e+00, -6.72038670e+00, -6.95386130e+00, 0.0, 2.0000000000, 8.0000000000, 0.0291684151
        2192, -2.48029796e-01, 4.21430534e-03, 1.69656289e-04, 8.62958761e-05, 4.28425944e-03, 0.0, -6.46266049e+00, -6.30449704e+00, -6.73012983e+00, -6.96549072e+00, 0.0, 2.0000000000, 8.0000000000, 0.0296220819
        2193, -2.48092773e-01, 4.19156276e-03, 1.68203070e-04, 8.65970734e-05, 4.26596441e-03, 0.0, -6.47567864e+00, -6.31561718e+00, -6.73996094e+00, -6.97806326e+00, 0.0, 2.0000000000, 8.0000000000, 0.0301225503
        2194, -2.48156256e-01, 4.16984431e-03, 1.66808745e-04, 8.67822036e-05, 4.24847491e-03, 0.0, -6.48915350e+00, -6.32747707e+00, -6.74976833e+00, -6.99085743e+00, 0.0, 2.0000000000, 8.0000000000, 0.0305227836
        2195, -2.48220087e-01, 4.14909198e-03, 1.65469013e-04, 8.68258324e-05, 4.23175052e-03, 0.0, -6.50289527e+00, -6.33993924e+00, -6.75948492e+00, -7.00434664e+00, 0.0, 2.0000000000, 8.0000000000, 0.0308773319
        2196, -2.48284088e-01, 4.12918272e-03, 1.64181449e-04, 8.68553658e-05, 4.21567305e-03, 0.0, -6.51703515e+00, -6.35302448e+00, -6.76901133e+00, -7.01800840e+00, 0.0, 2.0000000000, 8.0000000000, 0.0312126478
        2197, -2.48348037e-01, 4.11004510e-03, 1.62942192e-04, 8.68670775e-05, 4.20018345e-03, 0.0, -6.53141314e+00, -6.36661105e+00, -6.77827400e+00, -7.03213138e+00, 0.0, 2.0000000000, 8.0000000000, 0.0315474987
        2198, -2.48411712e-01, 4.09158149e-03, 1.61748851e-04, 8.69499220e-05, 4.18518699e-03, 0.0, -6.54610204e+00, -6.38069434e+00, -6.78720087e+00, -7.04632490e+00, 0.0, 2.0000000000, 8.0000000000, 0.0318772316
        2199, -2.48474859e-01, 4.07374269e-03, 1.60598307e-04, 8.70968413e-05, 4.17064193e-03, 0.0, -6.56096406e+00, -6.39516948e+00, -6.79574545e+00, -7.06076240e+00, 0.0, 2.0000000000, 8.0000000000, 0.0322114309
        2200, -2.48537229e-01, 4.05647415e-03, 1.59488603e-04, 8.73569680e-05, 4.15649524e-03, 0.0, -6.57603169e+00, -6.41001856e+00, -6.80387863e+00, -7.07515549e+00, 0.0, 2.0000000000, 8.0000000000, 0.0325563669
        2201, -2.48598554e-01, 4.03976310e-03, 1.58417434e-04, 8.77094609e-05, 4.14273969e-03, 0.0, -6.59119093e+00, -6.42515518e+00, -6.81159754e+00, -7.08961653e+00, 0.0, 2.0000000000, 8.0000000000, 0.0329232971
        2202, -2.48658578e-01, 4.02359857e-03, 1.57383405e-04, 8.81707352e-05, 4.12936650e-03, 0.0, -6.60645427e+00, -6.44055880e+00, -6.81891972e+00, -7.10394098e+00, 0.0, 2.0000000000, 8.0000000000, 0.0332804004
        2203, -2.48717040e-01, 4.00800121e-03, 1.56384968e-04, 8.87086189e-05, 4.11640180e-03, 0.0, -6.62173335e+00, -6.45616239e+00, -6.82588323e+00, -7.11821342e+00, 0.0, 2.0000000000, 8.0000000000, 0.0336018483
        2204, -2.48773710e-01, 3.99299245e-03, 1.55421278e-04, 8.93195620e-05, 4.10387032e-03, 0.0, -6.63703517e+00, -6.47194939e+00, -6.83253922e+00, -7.13229453e+00, 0.0, 2.0000000000, 8.0000000000, 0.0339626153
        2205, -2.48828375e-01, 3.97861350e-03, 1.54491422e-04, 8.99681852e-05, 4.09181885e-03, 0.0, -6.65229504e+00, -6.48787007e+00, -6.83894769e+00, -7.14625496e+00, 0.0, 2.0000000000, 8.0000000000, 0.0342972994
        2206, -2.48880874e-01, 3.96490134e-03, 1.53595008e-04, 9.06431500e-05, 4.08028813e-03, 0.0, -6.66752057e+00, -6.50391307e+00, -6.84517081e+00, -7.16000012e+00, 0.0, 2.0000000000, 8.0000000000, 0.0346265157
        2207, -2.48931084e-01, 3.95190121e-03, 1.52731599e-04, 9.13130347e-05, 4.06932854e-03, 0.0, -6.68266538e+00, -6.52004111e+00, -6.85126967e+00, -7.17358903e+00, 0.0, 2.0000000000, 8.0000000000, 0.0349541148
        2208, -2.48978947e-01, 3.93964836e-03, 1.51901117e-04, 9.19668172e-05, 4.05897885e-03, 0.0, -6.69773888e+00, -6.53624584e+00, -6.85730038e+00, -7.18695489e+00, 0.0, 2.0000000000, 8.0000000000, 0.0352914969
        2209, -2.49024456e-01, 3.92817698e-03, 1.51103420e-04, 9.25809992e-05, 4.04927753e-03, 0.0, -6.71270864e+00, -6.55249737e+00, -6.86331373e+00, -7.20014608e+00, 0.0, 2.0000000000, 8.0000000000, 0.0356367668
        2210, -2.49067663e-01, 3.91750705e-03, 1.50338579e-04, 9.31490228e-05, 4.04024745e-03, 0.0, -6.72758768e+00, -6.56878854e+00, -6.86935385e+00, -7.21311590e+00, 0.0, 2.0000000000, 8.0000000000, 0.0359789133
        2211, -2.49108667e-01, 3.90765151e-03, 1.49606548e-04, 9.36566411e-05, 4.03190500e-03, 0.0, -6.74235799e+00, -6.58509520e+00, -6.87546023e+00, -7.22590832e+00, 0.0, 2.0000000000, 8.0000000000, 0.0363204002
        2212, -2.49147613e-01, 3.89860757e-03, 1.48907363e-04, 9.41032866e-05, 4.02424991e-03, 0.0, -6.75704143e+00, -6.60141324e+00, -6.88166742e+00, -7.23849863e+00, 0.0, 2.0000000000, 8.0000000000, 0.0366488814
        2213, -2.49184670e-01, 3.89036318e-03, 1.48240887e-04, 9.44836070e-05, 4.01727325e-03, 0.0, -6.77163898e+00, -6.61772734e+00, -6.88800803e+00, -7.25093622e+00, 0.0, 2.0000000000, 8.0000000000, 0.0370026151
        2214, -2.49220025e-01, 3.88289203e-03, 1.47606958e-04, 9.48028182e-05, 4.01095147e-03, 0.0, -6.78618703e+00, -6.63404164e+00, -6.89451190e+00, -7.26322251e+00, 0.0, 2.0000000000, 8.0000000000, 0.0373387655
        2215, -2.49253870e-01, 3.87615968e-03, 1.47005204e-04, 9.50627951e-05, 4.00525369e-03, 0.0, -6.80070802e+00, -6.65035452e+00, -6.90120851e+00, -7.27541774e+00, 0.0, 2.0000000000, 8.0000000000, 0.0376698136
        2216, -2.49286391e-01, 3.87012135e-03, 1.46435159e-04, 9.52728817e-05, 4.00013874e-03, 0.0, -6.81525254e+00, -6.66668230e+00, -6.90812491e+00, -7.28754653e+00, 0.0, 2.0000000000, 8.0000000000, 0.0380099495
        2217, -2.49317755e-01, 3.86472764e-03, 1.45896149e-04, 9.54393693e-05, 3.99556169e-03, 0.0, -6.82985858e+00, -6.68303803e+00, -6.91528728e+00, -7.29967501e+00, 0.0, 2.0000000000, 8.0000000000, 0.0383520802
        2218, -2.49348111e-01, 3.85992399e-03, 1.45387386e-04, 9.55730349e-05, 3.99147274e-03, 0.0, -6.84458125e+00, -6.69944818e+00, -6.92271778e+00, -7.31183819e+00, 0.0, 2.0000000000, 8.0000000000, 0.0387060642
        2219, -2.49377576e-01, 3.85565567e-03, 1.44907904e-04, 9.56812717e-05, 3.98782262e-03, 0.0, -6.85945983e+00, -6.71593432e+00, -6.93043593e+00, -7.32409483e+00, 0.0, 2.0000000000, 8.0000000000, 0.0390306314
        2220, -2.49406243e-01, 3.85186792e-03, 1.44456647e-04, 9.57735013e-05, 3.98456228e-03, 0.0, -6.87453880e+00, -6.73252435e+00, -6.93845546e+00, -7.33647332e+00, 0.0, 2.0000000000, 8.0000000000, 0.0393591324
        2221, -2.49434172e-01, 3.84850988e-03, 1.44032431e-04, 9.58554661e-05, 3.98164694e-03, 0.0, -6.88984303e+00, -6.74923735e+00, -6.94678611e+00, -7.34901189e+00, 0.0, 2.0000000000, 8.0000000000, 0.0396971146
        2222, -2.49461398e-01, 3.84553458e-03, 1.43634022e-04, 9.59333907e-05, 3.97903572e-03, 0.0, -6.90539397e+00, -6.76609157e+00, -6.95543139e+00, -7.36171991e+00, 0.0, 2.0000000000, 8.0000000000, 0.0400400480
        2223, -2.49487926e-01, 3.84290161e-03, 1.43260115e-04, 9.60099716e-05, 3.97669434e-03, 0.0, -6.92119264e+00, -6.78309307e+00, -6.96439111e+00, -7.37460939e+00, 0.0, 2.0000000000, 8.0000000000, 0.0404293140
        2224, -2.49513746e-01, 3.84057655e-03, 1.42909397e-04, 9.60878025e-05, 3.97459423e-03, 0.0, -6.93723363e+00, -6.80024249e+00, -6.97366020e+00, -7.38766820e+00, 0.0, 2.0000000000, 8.0000000000, 0.0407688498
        2225, -2.49538828e-01, 3.83853231e-03, 1.42580535e-04, 9.61665638e-05, 3.97271393e-03, 0.0, -6.95349422e+00, -6.81752744e+00, -6.98323169e+00, -7.40088603e+00, 0.0, 2.0000000000, 8.0000000000, 0.0411349495
        2226, -2.49563130e-01, 3.83674790e-03, 1.42272228e-04, 9.62459479e-05, 3.97103763e-03, 0.0, -6.96994720e+00, -6.83492919e+00, -6.99309615e+00, -7.41423579e+00, 0.0, 2.0000000000, 8.0000000000, 0.0415097634
        2227, -2.49586606e-01, 3.83520870e-03, 1.41983190e-04, 9.63235897e-05, 3.96955555e-03, 0.0, -6.98655388e+00, -6.85241805e+00, -7.00324458e+00, -7.42769540e+00, 0.0, 2.0000000000, 8.0000000000, 0.0418628335
        2228, -2.49609208e-01, 3.83390469e-03, 1.41712196e-04, 9.63975907e-05, 3.96826198e-03, 0.0, -7.00327566e+00, -6.86996033e+00, -7.01366792e+00, -7.44123376e+00, 0.0, 2.0000000000, 8.0000000000, 0.0421975811
        2229, -2.49630892e-01, 3.83283004e-03, 1.41458065e-04, 9.64648346e-05, 3.96715507e-03, 0.0, -7.02006882e+00, -6.88751559e+00, -7.02435933e+00, -7.45482882e+00, 0.0, 2.0000000000, 8.0000000000, 0.0425695658
        2230, -2.49651623e-01, 3.83198111e-03, 1.41219691e-04, 9.65231690e-05, 3.96623473e-03, 0.0, -7.03689468e+00, -6.90504358e+00, -7.03531348e+00, -7.46845566e+00, 0.0, 2.0000000000, 8.0000000000, 0.0430635492
        2231, -2.49671375e-01, 3.83135579e-03, 1.40996033e-04, 9.65698648e-05, 3.96550216e-03, 0.0, -7.05371481e+00, -6.92250245e+00, -7.04652811e+00, -7.48210120e+00, 0.0, 2.0000000000, 8.0000000000, 0.0435504317
        2232, -2.49690135e-01, 3.83095172e-03, 1.40786131e-04, 9.66035134e-05, 3.96495795e-03, 0.0, -7.07049976e+00, -6.93985524e+00, -7.05800297e+00, -7.49575307e+00, 0.0, 2.0000000000, 8.0000000000, 0.0438978831
        2233, -2.49707904e-01, 3.83076575e-03, 1.40589094e-04, 9.66224881e-05, 3.96460182e-03, 0.0, -7.08722391e+00, -6.95706820e+00, -7.06974094e+00, -7.50941158e+00, 0.0, 2.0000000000, 8.0000000000, 0.0442461967
        2234, -2.49724696e-01, 3.83079262e-03, 1.40404113e-04, 9.66266305e-05, 3.96443114e-03, 0.0, -7.10387295e+00, -6.97411658e+00, -7.08174669e+00, -7.52307885e+00, 0.0, 2.0000000000, 8.0000000000, 0.0445860147
        2235, -2.49740537e-01, 3.83102489e-03, 1.40230447e-04, 9.66156510e-05, 3.96444113e-03, 0.0, -7.12043793e+00, -6.99098231e+00, -7.09402747e+00, -7.53676892e+00, 0.0, 2.0000000000, 8.0000000000, 0.0449226658
        2236, -2.49755464e-01, 3.83145215e-03, 1.40067430e-04, 9.65906941e-05, 3.96462396e-03, 0.0, -7.13692169e+00, -7.00765888e+00, -7.10659176e+00, -7.55049705e+00, 0.0, 2.0000000000, 8.0000000000, 0.0452630321
        2237, -2.49769521e-01, 3.83206154e-03, 1.39914452e-04, 9.65526700e-05, 3.96496943e-03, 0.0, -7.15333185e+00, -7.02414797e+00, -7.11944983e+00, -7.56428867e+00, 0.0, 2.0000000000, 8.0000000000, 0.0456117153
        2238, -2.49782761e-01, 3.83283748e-03, 1.39770971e-04, 9.65037988e-05, 3.96546464e-03, 0.0, -7.16968648e+00, -7.04046327e+00, -7.13261247e+00, -7.57816886e+00, 0.0, 2.0000000000, 8.0000000000, 0.0459653338
        2239, -2.49795238e-01, 3.83376263e-03, 1.39636489e-04, 9.64459049e-05, 3.96609499e-03, 0.0, -7.18600592e+00, -7.05662579e+00, -7.14609146e+00, -7.59217072e+00, 0.0, 2.0000000000, 8.0000000000, 0.0463527838
        2240, -2.49807010e-01, 3.83481801e-03, 1.39510563e-04, 9.63820514e-05, 3.96684437e-03, 0.0, -7.20231826e+00, -7.07266672e+00, -7.15989836e+00, -7.60632508e+00, 0.0, 2.0000000000, 8.0000000000, 0.0467599670
        2241, -2.49818133e-01, 3.83598427e-03, 1.39392783e-04, 9.63148883e-05, 3.96769635e-03, 0.0, -7.21865016e+00, -7.08862162e+00, -7.17404508e+00, -7.62066876e+00, 0.0, 2.0000000000, 8.0000000000, 0.0471168995
        2242, -2.49828667e-01, 3.83724216e-03, 1.39282785e-04, 9.62485872e-05, 3.96863476e-03, 0.0, -7.23503270e+00, -7.10453263e+00, -7.18854268e+00, -7.63523458e+00, 0.0, 2.0000000000, 8.0000000000, 0.0474434336
        2243, -2.49838667e-01, 3.83857424e-03, 1.39180231e-04, 9.61876285e-05, 3.96964542e-03, 0.0, -7.25149142e+00, -7.12044181e+00, -7.20340199e+00, -7.65005985e+00, 0.0, 2.0000000000, 8.0000000000, 0.0477859139
        2244, -2.49848195e-01, 3.83996652e-03, 1.39084825e-04, 9.61400339e-05, 3.97071803e-03, 0.0, -7.26805247e+00, -7.13639298e+00, -7.21863239e+00, -7.66517692e+00, 0.0, 2.0000000000, 8.0000000000, 0.0481106639
        2245, -2.49857325e-01, 3.84141335e-03, 1.38996312e-04, 9.61195511e-05, 3.97185189e-03, 0.0, -7.28472998e+00, -7.15242320e+00, -7.23424136e+00, -7.68062120e+00, 0.0, 2.0000000000, 8.0000000000, 0.0484302481
        2246, -2.49866166e-01, 3.84293099e-03, 1.38914538e-04, 9.61608943e-05, 3.97307204e-03, 0.0, -7.30152451e+00, -7.16855918e+00, -7.25022907e+00, -7.69641790e+00, 0.0, 2.0000000000, 8.0000000000, 0.0487629334
        2247, -2.49874928e-01, 3.84461964e-03, 1.38839625e-04, 9.63777577e-05, 3.97450373e-03, 0.0, -7.31837123e+00, -7.18478223e+00, -7.26656461e+00, -7.71256140e+00, 0.0, 2.0000000000, 8.0000000000, 0.0490842303
        2248, -2.49883876e-01, 3.84710679e-03, 1.38773377e-04, 9.73848752e-05, 3.97690559e-03, 0.0, -7.33490741e+00, -7.20086331e+00, -7.28301809e+00, -7.72877201e+00, 0.0, 2.0000000000, 8.0000000000, 0.0494039337
        2249, -2.49886121e-01, 3.85099470e-03, 1.38719347e-04, 9.96028660e-05, 3.98101066e-03, 0.0, -7.34794133e+00, -7.21456122e+00, -7.29706984e+00, -7.74103194e+00, 0.0, 2.0000000000, 8.0000000000, 0.0497307817
        2250, -2.49888444e-01, 3.84640473e-03, 1.38644927e-04, 9.37227466e-05, 3.97494938e-03, 0.0, -7.33815148e+00, -7.21087122e+00, -7.29116033e+00, -7.71496378e+00, 0.0, 2.0000000000, 8.0000000000, 0.0500820637