# vtk DataFile Version 3.0
vtk output
ASCII
DATASET UNSTRUCTURED_GRID
POINTS 5233 float
9.997500e-01	-3.633567e-05	0.0	9.990000e-01	-1.456766e-04	0.0	9.977600e-01	-3.297400e-04	0.0	9.960200e-01	-6.019182e-04	0.0	9.937800e-01	-9.900657e-04	0.0	9.910500e-01	-1.539440e-03	0.0	9.878400e-01	-2.307735e-03	0.0	9.841300e-01	-3.355738e-03	0.0	9.799500e-01	-4.699130e-03	0.0	9.752800e-01	-6.311259e-03	0.0	9.701500e-01	-8.084207e-03	0.0	9.645400e-01	-9.881318e-03	0.0	9.584700e-01	-1.154875e-02	0.0	9.519400e-01	-1.298344e-02	0.0	9.449600e-01	-1.415572e-02	0.0	9.375400e-01	-1.511466e-02	0.0	9.296900e-01	-1.596241e-02	0.0	9.214000e-01	-1.681738e-02	0.0	9.127000e-01	-1.777338e-02	0.0	9.035800e-01	-1.888734e-02	0.0	8.940600e-01	-2.016729e-02	0.0	8.841500e-01	-2.158491e-02	0.0	8.738500e-01	-2.309014e-02	0.0	8.631800e-01	-2.462130e-02	0.0	8.521600e-01	-2.611994e-02	0.0	8.407700e-01	-2.754345e-02	0.0	8.290500e-01	-2.885545e-02	0.0	8.170100e-01	-3.003842e-02	0.0	8.046400e-01	-3.108924e-02	0.0	7.919700e-01	-3.201120e-02	0.0	7.790100e-01	-3.281640e-02	0.0	7.657800e-01	-3.352002e-02	0.0	7.522800e-01	-3.413930e-02	0.0	7.385200e-01	-3.468972e-02	0.0	7.245300e-01	-3.518374e-02	0.0	7.103200e-01	-3.563170e-02	0.0	6.958900e-01	-3.604117e-02	0.0	6.812700e-01	-3.641625e-02	0.0	6.664700e-01	-3.675974e-02	0.0	6.515000e-01	-3.707333e-02	0.0	6.363800e-01	-3.735814e-02	0.0	6.211300e-01	-3.761569e-02	0.0	6.057600e-01	-3.784851e-02	0.0	5.902800e-01	-3.806015e-02	0.0	5.747100e-01	-3.825513e-02	0.0	5.590600e-01	-3.843906e-02	0.0	5.433600e-01	-3.861799e-02	0.0	5.276100e-01	-3.879858e-02	0.0	5.118400e-01	-3.898695e-02	0.0	4.960500e-01	-3.918899e-02	0.0	4.802700e-01	-3.940918e-02	0.0	4.645100e-01	-3.965094e-02	0.0	4.487800e-01	-3.991616e-02	0.0	4.331100e-01	-4.020472e-02	0.0	4.175000e-01	-4.051529e-02	0.0	4.019700e-01	-4.084458e-02	0.0	3.865400e-01	-4.118775e-02	0.0	3.712300e-01	-4.153863e-02	0.0	3.560400e-01	-4.189046e-02	0.0	3.409900e-01	-4.223520e-02	0.0	3.261100e-01	-4.256402e-02	0.0	3.114000e-01	-4.286849e-02	0.0	2.968700e-01	-4.313984e-02	0.0	2.825500e-01	-4.336907e-02	0.0	2.684500e-01	-4.354787e-02	0.0	2.545700e-01	-4.366842e-02	0.0	2.409400e-01	-4.372308e-02	0.0	2.275700e-01	-4.370506e-02	0.0	2.144700e-01	-4.360813e-02	0.0	2.016600e-01	-4.342680e-02	0.0	1.891400e-01	-4.315596e-02	0.0	1.769300e-01	-4.279143e-02	0.0	1.650400e-01	-4.232949e-02	0.0	1.534900e-01	-4.176758e-02	0.0	1.422900e-01	-4.110349e-02	0.0	1.314400e-01	-4.033492e-02	0.0	1.209500e-01	-3.946066e-02	0.0	1.108500e-01	-3.848225e-02	0.0	1.011300e-01	-3.739845e-02	0.0	9.181000e-02	-3.621172e-02	0.0	8.290000e-02	-3.492459e-02	0.0	7.440000e-02	-3.353894e-02	0.0	6.633000e-02	-3.206081e-02	0.0	5.869000e-02	-3.049396e-02	0.0	5.149000e-02	-2.884489e-02	0.0	4.474000e-02	-2.712136e-02	0.0	3.844000e-02	-2.532946e-02	0.0	3.260000e-02	-2.347865e-02	0.0	2.723000e-02	-2.157958e-02	0.0	2.232000e-02	-1.963580e-02	0.0	1.790000e-02	-1.766685e-02	0.0	1.395000e-02	-1.567098e-02	0.0	1.049000e-02	-1.366366e-02	0.0	7.520000e-03	-1.164969e-02	0.0	5.040000e-03	-9.630044e-03	0.0	3.050000e-03	-7.599057e-03	0.0	1.560000e-03	-5.554539e-03	0.0	5.600000e-04	-3.448972e-03	0.0	6.000000e-05	-1.209953e-03	0.0	0.000000e+00	0.000000e+00	0.0	6.000000e-05	1.165987e-03	0.0	5.600000e-04	3.217620e-03	0.0	1.560000e-03	5.046284e-03	0.0	3.050000e-03	6.742112e-03	0.0	5.040000e-03	8.361143e-03	0.0	7.520000e-03	9.917918e-03	0.0	1.049000e-02	1.142812e-02	0.0	1.395000e-02	1.290100e-02	0.0	1.790000e-02	1.434214e-02	0.0	2.232000e-02	1.574883e-02	0.0	2.723000e-02	1.713017e-02	0.0	3.260000e-02	1.847952e-02	0.0	3.844000e-02	1.980111e-02	0.0	4.474000e-02	2.109357e-02	0.0	5.149000e-02	2.235578e-02	0.0	5.869000e-02	2.358854e-02	0.0	6.633000e-02	2.479082e-02	0.0	7.440000e-02	2.596188e-02	0.0	8.290000e-02	2.710253e-02	0.0	9.181000e-02	2.821104e-02	0.0	1.011300e-01	2.928847e-02	0.0	1.108500e-01	3.033472e-02	0.0	1.209500e-01	3.134889e-02	0.0	1.314400e-01	3.233318e-02	0.0	1.422900e-01	3.328601e-02	0.0	1.534900e-01	3.420788e-02	0.0	1.650400e-01	3.510006e-02	0.0	1.769300e-01	3.596291e-02	0.0	1.891400e-01	3.679602e-02	0.0	2.016600e-01	3.759970e-02	0.0	2.144700e-01	3.837348e-02	0.0	2.275700e-01	3.911791e-02	0.0	2.409400e-01	3.983210e-02	0.0	2.545700e-01	4.051542e-02	0.0	2.684500e-01	4.116691e-02	0.0	2.825500e-01	4.178430e-02	0.0	2.968700e-01	4.236631e-02	0.0	3.114000e-01	4.291066e-02	0.0	3.261100e-01	4.341395e-02	0.0	3.409900e-01	4.387311e-02	0.0	3.560400e-01	4.428486e-02	0.0	3.712300e-01	4.464468e-02	0.0	3.865400e-01	4.494814e-02	0.0	4.019700e-01	4.519092e-02	0.0	4.175000e-01	4.536810e-02	0.0	4.331100e-01	4.547475e-02	0.0	4.487800e-01	4.550600e-02	0.0	4.645100e-01	4.545708e-02	0.0	4.802700e-01	4.532333e-02	0.0	4.960500e-01	4.510028e-02	0.0	5.118400e-01	4.478357e-02	0.0	5.276100e-01	4.436961e-02	0.0	5.433600e-01	4.385448e-02	0.0	5.590600e-01	4.323560e-02	0.0	5.747100e-01	4.250994e-02	0.0	5.902800e-01	4.167657e-02	0.0	6.057600e-01	4.073477e-02	0.0	6.211300e-01	3.968579e-02	0.0	6.363800e-01	3.853197e-02	0.0	6.515000e-01	3.727758e-02	0.0	6.664700e-01	3.593005e-02	0.0	6.812700e-01	3.449946e-02	0.0	6.958900e-01	3.299741e-02	0.0	7.103200e-01	3.143752e-02	0.0	7.245300e-01	2.983720e-02	0.0	7.385200e-01	2.821116e-02	0.0	7.522800e-01	2.657470e-02	0.0	7.657800e-01	2.494391e-02	0.0	7.790100e-01	2.332978e-02	0.0	7.919700e-01	2.173852e-02	0.0	8.046400e-01	2.017488e-02	0.0	8.170100e-01	1.863869e-02	0.0	8.290500e-01	1.712916e-02	0.0	8.407700e-01	1.563831e-02	0.0	8.521600e-01	1.415932e-02	0.0	8.631800e-01	1.268872e-02	0.0	8.738500e-01	1.121505e-02	0.0	8.841500e-01	9.732855e-03	0.0	8.940600e-01	8.239708e-03	0.0	9.035800e-01	6.737204e-03	0.0	9.127000e-01	5.241875e-03	0.0	9.214000e-01	3.792801e-03	0.0	9.296900e-01	2.449317e-03	0.0	9.375400e-01	1.298578e-03	0.0	9.449600e-01	4.270158e-04	0.0	9.519400e-01	-9.664024e-05	0.0	9.584700e-01	-2.543274e-04	0.0	9.645400e-01	-9.681925e-05	0.0	9.701500e-01	2.627968e-04	0.0	9.752800e-01	6.783869e-04	0.0	9.799500e-01	1.018744e-03	0.0	9.841300e-01	1.197865e-03	0.0	9.878400e-01	1.196092e-03	0.0	9.910500e-01	1.046808e-03	0.0	9.937800e-01	8.108983e-04	0.0	9.960200e-01	5.521544e-04	0.0	9.977600e-01	3.205025e-04	0.0	9.990000e-01	1.448331e-04	0.0	9.997500e-01	3.632230e-05	0.0	1.000000e+00	0.000000e+00	0.0	1.984229e+01	2.506660e+00	0.0	1.937166e+01	4.973800e+00	0.0	1.859553e+01	7.362490e+00	0.0	1.752613e+01	9.635070e+00	0.0	1.618034e+01	1.175571e+01	0.0	1.457937e+01	1.369094e+01	0.0	1.274848e+01	1.541027e+01	0.0	1.071654e+01	1.688656e+01	0.0	8.515590e+00	1.809654e+01	0.0	6.180340e+00	1.902113e+01	0.0	3.747630e+00	1.964575e+01	0.0	1.255810e+00	1.996053e+01	0.0	-1.255810e+00	1.996053e+01	0.0	-3.747630e+00	1.964574e+01	0.0	-6.180340e+00	1.902113e+01	0.0	-8.515590e+00	1.809654e+01	0.0	-1.071654e+01	1.688656e+01	0.0	-1.274848e+01	1.541026e+01	0.0	-1.457937e+01	1.369094e+01	0.0	-1.618034e+01	1.175570e+01	0.0	-1.752613e+01	9.635070e+00	0.0	-1.859553e+01	7.362490e+00	0.0	-1.937166e+01	4.973800e+00	0.0	-1.984229e+01	2.506660e+00	0.0	-2.000000e+01	0.000000e+00	0.0	-1.984229e+01	-2.506670e+00	0.0	-1.937166e+01	-4.973800e+00	0.0	-1.859553e+01	-7.362490e+00	0.0	-1.752613e+01	-9.635080e+00	0.0	-1.618034e+01	-1.175571e+01	0.0	-1.457937e+01	-1.369094e+01	0.0	-1.274848e+01	-1.541027e+01	0.0	-1.071653e+01	-1.688656e+01	0.0	-8.515580e+00	-1.809654e+01	0.0	-6.180340e+00	-1.902113e+01	0.0	-3.747620e+00	-1.964575e+01	0.0	-1.255810e+00	-1.996053e+01	0.0	1.255810e+00	-1.996053e+01	0.0	3.747630e+00	-1.964574e+01	0.0	6.180340e+00	-1.902113e+01	0.0	8.515590e+00	-1.809654e+01	0.0	1.071654e+01	-1.688656e+01	0.0	1.274848e+01	-1.541026e+01	0.0	1.457937e+01	-1.369094e+01	0.0	1.618034e+01	-1.175570e+01	0.0	1.752614e+01	-9.635070e+00	0.0	1.859553e+01	-7.362490e+00	0.0	1.937166e+01	-4.973790e+00	0.0	1.984229e+01	-2.506660e+00	0.0	2.000000e+01	0.000000e+00	0.0	6.108543e-02	-3.816085e-02	0.0	6.596172e-01	-5.067244e-02	0.0	4.254823e-01	5.960552e-02	0.0	6.898002e-01	4.694630e-02	0.0	3.791921e-01	-5.563843e-02	0.0	9.994689e-01	-7.250060e-04	0.0	9.985588e-01	-1.332456e-03	0.0	7.734184e-01	-4.509780e-02	0.0	6.892983e-01	-4.963707e-02	0.0	-8.295848e-04	4.943673e-03	0.0	7.463101e-01	-4.690713e-02	0.0	5.833279e-01	5.609673e-02	0.0	9.928466e-01	-3.842911e-03	0.0	9.899844e-01	-4.961123e-03	0.0	5.989134e-01	5.512239e-02	0.0	7.182378e-01	-4.839362e-02	0.0	-1.259566e-03	5.821345e-04	0.0	9.866441e-01	-6.298773e-03	0.0	9.828301e-01	-7.864145e-03	0.0	-9.282311e-04	-5.357332e-03	0.0	6.445386e-01	-5.112172e-02	0.0	8.242638e-01	-4.018575e-02	0.0	7.994356e-01	-4.289063e-02	0.0	3.484143e-01	5.784954e-02	0.0	8.477560e-01	-3.701396e-02	0.0	2.473350e-01	5.273700e-02	0.0	8.698460e-01	-3.351068e-02	0.0	1.069248e-02	1.538686e-02	0.0	8.904306e-01	-2.996791e-02	0.0	7.735916e-02	-4.190369e-02	0.0	9.094521e-01	-2.669814e-02	0.0	-1.478665e-03	-2.676470e-03	0.0	9.425480e-01	-2.093120e-02	0.0	9.268504e-01	-2.379015e-02	0.0	1.834955e-02	-2.265868e-02	0.0	4.256822e-01	-5.492438e-02	0.0	8.589855e-01	-3.528595e-02	0.0	9.564615e-01	-1.760696e-02	0.0	9.785310e-01	-9.669503e-03	0.0	9.684787e-01	-1.367015e-02	0.0	1.586193e-01	-5.258853e-02	0.0	9.001424e-01	-2.828512e-02	0.0	7.599951e-01	-4.604759e-02	0.0	9.971456e-01	-2.101230e-03	0.0	5.985333e-01	-5.222824e-02	0.0	4.413404e-01	-5.468211e-02	0.0	5.359436e-01	-5.329056e-02	0.0	4.728216e-01	-5.420891e-02	0.0	5.043907e-01	-5.375017e-02	0.0	4.885946e-01	-5.397722e-02	0.0	1.252951e-01	-4.941832e-02	0.0	2.822708e-02	-2.739322e-02	0.0	3.945962e-01	-5.540743e-02	0.0	4.657429e-02	-3.407465e-02	0.0	4.100941e-01	-5.516851e-02	0.0	3.189296e-01	-5.636476e-02	0.0	3.487596e-01	-5.605954e-02	0.0	3.387980e-02	-2.967090e-02	0.0	2.897807e-01	-5.650313e-02	0.0	9.349173e-01	-2.238662e-02	0.0	1.471574e-01	-5.164093e-02	0.0	1.950012e-01	-5.476439e-02	0.0	8.613287e-02	-4.362595e-02	0.0	1.049270e-01	-4.675269e-02	0.0	5.673664e-01	-5.280596e-02	0.0	1.704241e-01	-5.342559e-02	0.0	6.139885e-01	-5.189389e-02	0.0	8.803343e-01	-3.172395e-02	0.0	2.306074e-02	-2.505139e-02	0.0	9.952398e-01	-2.914816e-03	0.0	7.155014e-03	-1.536331e-02	0.0	1.868945e-02	1.918508e-02	0.0	9.183568e-01	-2.520855e-02	0.0	9.49
[...]
POINT_DATA 5233

SCALARS Conservative_1 float 1
LOOKUP_TABLE default
1.194908e+00	1.179154e+00	1.172169e+00	1.169544e+00	1.168222e+00	1.165351e+00	1.157036e+00	1.140441e+00	1.113037e+00	1.074314e+00	1.024613e+00	9.626721e-01	9.066262e-01	8.845231e-01	8.954467e-01	9.232741e-01	9.533887e-01	9.754440e-01	9.862562e-01	9.866612e-01	9.783725e-01	9.635569e-01	9.446089e-01	9.233595e-01	8.996899e-01	8.736584e-01	8.503327e-01	8.363227e-01	8.333164e-01	8.385610e-01	8.481965e-01	8.591958e-01	8.698691e-01	8.793113e-01	8.873813e-01	8.941645e-01	8.998960e-01	9.048578e-01	9.092655e-01	9.133783e-01	9.173316e-01	9.212624e-01	9.251882e-01	9.291170e-01	9.329670e-01	9.366632e-01	9.400829e-01	9.431319e-01	9.456940e-01	9.476868e-01	9.490171e-01	9.496349e-01	9.494896e-01	9.485644e-01	9.468440e-01	9.443377e-01	9.410570e-01	9.370331e-01	9.323089e-01	9.269317e-01	9.209755e-01	9.144533e-01	9.073590e-01	8.996597e-01	8.915860e-01	8.835119e-01	8.755916e-01	8.670490e-01	8.564925e-01	8.432551e-01	8.295537e-01	8.191242e-01	8.140730e-01	8.138921e-01	8.170913e-01	8.223604e-01	8.292219e-01	8.375681e-01	8.472498e-01	8.581750e-01	8.703612e-01	8.837744e-01	8.984772e-01	9.144681e-01	9.318083e-01	9.506079e-01	9.709003e-01	9.928166e-01	1.016582e+00	1.042279e+00	1.070283e+00	1.101102e+00	1.135104e+00	1.173168e+00	1.215717e+00	1.262022e+00	1.307438e+00	1.347985e+00	1.348001e+00	1.321568e+00	1.296589e+00	1.222689e+00	1.088570e+00	9.925920e-01	9.285515e-01	8.889490e-01	8.651318e-01	8.500652e-01	8.397065e-01	8.322732e-01	8.268041e-01	8.226365e-01	8.195240e-01	8.171316e-01	8.153826e-01	8.143329e-01	8.138527e-01	8.138070e-01	8.141969e-01	8.151570e-01	8.169814e-01	8.198365e-01	8.235705e-01	8.277572e-01	8.319676e-01	8.359253e-01	8.394433e-01	8.423653e-01	8.446524e-01	8.464164e-01	8.477939e-01	8.488486e-01	8.495557e-01	8.498580e-01	8.497228e-01	8.491313e-01	8.480943e-01	8.466196e-01	8.447111e-01	8.423762e-01	8.396026e-01	8.363859e-01	8.327897e-01	8.289401e-01	8.249362e-01	8.208112e-01	8.165526e-01	8.124334e-01	8.092686e-01	8.087887e-01	8.130829e-01	8.232348e-01	8.373294e-01	8.509451e-01	8.609926e-01	8.682311e-01	8.750069e-01	8.830766e-01	8.928944e-01	9.038381e-01	9.151745e-01	9.266102e-01	9.380799e-01	9.494681e-01	9.605164e-01	9.710317e-01	9.808232e-01	9.898026e-01	9.978751e-01	1.005118e+00	1.011602e+00	1.017500e+00	1.023053e+00	1.028523e+00	1.034213e+00	1.040451e+00	1.047613e+00	1.056183e+00	1.066663e+00	1.079558e+00	1.094965e+00	1.112356e+00	1.130266e+00	1.146693e+00	1.159287e+00	1.165741e+00	1.164039e+00	1.152876e+00	1.132108e+00	1.104087e+00	1.075018e+00	1.052683e+00	1.044527e+00	1.053658e+00	1.075738e+00	1.102842e+00	1.129823e+00	1.156222e+00	1.184516e+00	1.174613e+00	9.999828e-01	9.999865e-01	9.999802e-01	9.999681e-01	9.999565e-01	9.999428e-01	9.999207e-01	9.998874e-01	9.998482e-01	9.998133e-01	9.997886e-01	9.997930e-01	9.998272e-01	9.998982e-01	9.999597e-01	1.000009e+00	1.000035e+00	1.000050e+00	1.000058e+00	1.000061e+00	1.000061e+00	1.000061e+00	1.000060e+00	1.000061e+00	1.000061e+00	1.000063e+00	1.000067e+00	1.000071e+00	1.000077e+00	1.000086e+00	1.000096e+00	1.000109e+00	1.000120e+00	1.000134e+00	1.000140e+00	1.000135e+00	1.000120e+00	1.000098e+00	1.000082e+00	1.000073e+00	1.000072e+00	1.000070e+00	1.000066e+00	1.000059e+00	1.000049e+00	1.000036e+00	1.000029e+00	1.000023e+00	1.000002e+00	9.999790e-01	9.211967e-01	9.130104e-01	8.268241e-01	9.358463e-01	9.391010e-01	1.179027e+00	1.171998e+00	8.597295e-01	9.044369e-01	1.218005e+00	8.787308e-01	8.706862e-01	1.156911e+00	1.149775e+00	8.770656e-01	8.935571e-01	1.316509e+00	1.137681e+00	1.118478e+00	1.326884e+00	9.169073e-01	8.505575e-01	8.432070e-01	8.441335e-01	8.943206e-01	8.526681e-01	9.376340e-01	9.043115e-01	9.692895e-01	8.904345e-01	9.821556e-01	1.344721e+00	9.230126e-01	9.649552e-01	1.076680e+00	9.472323e-01	9.178513e-01	9.185414e-01	1.091090e+00	1.009797e+00	8.211758e-01	9.789856e-01	8.695877e-01	1.165295e+00	9.282060e-01	9.484820e-01	9.417368e-01	9.488109e-01	9.464136e-01	9.479350e-01	8.357116e-01	1.023186e+00	9.425294e-01	9.573064e-01	9.452448e-01	9.190926e-01	9.302523e-01	9.994998e-01	9.057031e-01	9.450781e-01	8.237796e-01	8.414078e-01	8.769636e-01	8.536868e-01	9.354222e-01	8.226050e-01	9.244701e-01	9.548822e-01	1.048827e+00	1.161361e+00	1.176685e+00	8.662022e-01	9.776176e-01	9.097990e-01	1.055642e+00	1.129707e+00	8.694986e-01	8.832651e-01	9.387418e-01	8.867138e-01	8.502090e-01	8.439833e-01	8.670083e-01	9.318853e-01	9.089163e-01	9.385553e-01	1.215930e+00	1.107046e+00	9.349919e-01	8.295218e-01	1.205247e+00	8.759134e-01	8.647193e-01	9.126958e-01	8.905736e-01	9.490053e-01	8.994042e-01	1.286304e+00	1.296486e+00	8.345498e-01	1.331577e+00	8.458672e-01	8.270111e-01	8.340482e-01	8.274280e-01	8.306714e-01	1.121225e+00	8.217378e-01	8.151461e-01	1.112781e+00	1.143700e+00	1.063285e+00	8.130806e-01	8.228575e-01	8.379974e-01	1.116641e+00	1.087362e+00	8.226973e-01	1.091962e+00	1.149524e+00	1.141784e+00	8.230407e-01	8.248891e-01	8.514790e-01	8.526936e-01	8.450033e-01	8.486076e-01	8.188198e-01	8.344202e-01	8.385865e-01	8.309568e-01	8.926789e-01	8.491032e-01	8.514932e-01	9.138910e-01	8.622024e-01	9.773408e-01	9.574282e-01	1.008830e+00	9.945297e-01	1.032644e+00	1.021019e+00	1.074430e+00	1.045866e+00	1.148581e+00	1.101750e+00	1.131054e+00	1.038906e+00	1.053874e+00	1.015105e+00	1.026777e+00	9.863122e-01	1.002027e+00	9.467443e-01	9.676760e-01	9.029568e-01	9.248849e-01	8.496538e-01	8.839570e-01	8.504507e-01	8.522516e-01	8.420516e-01	8.473387e-01	8.300176e-01	8.348101e-01	8.820256e-01	8.392313e-01	8.551738e-01	9.841605e-01	9.564138e-01	8.420978e-01	9.249326e-01	9.443263e-01	1.049502e+00	8.545606e-01	9.366087e-01	8.224687e-01	8.234996e-01	8.522968e-01	8.246834e-01	1.073776e+00	1.063710e+00	8.502442e-01	1.065637e+00	1.078765e+00	8.465757e-01	8.412686e-01	1.130568e+00	1.200246e+00	1.144306e+00	1.164887e+00	9.207010e-01	9.775892e-01	1.098861e+00	8.146232e-01	1.257260e+00	1.140360e+00	9.051629e-01	8.289132e-01	8.981819e-01	8.335998e-01	1.196969e+00	1.259727e+00	9.045656e-01	9.041481e-01	9.761892e-01	1.169993e+00	8.720620e-01	9.086690e-01	8.616160e-01	1.132789e+00	9.232221e-01	9.135285e-01	8.709382e-01	8.844417e-01	1.300993e+00	8.663677e-01	1.106802e+00	9.619951e-01	8.323836e-01	8.989842e-01	9.166411e-01	9.481050e-01	8.978134e-01	9.407221e-01	9.712735e-01	8.547600e-01	9.682308e-01	8.906837e-01	9.238224e-01	1.030867e+00	8.330631e-01	9.342783e-01	8.479859e-01	1.051603e+00	1.077863e+00	8.486307e-01	8.240420e-01	1.135425e+00	1.060136e+00	1.083765e+00	1.133577e+00	1.089004e+00	8.556740e-01	8.507663e-01	8.552093e-01	8.315528e-01	9.128040e-01	8.545219e-01	9.348776e-01	8.418711e-01	8.433009e-01	1.115826e+00	1.096611e+00	1.069829e+00	8.308877e-01	1.209406e+00	1.131379e+00	1.113055e+00	1.012444e+00	1.129918e+00	1.204235e+00	1.331150e+00	1.319433e+00	1.078313e+00	1.212056e+00	9.281397e-01	1.161928e+00	1.150360e+00	8.329505e-01	9.404401e-01	1.117859e+00	9.478195e-01	8.793612e-01	1.143256e+00	1.324568e+00	9.472660e-01	8.364843e-01	8.917866e-01	8.549292e-01	9.320839e-01	9.612173e-01	9.123680e-01	9.765503e-01	9.697859e-01	9.342234e-01	1.027425e+00	9.380300e-01	1.000249e+00	1.097037e+00	8.436149e-01	8.785167e-01	8.700782e-01	1.156083e+00	9.482786e-01	9.478147e-01	9.467312e-01	1.052041e+00	9.435756e-01	9.457632e-01	9.284260e-01	9.833474e-01	9.581048e-01	9.440841e-01	8.370082e-01	8.722370e-01	9.375312e-01	9.275177e-01	1.038395e+00	1.070520e+00	8.930997e-01	8.863137e-01	8.613407e-01	8.517662e-01	9.343673e-01	9.309919e-01	9.636413e-01	9.452506e-01	1.137257e+00	9.330957e-01	9.372192e-01	8.342398e-01	8.426645e-01	8.760023e-01	8.835542e-01	9.113081e-01	9.175431e-01	8.904602e-01	1.301909e+00	1.239711e+00	8.487675e-01	1.079713e+00	8.342073e-01	8.194756e-01	8.194616e-01	8.220147e-01	1.102228e+00	1.126842e+00	1.104575e+00	8.255987e-01	8.293125e-01	8.399293e-01	1.092476e+00	1.132596e+00	8.359025e-01	8.390679e-01	8.558040e-01	8.555557e-01	8.450948e-01	8.386191e-01	8.355598e-01	1.005960e+00	9.742099e-01	9.647839e-01	9.989517e-01	1.024804e+00	1.080667e+00	1.044020e+00	1.037187e+00	1.018798e+00	1.012576e+00	9.913077e-01	9.830593e-01	9.548944e-01	9.446671e-01	9.133485e-01	9.030908e-01	8.617587e-01	8.481734e-01	8.937428e-01	8.859516e-01	8.544460e-01	8.534250e-01	8.520945e-01	8.503294e-01	9.098720e-01	8.558010e-01	8.647581e-01	8.520691e-01	8.568903e-01	9.451128e-01	9.429806e-01	1.067886e+00	8.760740e-01	8.312487e-01	8.320040e-01	8.525264e-01	8.539123e-01	8.431858e-01	8.461130e-01	1.125808e+00	1.116069e+00	9.239504e-01	9.203506e-01	1.004532e+00	1.273821e+00	8.974594e-01	1.298242e+00	9.420811e-01	9.103919e-01	8.664683e-01	9.418032e-01	9.724792e-01	1.089583e+00	1.086700e+00	1.120204e+00	1.079002e+00	1.098085e+00	1.149111e+00	1.174372e+00	1.151628e+00	1.194975e+00	1.079877e+00	1.281351e+00	8.926911e-01	9.665320e-01	1.129607e+00	8.735521e-01	1.170213e+00	1.193362e+00	9.041854e-01	1.252772e+00	8.991285e-01	1.105994e+00	9.434686e-01	1.163168e+00	9.269748e-01	9.288627e-01	9.087275e-01	1.138805e+00	1.134052e+00	1.096290e+00	8.359115e-01	1.123095e+00	9.238728e-01	1.110209e+00	8.282381e-01	8.584177e-01	8.531140e-01	8.512434e-01	8.463296e-01	1.162972e+00	1.274671e+00	1.180638e+00	9.320358e-01	1.237060e+00	9.984669e-01	9.059093e-01	1.311960e+00	8.415953e-01	9.477035e-01	1.055165e+00	9.906148e-01	1.029078e+00	1.003526e+00	9.338122e-01	1.089268e+00	1.123408e+00	1.065480e+00	1.056872e+00	8.549487e-01	8.576081e-01	8.587999e-01	8.399174e-01	9.166221e-01	9.128209e-01	8.659372e-01	9.581600e-01	8.484500e-01	1.105224e+00	1.122327e+00	1.031151e+00	1.130041e+00	1.223624e+00	1.308308e+00	1.031638e+00	1.180640e+00	1.173887e+00	1.029461e+00	1.117811e+00	8.821572e-01	9.472172e-01	8.390777e-01	8.915997e-01	9.113135e-01	9.558588e-01	9.658101e-01	9.357370e-01	9.202737e-01	9.722821e-01	9.746088e-01	9.551405e-01	9.707358e-01	1.102195e+00	8.796148e-01	8.725221e-01	1.144988e+00	9.475959e-01	9.468845e-01	9.444192e-01	9.461179e-01	1.009885e+00	9.585778e-01	9.528034e-01	8.522597e-01	8.458049e-01	9.393162e-01	9.365438e-01	1.057556e+00	1.081879e+00	8.933450e-01	8.868259e-01	8.806484e-01	8.696346e-01	8.601030e-01	9.335210e-01	9.303464e-01	9.897072e-01	9.705328e-01	9.524554e-01	9.315217e-01	9.356133e-01	9.391316e-01	8.415324e-01	8.461446e-01	8.550996e-01	8.760877e-01	8.841938e-01	9.164233e-01	9.219173e-01	8.910252e-01	8.624725e-01	8.254674e-01	8.262933e-01	1.113798e+00	8.290771e-01	8.324253e-01	8.357837e-01	8.422911e-01	1.094818e+00	8.505304e-01	8.558435e-01	8.588714e-01	8.589991e-01	8.456217e-01	8.432173e-01	8.412469e-01	9.720469e-01	1.084782e+00	1.074785e+00	1.049046e+00	1.041935e+00	1.035414e+00	1.022856e+00	1.016675e+00	1.010270e+00	9.964459e-01	9.888411e-01	9.806822e-01	9.629474e-01	9.534505e-01	9.437167e-01	9.139433e-01	8.615643e-01	8.480807e-01	9.044469e-01	8.959949e-01	8.889025e-01	8.583260e-01	8.575862e-01	8.566103e-01	8.553171e-01	8.535735e-01	8.708811e-01	8.815939e-01	8.630571e-01	8.652424e-01	8.747980e-01	9.456658e-01	9.439299e-01	8.949103e-01	9.112902e-01	8.397286e-01	8.409177e-01	8.431598e-01	8.564595e-01	8.454336e-01	8.483861e-01	8.509608e-01	1.119442e+00	1.112994e+00	1.104543e+00	9.270480e-01	9.236776e-01	9.202055e-01	8.974561e-01	9.040201e-01	1.273251e+00	9.014904e-01	1.116938e+00	1.094729e+00	9.408782e-01	1.255134e+00	1.156724e+00	9.719043e-01	9.687088e-01	1.035117e+00	1.099226e+00	8.347397e-01	1.251048e+00	9.780830e-01	1.180775e+00	1.112696e+00	1.107272e+00	1.166486e+00	9.240215e-01	1.126165e+00	1.179299e+00	1.181696e+00	8.731144e-01	8.530669e-01	1.080480e+00	9.431598e-01	9.145265e-01	9.469779e-01	9.158858e-01	1.092591e+00	8.738174e-01	1.113523e+00	1.111944e+00	1.001608e+00	8.551715e-01	8.621933e-01	1.116867e+00	8.617767e-01	9.415167e-01	1.135101e+00	1.093944e+00	1.141502e+00	1.048673e+00	1.103974e+00	9.089597e-01	1.206924e+00	9.049937e-01	8.995209e-01	1.129189e+00	1.126669e+00	1.155001e+00	1.027032e+00	8.384105e-01	8.593502e-01	1.213088e+00	1.008705e+00	9.342699e-01	1.061803e+00	8.578076e-01	8.606167e-01	8.615564e-01	9.166936e-01	9.133653e-01	1.099323e+00	1.043989e+00	1.084369e+00	1.231703e+00	1.284705e+00	1.057234e+00	1.025394e+00	1.104291e+00	8.855846e-01	9.121090e-01	9.279570e-01	9.528434e-01	9.622265e-01	9.435354e-01	9.285237e-01	9.690365e-01	9.729666e-01	9.737901e-01	9.815508e-01	1.001544e+00	8.817929e-01	8.782431e-01	1.134817e+00	9.471828e-01	9.468253e-01	9.449822e-01	9.462491e-01	9.667090e-01	9.698625e-01	8.623619e-01	8.557587e-01	9.385575e-01	1.069883e+00	1.088665e+00	8.947620e-01	8.881223e-01	8.894868e-01	8.788663e-01	8.700631e-01	9.357726e-01	9.330717e-01	1.015230e+00	9.958024e-01	9.769318e-01	9.594679e-01	9.303322e-01	9.343067e-01	9.377478e-01	9.407259e-01	8.542419e-01	8.594436e-01	8.676036e-01	8.769162e-01	8.852235e-01	9.259784e-01	9.211061e-01	8.923162e-01	8.326987e-01	1.104750e+00	1.109571e+00	8.340602e-01	8.365886e-01	8.395326e-01	8.424941e-01	8.454258e-01	8.684606e-01	8.766657e-01	8.625223e-01	8.625890e-01	8.527659e-01	8.506923e-01	8.494044e-01	8.486854e-01	1.086871e+00	1.078373e+00	1.070006e+00	1.054084e+00	1.046956e+00	1.040349e+00	1.033200e+00	1.021614e+00	1.014577e+00	1.008239e+00	9.943214e-01	9.869843e-01	9.787891e-01	9.707217e-01	9.615768e-01	9.529707e-01	9.431165e-01	8.493898e-01	8.607449e-01	9.154857e-01	9.058747e-01	8.993108e-01	8.916172e-01	8.623699e-01	8.619074e-01	8.611543e-01	8.601651e-01	8.588925e-01	8.572007e-01	8.861481e-01	8.980362e-01	8.757364e-01	8.822454e-01	8.951250e-01	9.459350e-01	9.447398e-01	9.430003e-01	9.130509e-01	9.308808e-01	9.520473e-01	8.487456e-01	8.500180e-01	8.529446e-01	8.568757e-01	8.482812e-01	8.510741e-01	8.537672e-01	8.559424e-01	1.094941e+00	1.107981e+00	1.102295e+00	9.298710e-01	9.269968e-01	9.235241e-01	9.205021e-01	8.983922e-01	9.044041e-01	9.102020e-01	1.124211e+00	1.113754e+00	1.043993e+00	1.170068e+00	1.147144e+00	9.038781e-01	9.109677e-01	1.169504e+00	1.096610e+00	1.213001e+00	1.058709e+00	8.660679e-01	8.598887e-01	1.022906e+00	1.122120e+00	1.225967e+00	1.288010e+00	1.289547e+00	1.274396e+00	1.230239e+00	1.135677e+00	8.628630e-01	1.061861e+00	1.115977e+00	9.777562e-01	8.850430e-01	9.440826e-01	1.105121e+00	1.087728e+00	1.102205e+00	8.667365e-01	8.484011e-01	9.295437e-01	9.960688e-01	8.418490e-01	9.412756e-01	8.606496e-01	1.099775e+00	9.237264e-01	1.156214e+00	1.095429e+00	1.284191e+00	1.176896e+00	1.168938e+00	9.752926e-01	1.039116e+00	1.248334e+00	9.946569e-01	1.191747e+00	1.105125e+00	1.155505e+00	1.170732e+00	1.171528e+00	1.102069e+00	9.250601e-01	9.206621e-01	1.096361e+00	8.863918e-01	1.104637e+00	1.105403e+00	9.119986e-01	1.192268e+00	8.636163e-01	8.652175e-01	8.654180e-01	9.190728e-01	1.053640e+00	1.087240e+00	1.259593e+00	1.080785e+00	9.299676e-01	9.406479e-01	9.516860e-01	9.603984e-01	9.372344e-01	9.522637e-01	9.676754e-01	9.723310e-01	9.750934e-01	9.762726e-01	1.006874e+00	1.025250e+00	8.889648e-01	1.124457e+00	9.467448e-01	9.466779e-01	9.453499e-01	9.461625e-01	9.819808e-01	9.915346e-01	8.726957e-01	8.656007e-01	1.078399e+00	1.093011e+00	8.964140e-01	8.989576e-01	8.876967e-01	8.818464e-01	9.366951e-01	1.020373e+00	1.001716e+00	9.836730e-01	9.677931e-01	9.293875e-01	9.331432e-01	9.365627e-01	9.395350e-01	9.419589e-01	8.656789e-01	8.716910e-01	8.775968e-01	8.859752e-01	8.928806e-01	1.099089e+00	1.101891e+00	1.104115e+00	8.396715e-01	8.423755e-01	8.436000e-01	8.470558e-01	8.487909e-01	8.816468e-01	8.911261e-01	8.665128e-01	8.662136e-01	8.572646e-01	8.575280e-01	8.576598e-01	1.079900e+00	1.073152e+00	1.065378e+00	1.058361e+00	1.051189e+00	1.044666e+00	1.037726e+00	1.028281e+00	1.019709e+00	1.009233e+00	9.813197e-01	9.651667e-01	9.477425e-01	9.126380e-01	8.989941e-01	8.668256e-01	8.659968e-01	8.661349e-01	8.647276e-01	8.645892e-01	8.632751e-01	8.617003e-01	9.021648e-01	9.147033e-01	8.905883e-01	8.984981e-01	9.142817e-01	9.460396e-01	9.444664e-01	9.302227e-01	9.491861e-01	9.702090e-01	8.584326e-01	8.602357e-01	8.635784e-01	8.690256e-01	8.749217e-01	8.520846e-01	8.537913e-01	8.568294e-01	8.594547e-01	1.098700e+00	1.092510e+00	9.312974e-01	9.254310e-01	8.996798e-01	9.049907e-01	9.107633e-01	9.155274e-01	1.163112e+00	1.143326e+00	1.158527e+00	1.245433e+00	1.174414e+00	1.070844e+00	1.099475e+00	1.174482e+00	1.098209e+00	1.137592e+00	1.095783e+00	1.237625e+00	1.060193e+00	1.138871e+00	8.652137e-01	1.171137e+00	1.060282e+00	1.145056e+00	1.118915e+00	1.056781e+00	9.431441e-01	1.096869e+00	9.265654e-01	9.912890e-01	9.832677e-01	9.299671e-01	9.205671e-01	8.772627e-01	1.210547e+00	9.450799e-01	9.474461e-01	9.341818e-01	8.650351e-01	1.095901e+00	1.082402e+00	1.202378e+00	1.033512e+00	1.042046e+00	1.162750e+00	1.095726e+00	1.285247e+00	1.225689e+00	1.106217e+00	9.048753e-01	8.529259e-01	8.481533e-01	1.103641e+00	1.167254e+00	1.118849e+00	1.262343e+00	1.171698e+00	1.042734e+00	1.195287e+00	1.177506e+00	8.834364e-01	1.079659e+00	1.098105e+00	1.095820e+00	8.650698e-01	8.678765e-01	8.696509e-01	9.115592e-01	1.088463e+00	1.117203e+00	1.099903e+00	9.470680e-01	9.633304e-01	9.608127e-01	9.748568e-01	9.802998e-01	1.026952e+00	1.115232e+00	9.463090e-01	1.000433e+00	1.012505e+00	8.804175e-01	1.083891e+00	8.989059e-01	8.954341e-01	9.040322e-01	8.920094e-01	9.397118e-01	1.025222e+00	1.006679e+00	9.896626e-01	9.779225e-01	9.338391e-01	9.396127e-01	9.431772e-01	8.839041e-01	8.965873e-01	1.096779e+00	1.097750e+00	8.503331e-01	8.544703e-01	9.056853e-01	8.705960e-01	8.666928e-01	1.015636e+00	1.070676e+00	1.057550e+00	1.044884e+00	1.034093e+00	1.025054e+00	1.004085e+00	9.907531e-01	9.761415e-01	9.603582e-01	9.433432e-01	9.265045e-01	9.123384e-01	8.996948e-01	8.706814e-01	8.699545e-01	8.694004e-01	8.673154e-01	8.668902e-01	9.183961e-01	9.316397e-01	8.984543e-01	9.105171e-01	9.311910e-01	9.462655e-01	9.452120e-01	9.468450e-01	9.655381e-01	9.864026e-01	1.008594e+00	8.686660e-01	8.710100e-01	8.747783e-01	8.808620e-01	8.893524e-01	8.940833e-01	8.585695e-01	8.626880e-01	1.094918e+00	1.090164e+00	9.351494e-01	9.243762e-01	9.182877e-01	9.085825e-01	9.182123e-01	1.108272e+00	1.162007e+00	1.157771e+00	1.125561e+00	1.004724e+00	1.101597e+00	1.167404e+00	1.131650e+00	1.164362e+00	1.113951e+00	1.144415e+00	1.121959e+00	1.088421e+00	1.182364e+00	1.216934e+00	1.093328e+00	9.076632e-01	8.686747e-01	1.114997e+00	9.825536e-01	1.078619e+00	9.142931e-01	1.064933e+00	1.148191e+00	9.442874e-01	1.006812e+00	9.290806e-01	9.419968e-01	1.065725e+00	1.076998e+00	1.061548e+00	1.046497e+00	1.163972e+00	1.095779e+00	1.098038e+00	1.092593e+00	8.732914e-01	8.986791e-01	9.181772e-01	9.686456e-01	1.140106e+00	1.147809e+00	1.261455e+00	1.053765e+00	1.092988e+00	1.168952e+00	1.087698e+00	1.159390e+00	1.130932e+00	9.444213e-01	1.205362e+00	9.588059e-01	9.432550e-01	1.094384e+00	1.221862e+00	1.041550e+00	1.097513e+00	9.125143e-01	1.238759e+00	1.170552e+00	9.845365e-01	1.192744e+00	1.179255e+00	8.669812e-01	1.096553e+00	1.090861e+00	8.819815e-01	8.711671e-01	9.126332e-01	1.112171e+00	1.135487e+00	9.609115e-01	9.734434e-01	9.885106e-01	9.962294e-01	1.107175e+00	9.457150e-01	1.017634e+00	1.029249e+00	9.418063e-01	9.157006e-01	9.312937e-01	9.049570e-01	9.282913e-01	9.135159e-01	9.007470e-01	1.028600e+00	9.317550e-01	9.375901e-01	8.916750e-01	8.898163e-01	9.238110e-01	1.093665e+00	8.581916e-01	8.563541e-01	8.757579e-01	1.073160e+00	1.062123e+00	1.021208e+00	1.050471e+00	1.039694e+00	1.030248e+00	1.011040e+00	9.991140e-01	9.858535e-01	9.715888e-01	9.561519e-01	9.400235e-01	9.253262e-01	8.747547e-01	8.755764e-01	8.757732e-01	8.753656e-01	8.735725e-01	8.739144e-01	9.335719e-01	9.482289e-01	9.068194e-01	9.471285e-01	9.462829e-01	9.458017e-01	9.628157e-01	9.800858e-01	1.000027e+00	1.020333e+00	1.041948e+00	8.796456e-01	8.835862e-01	8.872531e-01	8.930169e-01	9.019539e-01	8.587128e-01	8.621214e-01	8.656492e-01	1.088190e+00	1.081923e+00	9.384209e-01	9.339846e-01	8.961941e-01	9.068755e-01	9.168717e-01	9.248776e-01	1.142910e+00	1.150131e+00	1.147516e+00	1.110656e+00	1.145989e+00	1.129012e+00	1.106944e+00	1.021277e+00	1.166485e+00	1.114854e+00	1.111635e+00	1.051538e+00	1.157991e+00	1.089140e+00	8.789925e-01	1.133389e+00	1.137533e+00	1.108297e+00	1.162669e+00	1.068189e+00	9.108470e-01	1.007577e+00	9.914624e-01	9.139995e-01	1.128950e+00	1.122340e+00	1.118641e+00	1.166730e+00	1.151970e+00	8.984034e-01	9.