# vtk DataFile Version 3.0
vtk output
ASCII
DATASET UNSTRUCTURED_GRID
POINTS 200 float
9.997500e-01	-3.633567e-05	0.0	9.990000e-01	-1.456766e-04	0.0	9.977600e-01	-3.297400e-04	0.0	9.960200e-01	-6.019182e-04	0.0	9.937800e-01	-9.900657e-04	0.0	9.910500e-01	-1.539440e-03	0.0	9.878400e-01	-2.307735e-03	0.0	9.841300e-01	-3.355738e-03	0.0	9.799500e-01	-4.699130e-03	0.0	9.752800e-01	-6.311259e-03	0.0	9.701500e-01	-8.084207e-03	0.0	9.645400e-01	-9.881318e-03	0.0	9.584700e-01	-1.154875e-02	0.0	9.519400e-01	-1.298344e-02	0.0	9.449600e-01	-1.415572e-02	0.0	9.375400e-01	-1.511466e-02	0.0	9.296900e-01	-1.596241e-02	0.0	9.214000e-01	-1.681738e-02	0.0	9.127000e-01	-1.777338e-02	0.0	9.035800e-01	-1.888734e-02	0.0	8.940600e-01	-2.016729e-02	0.0	8.841500e-01	-2.158491e-02	0.0	8.738500e-01	-2.309014e-02	0.0	8.631800e-01	-2.462130e-02	0.0	8.521600e-01	-2.611994e-02	0.0	8.407700e-01	-2.754345e-02	0.0	8.290500e-01	-2.885545e-02	0.0	8.170100e-01	-3.003842e-02	0.0	8.046400e-01	-3.108924e-02	0.0	7.919700e-01	-3.201120e-02	0.0	7.790100e-01	-3.281640e-02	0.0	7.657800e-01	-3.352002e-02	0.0	7.522800e-01	-3.413930e-02	0.0	7.385200e-01	-3.468972e-02	0.0	7.245300e-01	-3.518374e-02	0.0	7.103200e-01	-3.563170e-02	0.0	6.958900e-01	-3.604117e-02	0.0	6.812700e-01	-3.641625e-02	0.0	6.664700e-01	-3.675974e-02	0.0	6.515000e-01	-3.707333e-02	0.0	6.363800e-01	-3.735814e-02	0.0	6.211300e-01	-3.761569e-02	0.0	6.057600e-01	-3.784851e-02	0.0	5.902800e-01	-3.806015e-02	0.0	5.747100e-01	-3.825513e-02	0.0	5.590600e-01	-3.843906e-02	0.0	5.433600e-01	-3.861799e-02	0.0	5.276100e-01	-3.879858e-02	0.0	5.118400e-01	-3.898695e-02	0.0	4.960500e-01	-3.918899e-02	0.0	4.802700e-01	-3.940918e-02	0.0	4.645100e-01	-3.965094e-02	0.0	4.487800e-01	-3.991616e-02	0.0	4.331100e-01	-4.020472e-02	0.0	4.175000e-01	-4.051529e-02	0.0	4.019700e-01	-4.084458e-02	0.0	3.865400e-01	-4.118775e-02	0.0	3.712300e-01	-4.153863e-02	0.0	3.560400e-01	-4.189046e-02	0.0	3.409900e-01	-4.223520e-02	0.0	3.261100e-01	-4.256402e-02	0.0	3.114000e-01	-4.286849e-02	0.0	2.968700e-01	-4.313984e-02	0.0	2.825500e-01	-4.336907e-02	0.0	2.684500e-01	-4.354787e-02	0.0	2.545700e-01	-4.366842e-02	0.0	2.409400e-01	-4.372308e-02	0.0	2.275700e-01	-4.370506e-02	0.0	2.144700e-01	-4.360813e-02	0.0	2.016600e-01	-4.342680e-02	0.0	1.891400e-01	-4.315596e-02	0.0	1.769300e-01	-4.279143e-02	0.0	1.650400e-01	-4.232949e-02	0.0	1.534900e-01	-4.176758e-02	0.0	1.422900e-01	-4.110349e-02	0.0	1.314400e-01	-4.033492e-02	0.0	1.209500e-01	-3.946066e-02	0.0	1.108500e-01	-3.848225e-02	0.0	1.011300e-01	-3.739845e-02	0.0	9.181000e-02	-3.621172e-02	0.0	8.290000e-02	-3.492459e-02	0.0	7.440000e-02	-3.353894e-02	0.0	6.633000e-02	-3.206081e-02	0.0	5.869000e-02	-3.049396e-02	0.0	5.149000e-02	-2.884489e-02	0.0	4.474000e-02	-2.712136e-02	0.0	3.844000e-02	-2.532946e-02	0.0	3.260000e-02	-2.347865e-02	0.0	2.723000e-02	-2.157958e-02	0.0	2.232000e-02	-1.963580e-02	0.0	1.790000e-02	-1.766685e-02	0.0	1.395000e-02	-1.567098e-02	0.0	1.049000e-02	-1.366366e-02	0.0	7.520000e-03	-1.164969e-02	0.0	5.040000e-03	-9.630044e-03	0.0	3.050000e-03	-7.599057e-03	0.0	1.560000e-03	-5.554539e-03	0.0	5.600000e-04	-3.448972e-03	0.0	6.000000e-05	-1.209953e-03	0.0	0.000000e+00	0.000000e+00	0.0	6.000000e-05	1.165987e-03	0.0	5.600000e-04	3.217620e-03	0.0	1.560000e-03	5.046284e-03	0.0	3.050000e-03	6.742112e-03	0.0	5.040000e-03	8.361143e-03	0.0	7.520000e-03	9.917918e-03	0.0	1.049000e-02	1.142812e-02	0.0	1.395000e-02	1.290100e-02	0.0	1.790000e-02	1.434214e-02	0.0	2.232000e-02	1.574883e-02	0.0	2.723000e-02	1.713017e-02	0.0	3.260000e-02	1.847952e-02	0.0	3.844000e-02	1.980111e-02	0.0	4.474000e-02	2.109357e-02	0.0	5.149000e-02	2.235578e-02	0.0	5.869000e-02	2.358854e-02	0.0	6.633000e-02	2.479082e-02	0.0	7.440000e-02	2.596188e-02	0.0	8.290000e-02	2.710253e-02	0.0	9.181000e-02	2.821104e-02	0.0	1.011300e-01	2.928847e-02	0.0	1.108500e-01	3.033472e-02	0.0	1.209500e-01	3.134889e-02	0.0	1.314400e-01	3.233318e-02	0.0	1.422900e-01	3.328601e-02	0.0	1.534900e-01	3.420788e-02	0.0	1.650400e-01	3.510006e-02	0.0	1.769300e-01	3.596291e-02	0.0	1.891400e-01	3.679602e-02	0.0	2.016600e-01	3.759970e-02	0.0	2.144700e-01	3.837348e-02	0.0	2.275700e-01	3.911791e-02	0.0	2.409400e-01	3.983210e-02	0.0	2.545700e-01	4.051542e-02	0.0	2.684500e-01	4.116691e-02	0.0	2.825500e-01	4.178430e-02	0.0	2.968700e-01	4.236631e-02	0.0	3.114000e-01	4.291066e-02	0.0	3.261100e-01	4.341395e-02	0.0	3.409900e-01	4.387311e-02	0.0	3.560400e-01	4.428486e-02	0.0	3.712300e-01	4.464468e-02	0.0	3.865400e-01	4.494814e-02	0.0	4.019700e-01	4.519092e-02	0.0	4.175000e-01	4.536810e-02	0.0	4.331100e-01	4.547475e-02	0.0	4.487800e-01	4.550600e-02	0.0	4.645100e-01	4.545708e-02	0.0	4.802700e-01	4.532333e-02	0.0	4.960500e-01	4.510028e-02	0.0	5.118400e-01	4.478357e-02	0.0	5.276100e-01	4.436961e-02	0.0	5.433600e-01	4.385448e-02	0.0	5.590600e-01	4.323560e-02	0.0	5.747100e-01	4.250994e-02	0.0	5.902800e-01	4.167657e-02	0.0	6.057600e-01	4.073477e-02	0.0	6.211300e-01	3.968579e-02	0.0	6.363800e-01	3.853197e-02	0.0	6.515000e-01	3.727758e-02	0.0	6.664700e-01	3.593005e-02	0.0	6.812700e-01	3.449946e-02	0.0	6.958900e-01	3.299741e-02	0.0	7.103200e-01	3.143752e-02	0.0	7.245300e-01	2.983720e-02	0.0	7.385200e-01	2.821116e-02	0.0	7.522800e-01	2.657470e-02	0.0	7.657800e-01	2.494391e-02	0.0	7.790100e-01	2.332978e-02	0.0	7.919700e-01	2.173852e-02	0.0	8.046400e-01	2.017488e-02	0.0	8.170100e-01	1.863869e-02	0.0	8.290500e-01	1.712916e-02	0.0	8.407700e-01	1.563831e-02	0.0	8.521600e-01	1.415932e-02	0.0	8.631800e-01	1.268872e-02	0.0	8.738500e-01	1.121505e-02	0.0	8.841500e-01	9.732855e-03	0.0	8.940600e-01	8.239708e-03	0.0	9.035800e-01	6.737204e-03	0.0	9.127000e-01	5.241875e-03	0.0	9.214000e-01	3.792801e-03	0.0	9.296900e-01	2.449317e-03	0.0	9.375400e-01	1.298578e-03	0.0	9.449600e-01	4.270158e-04	0.0	9.519400e-01	-9.664024e-05	0.0	9.584700e-01	-2.543274e-04	0.0	9.645400e-01	-9.681925e-05	0.0	9.701500e-01	2.627968e-04	0.0	9.752800e-01	6.783869e-04	0.0	9.799500e-01	1.018744e-03	0.0	9.841300e-01	1.197865e-03	0.0	9.878400e-01	1.196092e-03	0.0	9.910500e-01	1.046808e-03	0.0	9.937800e-01	8.108983e-04	0.0	9.960200e-01	5.521544e-04	0.0	9.977600e-01	3.205025e-04	0.0	9.990000e-01	1.448331e-04	0.0	9.997500e-01	3.632230e-05	0.0	1.000000e+00	0.000000e+00	0.0	
CELLS 200	600
2	199	0	2	0	1	2	1	2	2	2	3	2	3	4	2	4	5	2	5	6	2	6	7	2	7	8	2	8	9	2	9	10	2	10	11	2	11	12	2	12	13	2	13	14	2	14	15	2	15	16	2	16	17	2	17	18	2	18	19	2	19	20	2	20	21	2	21	22	2	22	23	2	23	24	2	24	25	2	25	26	2	26	27	2	27	28	2	28	29	2	29	30	2	30	31	2	31	32	2	32	33	2	33	34	2	34	35	2	35	36	2	36	37	2	37	38	2	38	39	2	39	40	2	40	41	2	41	42	2	42	43	2	43	44	2	44	45	2	45	46	2	46	47	2	47	48	2	48	49	2	49	50	2	50	51	2	51	52	2	52	53	2	53	54	2	54	55	2	55	56	2	56	57	2	57	58	2	58	59	2	59	60	2	60	61	2	61	62	2	62	63	2	63	64	2	64	65	2	65	66	2	66	67	2	67	68	2	68	69	2	69	70	2	70	71	2	71	72	2	72	73	2	73	74	2	74	75	2	75	76	2	76	77	2	77	78	2	78	79	2	79	80	2	80	81	2	81	82	2	82	83	2	83	84	2	84	85	2	85	86	2	86	87	2	87	88	2	88	89	2	89	90	2	90	91	2	91	92	2	92	93	2	93	94	2	94	95	2	95	96	2	96	97	2	97	98	2	98	99	2	99	100	2	100	101	2	101	102	2	102	103	2	103	104	2	104	105	2	105	106	2	106	107	2	107	108	2	108	109	2	109	110	2	110	111	2	111	112	2	112	113	2	113	114	2	114	115	2	115	116	2	116	117	2	117	118	2	118	119	2	119	120	2	120	121	2	121	122	2	122	123	2	123	124	2	124	125	2	125	126	2	126	127	2	127	128	2	128	129	2	129	130	2	130	131	2	131	132	2	132	133	2	133	134	2	134	135	2	135	136	2	136	137	2	137	138	2	138	139	2	139	140	2	140	141	2	141	142	2	142	143	2	143	144	2	144	145	2	145	146	2	146	147	2	147	148	2	148	149	2	149	150	2	150	151	2	151	152	2	152	153	2	153	154	2	154	155	2	155	156	2	156	157	2	157	158	2	158	159	2	159	160	2	160	161	2	161	162	2	162	163	2	163	164	2	164	165	2	165	166	2	166	167	2	167	168	2	168	169	2	169	170	2	170	171	2	171	172	2	172	173	2	173	174	2	174	175	2	175	176	2	176	177	2	177	178	2	178	179	2	179	180	2	180	181	2	181	182	2	182	183	2	183	184	2	184	185	2	185	186	2	186	187	2	187	188	2	188	189	2	189	190	2	190	191	2	191	192	2	192	193	2	193	194	2	194	195	2	195	196	2	196	197	2	197	198	2	198	199	
CELL_TYPES 200
3	3	3	3	3	3	3	3	3	3	3	3	3	3	3	3	3	3	3	3	3	3	3	3	3	3	3	3	3	3	3	3	3	3	3	3	3	3	3	3	3	3	3	3	3	3	3	3	3	3	3	3	3	3	3	3	3	3	3	3	3	3	3	3	3	3	3	3	3	3	3	3	3	3	3	3	3	3	3	3	3	3	3	3	3	3	3	3	3	3	3	3	3	3	3	3	3	3	3	3	3	3	3	3	3	3	3	3	3	3	3	3	3	3	3	3	3	3	3	3	3	3	3	3	3	3	3	3	3	3	3	3	3	3	3	3	3	3	3	3	3	3	3	3	3	3	3	3	3	3	3	3	3	3	3	3	3	3	3	3	3	3	3	3	3	3	3	3	3	3	3	3	3	3	3	3	3	3	3	3	3	3	3	3	3	3	3	3	3	3	3	3	3	3	3	3	3	3	3	3	
POINT_DATA 200

SCALARS Conservative_1 float 1
LOOKUP_TABLE default
1.194908e+00	1.179154e+00	1.172169e+00	1.169544e+00	1.168222e+00	1.165351e+00	1.157036e+00	1.140441e+00	1.113037e+00	1.074314e+00	1.024613e+00	9.626721e-01	9.066262e-01	8.845231e-01	8.954467e-01	9.232741e-01	9.533887e-01	9.754440e-01	9.862562e-01	9.866612e-01	9.783725e-01	9.635569e-01	9.446089e-01	9.233595e-01	8.996899e-01	8.736584e-01	8.503327e-01	8.363227e-01	8.333164e-01	8.385610e-01	8.481965e-01	8.591958e-01	8.698691e-01	8.793113e-01	8.873813e-01	8.941645e-01	8.998960e-01	9.048578e-01	9.092655e-01	9.133783e-01	9.173316e-01	9.212624e-01	9.251882e-01	9.291170e-01	9.329670e-01	9.366632e-01	9.400829e-01	9.431319e-01	9.456940e-01	9.476868e-01	9.490171e-01	9.496349e-01	9.494896e-01	9.485644e-01	9.468440e-01	9.443377e-01	9.410570e-01	9.370331e-01	9.323089e-01	9.269317e-01	9.209755e-01	9.144533e-01	9.073590e-01	8.996597e-01	8.915860e-01	8.835119e-01	8.755916e-01	8.670490e-01	8.564925e-01	8.432551e-01	8.295537e-01	8.191242e-01	8.140730e-01	8.138921e-01	8.170913e-01	8.223604e-01	8.292219e-01	8.375681e-01	8.472498e-01	8.581750e-01	8.703612e-01	8.837744e-01	8.984772e-01	9.144681e-01	9.318083e-01	9.506079e-01	9.709003e-01	9.928166e-01	1.016582e+00	1.042279e+00	1.070283e+00	1.101102e+00	1.135104e+00	1.173168e+00	1.215717e+00	1.262022e+00	1.307438e+00	1.347985e+00	1.348001e+00	1.321568e+00	1.296589e+00	1.222689e+00	1.088570e+00	9.925920e-01	9.285515e-01	8.889490e-01	8.651318e-01	8.500652e-01	8.397065e-01	8.322732e-01	8.268041e-01	8.226365e-01	8.195240e-01	8.171316e-01	8.153826e-01	8.143329e-01	8.138527e-01	8.138070e-01	8.141969e-01	8.151570e-01	8.169814e-01	8.198365e-01	8.235705e-01	8.277572e-01	8.319676e-01	8.359253e-01	8.394433e-01	8.423653e-01	8.446524e-01	8.464164e-01	8.477939e-01	8.488486e-01	8.495557e-01	8.498580e-01	8.497228e-01	8.491313e-01	8.480943e-01	8.466196e-01	8.447111e-01	8.423762e-01	8.396026e-01	8.363859e-01	8.327897e-01	8.289401e-01	8.249362e-01	8.208112e-01	8.165526e-01	8.124334e-01	8.092686e-01	8.087887e-01	8.130829e-01	8.232348e-01	8.373294e-01	8.509451e-01	8.609926e-01	8.682311e-01	8.750069e-01	8.830766e-01	8.928944e-01	9.038381e-01	9.151745e-01	9.266102e-01	9.380799e-01	9.494681e-01	9.605164e-01	9.710317e-01	9.808232e-01	9.898026e-01	9.978751e-01	1.005118e+00	1.011602e+00	1.017500e+00	1.023053e+00	1.028523e+00	1.034213e+00	1.040451e+00	1.047613e+00	1.056183e+00	1.066663e+00	1.079558e+00	1.094965e+00	1.112356e+00	1.130266e+00	1.146693e+00	1.159287e+00	1.165741e+00	1.164039e+00	1.152876e+00	1.132108e+00	1.104087e+00	1.075018e+00	1.052683e+00	1.044527e+00	1.053658e+00	1.075738e+00	1.102842e+00	1.129823e+00	1.156222e+00	1.184516e+00	1.174613e+00	
SCALARS Conservative_2 float 1
LOOKUP_TABLE default
7.156541e-01	7.376915e-01	7.504443e-01	7.550342e-01	7.546996e-01	7.547903e-01	7.588153e-01	7.711175e-01	7.942330e-01	8.280183e-01	8.691050e-01	9.104079e-01	9.416146e-01	9.619502e-01	9.712526e-01	9.690424e-01	9.607807e-01	9.517281e-01	9.449328e-01	9.425496e-01	9.446081e-01	9.499236e-01	9.567595e-01	9.637570e-01	9.700437e-01	9.746648e-01	9.768900e-01	9.778049e-01	9.784141e-01	9.789912e-01	9.794405e-01	9.795616e-01	9.794490e-01	9.789845e-01	9.783689e-01	9.776333e-01	9.768844e-01	9.761714e-01	9.754108e-01	9.746635e-01	9.738446e-01	9.729938e-01	9.720535e-01	9.710740e-01	9.700343e-01	9.690023e-01	9.679829e-01	9.670540e-01	9.662317e-01	9.655836e-01	9.651220e-01	9.649096e-01	9.649408e-01	9.652402e-01	9.657942e-01	9.666032e-01	9.676306e-01	9.688514e-01	9.702157e-01	9.716660e-01	9.731779e-01	9.746771e-01	9.761730e-01	9.775637e-01	9.787983e-01	9.797056e-01	9.803734e-01	9.808758e-01	9.813807e-01	9.814999e-01	9.808738e-01	9.796805e-01	9.786509e-01	9.779018e-01	9.774644e-01	9.769755e-01	9.764095e-01	9.755633e-01	9.741287e-01	9.719408e-01	9.688903e-01	9.646600e-01	9.590309e-01	9.516301e-01	9.420564e-01	9.297746e-01	9.141476e-01	8.945102e-01	8.698331e-01	8.386751e-01	7.993103e-01	7.492202e-01	6.845410e-01	6.008558e-01	4.920674e-01	3.542588e-01	1.976637e-01	5.392779e-02	-1.066653e-02	6.918111e-03	7.783126e-02	2.415981e-01	4.702845e-01	6.456637e-01	7.589115e-01	8.295449e-01	8.730678e-01	9.008999e-01	9.191378e-01	9.317050e-01	9.407210e-01	9.473058e-01	9.523559e-01	9.563088e-01	9.594587e-01	9.620681e-01	9.642111e-01	9.660015e-01	9.676029e-01	9.690457e-01	9.703985e-01	9.716709e-01	9.728171e-01	9.737741e-01	9.745773e-01	9.752568e-01	9.758301e-01	9.763063e-01	9.767122e-01	9.770693e-01	9.773914e-01	9.776742e-01	9.779294e-01	9.781522e-01	9.783612e-01	9.785476e-01	9.787214e-01	9.788715e-01	9.789853e-01	9.790712e-01	9.791160e-01	9.791017e-01	9.790196e-01	9.788750e-01	9.786447e-01	9.783492e-01	9.779764e-01	9.776528e-01	9.774564e-01	9.776714e-01	9.784613e-01	9.796078e-01	9.802285e-01	9.799889e-01	9.793405e-01	9.787221e-01	9.780747e-01	9.770754e-01	9.755282e-01	9.733631e-01	9.706335e-01	9.674087e-01	9.637142e-01	9.596160e-01	9.552176e-01	9.506655e-01	9.460962e-01	9.416667e-01	9.373845e-01	9.333863e-01	9.296063e-01	9.259460e-01	9.223035e-01	9.184861e-01	9.142547e-01	9.093252e-01	9.032840e-01	8.956340e-01	8.856490e-01	8.727163e-01	8.564036e-01	8.371429e-01	8.165160e-01	7.975359e-01	7.838657e-01	7.789928e-01	7.853253e-01	8.033746e-01	8.308783e-01	8.629540e-01	8.919548e-01	9.096728e-01	9.119279e-01	9.001750e-01	8.774613e-01	8.479174e-01	8.139921e-01	7.759190e-01	7.325727e-01	6.650115e-01	
SCALARS Conservative_3 float 1
LOOKUP_TABLE default
1.015201e-01	1.065178e-01	1.139281e-01	1.243787e-01	1.416160e-01	1.667059e-01	1.984387e-01	2.329847e-01	2.644439e-01	2.848422e-01	2.874207e-01	2.707691e-01	2.329263e-01	1.855502e-01	1.434024e-01	1.138413e-01	1.003208e-01	1.007487e-01	1.093000e-01	1.206824e-01	1.308512e-01	1.371915e-01	1.383481e-01	1.342472e-01	1.262505e-01	1.159920e-01	1.038373e-01	9.068409e-02	7.787953e-02	6.632092e-02	5.645652e-02	4.830928e-02	4.179361e-02	3.663801e-02	3.251498e-02	2.914907e-02	2.630237e-02	2.379297e-02	2.150414e-02	1.937106e-02	1.738344e-02	1.557157e-02	1.398512e-02	1.268519e-02	1.172951e-02	1.116078e-02	1.100192e-02	1.124872e-02	1.187874e-02	1.283749e-02	1.406188e-02	1.546244e-02	1.695108e-02	1.842560e-02	1.978847e-02	2.094406e-02	2.180474e-02	2.228754e-02	2.232638e-02	2.185470e-02	2.081850e-02	1.918064e-02	1.693269e-02	1.408167e-02	1.059510e-02	6.360093e-03	1.276757e-03	-4.565392e-03	-1.084002e-02	-1.732757e-02	-2.446502e-02	-3.268258e-02	-4.197027e-02	-5.212583e-02	-6.308530e-02	-7.486043e-02	-8.757773e-02	-1.012711e-01	-1.159758e-01	-1.317661e-01	-1.486788e-01	-1.667320e-01	-1.859760e-01	-2.064119e-01	-2.280342e-01	-2.508439e-01	-2.748350e-01	-2.999580e-01	-3.260419e-01	-3.529077e-01	-3.801678e-01	-4.067439e-01	-4.307824e-01	-4.480889e-01	-4.494884e-01	-4.181934e-01	-3.277819e-01	-1.513259e-01	9.101431e-02	2.866376e-01	4.675390e-01	6.546015e-01	6.963259e-01	6.344754e-01	5.475703e-01	4.683003e-01	4.040397e-01	3.526730e-01	3.112995e-01	2.772279e-01	2.489089e-01	2.249338e-01	2.044061e-01	1.866330e-01	1.710884e-01	1.574004e-01	1.452718e-01	1.344221e-01	1.246726e-01	1.158577e-01	1.078802e-01	1.006820e-01	9.417213e-02	8.823636e-02	8.277568e-02	7.772003e-02	7.304587e-02	6.869878e-02	6.463778e-02	6.082415e-02	5.723840e-02	5.384569e-02	5.060391e-02	4.745978e-02	4.437574e-02	4.130886e-02	3.822628e-02	3.508996e-02	3.186406e-02	2.851627e-02	2.501173e-02	2.132224e-02	1.741405e-02	1.327826e-02	8.911552e-03	4.301395e-03	-5.882860e-04	-5.815014e-03	-1.141125e-02	-1.737899e-02	-2.353614e-02	-2.964345e-02	-3.548701e-02	-4.156675e-02	-4.842611e-02	-5.584909e-02	-6.334081e-02	-7.062064e-02	-7.761464e-02	-8.431819e-02	-9.066553e-02	-9.652122e-02	-1.016542e-01	-1.059498e-01	-1.093161e-01	-1.117881e-01	-1.133989e-01	-1.143090e-01	-1.147182e-01	-1.148854e-01	-1.150762e-01	-1.155388e-01	-1.164848e-01	-1.180626e-01	-1.203672e-01	-1.234643e-01	-1.273370e-01	-1.318280e-01	-1.364604e-01	-1.401907e-01	-1.412449e-01	-1.372484e-01	-1.257528e-01	-1.052173e-01	-7.563607e-02	-3.911446e-02	7.271740e-06	3.546491e-02	5.983130e-02	6.638874e-02	5.200429e-02	2.021961e-02	-2.012555e-02	-5.861057e-02	-8.719606e-02	-1.032649e-01	-1.092852e-01	-1.071129e-01	-1.008154e-01	4.108631e-03	
SCALARS Conservative_4 float 1
LOOKUP_TABLE default
3.432119e+00	3.392532e+00	3.375749e+00	3.369650e+00	3.366504e+00	3.359550e+00	3.338812e+00	3.297343e+00	3.228718e+00	3.131536e+00	3.006254e+00	2.848624e+00	2.704953e+00	2.649377e+00	2.678948e+00	2.750947e+00	2.828394e+00	2.884906e+00	2.912320e+00	2.913135e+00	2.891810e+00	2.853816e+00	2.805141e+00	2.750377e+00	2.689082e+00	2.621263e+00	2.560086e+00	2.523162e+00	2.515113e+00	2.528779e+00	2.554032e+00	2.582872e+00	2.610876e+00	2.635595e+00	2.656694e+00	2.674390e+00	2.689322e+00	2.702243e+00	2.713694e+00	2.724377e+00	2.734625e+00	2.744813e+00	2.754971e+00	2.765136e+00	2.775081e+00	2.784629e+00	2.793451e+00	2.801317e+00	2.807921e+00	2.813059e+00	2.816484e+00	2.818079e+00	2.817707e+00	2.815330e+00	2.810903e+00	2.804452e+00	2.796001e+00	2.785628e+00	2.773437e+00	2.759541e+00	2.744135e+00	2.727237e+00	2.708838e+00	2.688828e+00	2.667807e+00	2.646717e+00	2.625993e+00	2.603613e+00	2.575979e+00	2.541242e+00	2.505140e+00	2.477513e+00	2.464077e+00	2.463514e+00	2.471948e+00	2.485848e+00	2.503984e+00	2.526029e+00	2.551524e+00	2.580210e+00	2.612140e+00	2.647169e+00	2.685454e+00	2.726939e+00	2.771742e+00	2.820096e+00	2.872024e+00	2.927836e+00	2.988036e+00	3.052717e+00	3.122779e+00	3.199412e+00	3.283337e+00	3.376761e+00	3.480530e+00	3.592920e+00	3.702999e+00	3.804068e+00	3.802270e+00	3.735725e+00	3.681149e+00	3.504885e+00	3.162436e+00	2.917058e+00	2.753265e+00	2.652677e+00	2.592507e+00	2.554493e+00	2.528195e+00	2.509215e+00	2.495207e+00	2.484470e+00	2.476454e+00	2.470295e+00	2.465802e+00	2.463147e+00	2.461972e+00	2.461926e+00	2.463046e+00	2.465675e+00	2.470593e+00	2.478233e+00	2.488176e+00	2.499279e+00	2.510426e+00	2.520897e+00	2.530202e+00	2.537930e+00	2.543982e+00	2.548656e+00	2.552313e+00	2.555116e+00	2.557003e+00	2.557819e+00	2.557485e+00	2.555946e+00	2.553235e+00	2.549369e+00	2.544354e+00	2.538213e+00	2.530912e+00	2.522435e+00	2.512947e+00	2.502784e+00	2.492200e+00	2.481290e+00	2.470019e+00	2.459146e+00	2.450827e+00	2.449679e+00	2.461212e+00	2.488211e+00	2.525425e+00	2.561194e+00	2.587535e+00	2.606546e+00	2.624369e+00	2.645534e+00	2.671196e+00	2.699706e+00	2.729151e+00	2.758775e+00	2.788406e+00	2.817754e+00	2.846152e+00	2.873121e+00	2.898178e+00	2.921123e+00	2.941699e+00	2.960146e+00	2.976636e+00	2.991612e+00	3.005699e+00	3.019557e+00	3.033953e+00	3.049710e+00	3.067756e+00	3.089298e+00	3.115547e+00	3.147755e+00	3.186106e+00	3.229280e+00	3.273629e+00	3.314309e+00	3.345625e+00	3.361957e+00	3.358294e+00	3.331254e+00	3.280125e+00	3.210464e+00	3.137647e+00	3.080933e+00	3.059370e+00	3.081658e+00	3.136851e+00	3.204540e+00	3.271403e+00	3.336363e+00	3.406299e+00	3.366210e+00	
SCALARS Pressure float 1
LOOKUP_TABLE default
1.285399e+00	1.262787e+00	1.251995e+00	1.247728e+00	1.245657e+00	1.241276e+00	1.229188e+00	1.205138e+00	1.165573e+00	1.109872e+00	1.038937e+00	9.520218e-01	8.744222e-01	8.427352e-01	8.562909e-01	8.941554e-01	9.356005e-01	9.661636e-01	9.814371e-01	9.822199e-01	9.708220e-01	9.503232e-01	9.241908e-01	8.950627e-01	8.629096e-01	8.279554e-01	7.970418e-01	7.786540e-01	7.748344e-01	7.818746e-01	7.946626e-01	8.092477e-01	8.233822e-01	8.359413e-01	8.467023e-01	8.557870e-01	8.634831e-01	8.701510e-01	8.761022e-01	8.816564e-01	8.870162e-01	8.923466e-01	8.976877e-01	9.030345e-01	9.082882e-01	9.133334e-01	9.180125e-01	9.221835e-01	9.256954e-01	9.284250e-01	9.302518e-01	9.310954e-01	9.308938e-01	9.296186e-01	9.272537e-01	9.238092e-01	9.193083e-01	9.137951e-01	9.073349e-01	9.000014e-01	8.918920e-01	8.830407e-01	8.734309e-01	8.630443e-01	8.521895e-01	8.414032e-01	8.308578e-01	8.195112e-01	8.054683e-01	7.879438e-01	7.699523e-01	7.564031e-01	7.498977e-01	7.497457e-01	7.539422e-01	7.608444e-01	7.697989e-01	7.807040e-01	7.934329e-01	8.078799e-01	8.240616e-01	8.419870e-01	8.617495e-01	8.833969e-01	9.070525e-01	9.329204e-01	9.611074e-01	9.918215e-01	1.025447e+00	1.062220e+00	1.102716e+00	1.147757e+00	1.198073e+00	1.254928e+00	1.319141e+00	1.389564e+00	1.458787e+00	1.517798e+00	1.519662e+00	1.481849e+00	1.437807e+00	1.322314e+00	1.135256e+00	1.001712e+00	9.126724e-01	8.569086e-01	8.230481e-01	8.015791e-01	7.869803e-01	7.766140e-01	7.690295e-01	7.633134e-01	7.590412e-01	7.557544e-01	7.533425e-01	7.518531e-01	7.511329e-01	7.509980e-01	7.514177e-01	7.525793e-01	7.548633e-01	7.584954e-01	7.632946e-01	7.687207e-01	7.741967e-01	7.793510e-01	7.839344e-01	7.877426e-01	7.907198e-01	7.930103e-01	7.947922e-01	7.961530e-01	7.970580e-01	7.974348e-01	7.972356e-01	7.964389e-01	7.950558e-01	7.931001e-01	7.905803e-01	7.875025e-01	7.838534e-01	7.796313e-01	7.749208e-01	7.698853e-01	7.646621e-01	7.592868e-01	7.537450e-01	7.483555e-01	7.441791e-01	7.434330e-01	7.488532e-01	7.619341e-01	7.803661e-01	7.983513e-01	8.116782e-01	8.212450e-01	8.301738e-01	8.408680e-01	8.539670e-01	8.686622e-01	8.839733e-01	8.994983e-01	9.151495e-01	9.307625e-01	9.459830e-01	9.605291e-01	9.741292e-01	9.866346e-01	9.979296e-01	1.008077e+00	1.017185e+00	1.025495e+00	1.033332e+00	1.041068e+00	1.049137e+00	1.058009e+00	1.068239e+00	1.080530e+00	1.095657e+00	1.114360e+00	1.136835e+00	1.162321e+00	1.188682e+00	1.212854e+00	1.231259e+00	1.240410e+00	1.237353e+00	1.220318e+00	1.189458e+00	1.148490e+00	1.106543e+00	1.075077e+00	1.064438e+00	1.078201e+00	1.110181e+00	1.149498e+00	1.189157e+00	1.228420e+00	1.270191e+00	1.271181e+00	
SCALARS Temperature float 1
LOOKUP_TABLE default
1.075730e+00	1.070926e+00	1.068101e+00	1.066850e+00	1.066285e+00	1.065152e+00	1.062359e+00	1.056730e+00	1.047200e+00	1.033099e+00	1.013979e+00	9.889367e-01	9.644794e-01	9.527566e-01	9.562724e-01	9.684615e-01	9.813421e-01	9.904859e-01	9.951137e-01	9.954987e-01	9.922825e-01	9.862657e-01	9.783846e-01	9.693544e-01	9.591189e-01	9.476878e-01	9.373294e-01	9.310449e-01	9.298201e-01	9.324004e-01	9.368851e-01	9.418664e-01	9.465587e-01	9.506774e-01	9.541584e-01	9.570801e-01	9.595365e-01	9.616440e-01	9.635273e-01	9.652697e-01	9.669526e-01	9.686129e-01	9.702758e-01	9.719276e-01	9.735481e-01	9.750927e-01	9.765229e-01	9.777885e-01	9.788530e-01	9.796750e-01	9.802267e-01	9.804773e-01	9.804149e-01	9.800269e-01	9.793098e-01	9.782615e-01	9.768891e-01	9.752004e-01	9.732128e-01	9.709468e-01	9.684210e-01	9.656488e-01	9.626078e-01	9.593008e-01	9.558130e-01	9.523393e-01	9.489103e-01	9.451729e-01	9.404265e-01	9.344074e-01	9.281525e-01	9.234290e-01	9.211676e-01	9.211856e-01	9.227148e-01	9.251958e-01	9.283388e-01	9.321080e-01	9.364805e-01	9.413929e-01	9.468041e-01	9.527171e-01	9.591222e-01	9.660227e-01	9.734326e-01	9.813935e-01	9.899136e-01	9.989977e-01	1.008720e+00	1.019131e+00	1.030303e+00	1.042371e+00	1.055474e+00	1.069691e+00	1.085072e+00	1.101062e+00	1.115761e+00	1.125976e+00	1.127345e+00	1.121281e+00	1.108915e+00	1.081480e+00	1.042888e+00	1.009188e+00	9.828991e-01	9.639569e-01	9.513557e-01	9.429619e-01	9.372088e-01	9.331239e-01	9.301230e-01	9.278866e-01	9.261977e-01	9.248870e-01	9.239129e-01	9.232749e-01	9.229346e-01	9.228208e-01	9.228943e-01	9.232323e-01	9.239663e-01	9.251788e-01	9.268116e-01	9.286790e-01	9.305611e-01	9.323214e-01	9.338742e-01	9.351555e-01	9.361482e-01	9.369033e-01	9.374828e-01	9.379211e-01	9.382056e-01	9.383154e-01	9.382302e-01	9.379455e-01	9.374616e-01	9.367844e-01	9.359180e-01	9.348585e-01	9.336005e-01	9.321430e-01	9.305120e-01	9.287587e-01	9.269349e-01	9.250444e-01	9.230820e-01	9.211285e-01	9.195699e-01	9.191932e-01	9.210047e-01	9.255368e-01	9.319703e-01	9.381937e-01	9.427238e-01	9.458831e-01	9.487626e-01	9.522028e-01	9.564031e-01	9.610816e-01	9.659069e-01	9.707407e-01	9.755560e-01	9.802989e-01	9.848692e-01	9.891841e-01	9.931751e-01	9.967994e-01	1.000055e+00	1.002944e+00	1.005519e+00	1.007858e+00	1.010047e+00	1.012198e+00	1.014431e+00	1.016875e+00	1.019688e+00	1.023052e+00	1.027182e+00	1.032237e+00	1.038239e+00	1.044918e+00	1.051683e+00	1.057697e+00	1.062083e+00	1.064052e+00	1.062982e+00	1.058499e+00	1.050657e+00	1.040217e+00	1.029325e+00	1.021274e+00	1.019063e+00	1.023294e+00	1.032018e+00	1.042306e+00	1.052517e+00	1.062443e+00	1.072329e+00	1.082213e+00	
SCALARS Pressure_Coefficient float 1
LOOKUP_TABLE default
6.370508e-01	5.865780e-01	5.624896e-01	5.529634e-01	5.483420e-01	5.385627e-01	5.115801e-01	4.578978e-01	3.695825e-01	2.452505e-01	8.691195e-02	-1.070943e-01	-2.803075e-01	-3.510374e-01	-3.207793e-01	-2.362602e-01	-1.437490e-01	-7.552776e-02	-4.143514e-02	-3.968775e-02	-6.512954e-02	-1.108858e-01	-1.692170e-01	-2.342351e-01	-3.060054e-01	-3.840282e-01	-4.530316e-01	-4.940758e-01	-5.026019e-01	-4.868869e-01	-4.583424e-01	-4.257864e-01	-3.942362e-01	-3.662024e-01	-3.421823e-01	-3.219039e-01	-3.047253e-01	-2.898415e-01	-2.765577e-01	-2.641599e-01	-2.521960e-01	-2.402978e-01	-2.283757e-01	-2.164410e-01	-2.047138e-01	-1.934523e-01	-1.830078e-01	-1.736974e-01	-1.658584e-01	-1.597656e-01	-1.556879e-01	-1.538049e-01	-1.542549e-01	-1.571013e-01	-1.623802e-01	-1.700687e-01	-1.801153e-01	-1.924216e-01	-2.068417e-01	-2.232112e-01	-2.413125e-01	-2.610698e-01	-2.825204e-01	-3.057047e-01	-3.299342e-01	-3.540108e-01	-3.775495e-01	-4.028768e-01	-4.342226e-01	-4.733397e-01	-5.134992e-01	-5.437431e-01	-5.582641e-01	-5.586033e-01	-5.492361e-01	-5.338295e-01	-5.138417e-01	-4.895001e-01	-4.610872e-01	-4.288396e-01	-3.927197e-01	-3.527076e-01	-3.085950e-01	-2.602747e-01	-2.074720e-01	-1.497313e-01	-8.681393e-02	-1.825561e-02	5.680095e-02	1.388836e-01	2.292761e-01	3.298142e-01	4.421276e-01	5.690348e-01	7.123678e-01	8.695630e-01	1.024079e+00	1.155799e+00	1.159960e+00	1.075556e+00	9.772476e-01	7.194514e-01	3.019112e-01	3.821572e-03	-1.949276e-01	-3.194005e-01	-3.949819e-01	-4.429039e-01	-4.754904e-01	-4.986295e-01	-5.155592e-01	-5.283184e-01	-5.378544e-01	-5.451911e-01	-5.505749e-01	-5.538994e-01	-5.555070e-01	-5.558081e-01	-5.548713e-01	-5.522784e-01	-5.471801e-01	-5.390728e-01	-5.283602e-01	-5.162485e-01	-5.040253e-01	-4.925200e-01	-4.822894e-01	-4.737888e-01	-4.671433e-01	-4.620305e-01	-4.580532e-01	-4.550156e-01	-4.529956e-01	-4.521544e-01	-4.525992e-01	-4.543774e-01	-4.574646e-01	-4.618302e-01	-4.674547e-01	-4.743247e-01	-4.824701e-01	-4.918945e-01	-5.024090e-01	-5.136488e-01	-5.253078e-01	-5.373063e-01	-5.496763e-01	-5.617064e-01	-5.710288e-01	-5.726942e-01	-5.605956e-01	-5.313971e-01	-4.902543e-01	-4.501086e-01	-4.203611e-01	-3.990066e-01	-3.790763e-01	-3.552054e-01	-3.259665e-01	-2.931648e-01	-2.589881e-01	-2.243342e-01	-1.893985e-01	-1.545479e-01	-1.205737e-01	-8.810470e-02	-5.774729e-02	-2.983344e-02	-4.621398e-03	1.802972e-02	3.835934e-02	5.690848e-02	7.440156e-02	9.167010e-02	1.096814e-01	1.294841e-01	1.523192e-01	1.797553e-01	2.135195e-01	2.552680e-01	3.054353e-01	3.623230e-01	4.211642e-01	4.751208e-01	5.162031e-01	5.366288e-01	5.298056e-01	4.917816e-01	4.228970e-01	3.314513e-01	2.378188e-01	1.675830e-01	1.438353e-01	1.745565e-01	2.459391e-01	3.337012e-01	4.222261e-01	5.098651e-01	6.031041e-01	6.053157e-01	
SCALARS Mach float 1
LOOKUP_TABLE default
4.929232e-01	5.162278e-01	5.295486e-01	5.353634e-01	5.379756e-01	5.431779e-01	5.558453e-01	5.807262e-01	6.211390e-01	6.777362e-01	7.498452e-01	8.385225e-01	9.207279e-01	9.590052e-01	9.475901e-01	9.075766e-01	8.644397e-01	8.331865e-01	8.171407e-01	8.157983e-01	8.269763e-01	8.476821e-01	8.744310e-01	9.046163e-01	9.383085e-01	9.753732e-01	1.008524e+00	1.028463e+00	1.032335e+00	1.024173e+00	1.009938e+00	9.940504e-01	9.790055e-01	9.657317e-01	9.544601e-01	9.449599e-01	9.369436e-01	9.300441e-01	9.238603e-01	9.181242e-01	9.125693e-01	9.070750e-01	9.015574e-01	8.960618e-01	8.906557e-01	8.854891e-01	8.806926e-01	8.764380e-01	8.728522e-01	8.700784e-01	8.682144e-01	8.673671e-01	8.675779e-01	8.688897e-01	8.713110e-01	8.748455e-01	8.794624e-01	8.851281e-01	8.917755e-01	8.993265e-01	9.077106e-01	9.168741e-01	9.268816e-01	9.377141e-01	9.490846e-01	9.603564e-01	9.714350e-01	9.834572e-01	9.986516e-01	1.017810e+00	1.037600e+00	1.052472e+00	1.059571e+00	1.059515e+00	1.054715e+00	1.046916e+00	1.037012e+00	1.025099e+00	1.011225e+00	9.955642e-01	9.782166e-01	9.591330e-01	9.382976e-01	9.156406e-01	8.910415e-01	8.642659e-01	8.351598e-01	8.035442e-01	7.689387e-01	7.308543e-01	6.885787e-01	6.409089e-01	5.861675e-01	5.220856e-01	4.447837e-01	3.497860e-01	2.342426e-01	9.492082e-02	5.411146e-02	1.731605e-01	2.933852e-01	4.637867e-01	6.388144e-01	7.672518e-01	8.591579e-01	9.224475e-01	9.635391e-01	9.905453e-01	1.008908e+00	1.021881e+00	1.031378e+00	1.038439e+00	1.043762e+00	1.047888e+00	1.050951e+00	1.052956e+00	1.054025e+00	1.054383e+00	1.054152e+00	1.053090e+00	1.050783e+00	1.046970e+00	1.041828e+00	1.035939e+00	1.029993e+00	1.024423e+00	1.019502e+00	1.015435e+00	1.012281e+00	1.009880e+00	1.008036e+00	1.006641e+00	1.005734e+00	1.005385e+00	1.005656e+00	1.006563e+00	1.008104e+00	1.010258e+00	1.013013e+00	1.016378e+00	1.020370e+00	1.024988e+00	1.030148e+00	1.035687e+00	1.041440e+00	1.047393e+00	1.053562e+00	1.059694e+00	1.064579e+00	1.065759e+00	1.060082e+00	1.045843e+00	1.025535e+00	1.005772e+00	9.913074e-01	9.811768e-01	9.719111e-01	9.607987e-01	9.471645e-01	9.318874e-01	9.160225e-01	9.000118e-01	8.839365e-01	8.679703e-01	8.524516e-01	8.376715e-01	8.238821e-01	8.112546e-01	7.998229e-01	7.895998e-01	7.804276e-01	7.720449e-01	7.641476e-01	7.563460e-01	7.481931e-01	7.392075e-01	7.287837e-01	7.161973e-01	7.005541e-01	6.810916e-01	6.574963e-01	6.305367e-01	6.023765e-01	5.765079e-01	5.570830e-01	5.481918e-01	5.530380e-01	5.729927e-01	6.067055e-01	6.495907e-01	6.923469e-01	7.228694e-01	7.311092e-01	7.152894e-01	6.819424e-01	6.411740e-01	5.988397e-01	5.554663e-01	5.095137e-01	4.599624e-01	