# vtk DataFile Version 3.0
vtk output
ASCII
DATASET UNSTRUCTURED_GRID
POINTS 5233 float
9.997500e-01	-3.633248e-05	0.0	9.990000e-01	-1.454755e-04	0.0	9.977600e-01	-3.275418e-04	0.0	9.960200e-01	-5.901118e-04	0.0	9.937800e-01	-9.477569e-04	0.0	9.910500e-01	-1.423905e-03	0.0	9.878400e-01	-2.049562e-03	0.0	9.841300e-01	-2.861425e-03	0.0	9.799500e-01	-3.871861e-03	0.0	9.752800e-01	-5.077651e-03	0.0	9.701500e-01	-6.430996e-03	0.0	9.645400e-01	-7.872121e-03	0.0	9.584700e-01	-9.324307e-03	0.0	9.519400e-01	-1.073120e-02	0.0	9.449600e-01	-1.206449e-02	0.0	9.375400e-01	-1.332890e-02	0.0	9.296900e-01	-1.455255e-02	0.0	9.214000e-01	-1.577471e-02	0.0	9.127000e-01	-1.702361e-02	0.0	9.035800e-01	-1.832096e-02	0.0	8.940600e-01	-1.967088e-02	0.0	8.841500e-01	-2.106893e-02	0.0	8.738500e-01	-2.250696e-02	0.0	8.631800e-01	-2.397291e-02	0.0	8.521600e-01	-2.545617e-02	0.0	8.407700e-01	-2.695368e-02	0.0	8.290500e-01	-2.845646e-02	0.0	8.170100e-01	-2.996098e-02	0.0	8.046400e-01	-3.146685e-02	0.0	7.919700e-01	-3.296891e-02	0.0	7.790100e-01	-3.446446e-02	0.0	7.657800e-01	-3.594945e-02	0.0	7.522800e-01	-3.742190e-02	0.0	7.385200e-01	-3.887854e-02	0.0	7.245300e-01	-4.031399e-02	0.0	7.103200e-01	-4.172505e-02	0.0	6.958900e-01	-4.310954e-02	0.0	6.812700e-01	-4.446248e-02	0.0	6.664700e-01	-4.578100e-02	0.0	6.515000e-01	-4.706234e-02	0.0	6.363800e-01	-4.830303e-02	0.0	6.211300e-01	-4.949987e-02	0.0	6.057600e-01	-5.065061e-02	0.0	5.902800e-01	-5.175311e-02	0.0	5.747100e-01	-5.280465e-02	0.0	5.590600e-01	-5.380333e-02	0.0	5.433600e-01	-5.474615e-02	0.0	5.276100e-01	-5.563208e-02	0.0	5.118400e-01	-5.645844e-02	0.0	4.960500e-01	-5.722424e-02	0.0	4.802700e-01	-5.792707e-02	0.0	4.645100e-01	-5.856555e-02	0.0	4.487800e-01	-5.913825e-02	0.0	4.331100e-01	-5.964309e-02	0.0	4.175000e-01	-6.007904e-02	0.0	4.019700e-01	-6.044436e-02	0.0	3.865400e-01	-6.073743e-02	0.0	3.712300e-01	-6.095672e-02	0.0	3.560400e-01	-6.110094e-02	0.0	3.409900e-01	-6.116851e-02	0.0	3.261100e-01	-6.115799e-02	0.0	3.114000e-01	-6.106805e-02	0.0	2.968700e-01	-6.089725e-02	0.0	2.825500e-01	-6.064450e-02	0.0	2.684500e-01	-6.030866e-02	0.0	2.545700e-01	-5.988827e-02	0.0	2.409400e-01	-5.938280e-02	0.0	2.275700e-01	-5.879139e-02	0.0	2.144700e-01	-5.811323e-02	0.0	2.016600e-01	-5.734825e-02	0.0	1.891400e-01	-5.649532e-02	0.0	1.769300e-01	-5.555475e-02	0.0	1.650400e-01	-5.452641e-02	0.0	1.534900e-01	-5.341135e-02	0.0	1.422900e-01	-5.221008e-02	0.0	1.314400e-01	-5.092206e-02	0.0	1.209500e-01	-4.954787e-02	0.0	1.108500e-01	-4.809126e-02	0.0	1.011300e-01	-4.655073e-02	0.0	9.181000e-02	-4.492928e-02	0.0	8.290000e-02	-4.322884e-02	0.0	7.440000e-02	-4.144946e-02	0.0	6.633000e-02	-3.959551e-02	0.0	5.869000e-02	-3.766733e-02	0.0	5.149000e-02	-3.566763e-02	0.0	4.474000e-02	-3.359956e-02	0.0	3.844000e-02	-3.146332e-02	0.0	3.260000e-02	-2.926230e-02	0.0	2.723000e-02	-2.700064e-02	0.0	2.232000e-02	-2.467358e-02	0.0	1.790000e-02	-2.229551e-02	0.0	1.395000e-02	-1.985568e-02	0.0	1.049000e-02	-1.736543e-02	0.0	7.520000e-03	-1.482553e-02	0.0	5.040000e-03	-1.223580e-02	0.0	3.050000e-03	-9.594112e-03	0.0	1.560000e-03	-6.914510e-03	0.0	5.600000e-04	-4.174111e-03	0.0	6.000000e-05	-1.376204e-03	0.0	0.000000e+00	0.000000e+00	0.0	6.000000e-05	1.269362e-03	0.0	5.600000e-04	3.626724e-03	0.0	1.560000e-03	5.752206e-03	0.0	3.050000e-03	7.692961e-03	0.0	5.040000e-03	9.491510e-03	0.0	7.520000e-03	1.115567e-02	0.0	1.049000e-02	1.270092e-02	0.0	1.395000e-02	1.413900e-02	0.0	1.790000e-02	1.547958e-02	0.0	2.232000e-02	1.672597e-02	0.0	2.723000e-02	1.789258e-02	0.0	3.260000e-02	1.898043e-02	0.0	3.844000e-02	1.999983e-02	0.0	4.474000e-02	2.095641e-02	0.0	5.149000e-02	2.185600e-02	0.0	5.869000e-02	2.270558e-02	0.0	6.633000e-02	2.351063e-02	0.0	7.440000e-02	2.427659e-02	0.0	8.290000e-02	2.500968e-02	0.0	9.181000e-02	2.571416e-02	0.0	1.011300e-01	2.639580e-02	0.0	1.108500e-01	2.705931e-02	0.0	1.209500e-01	2.770853e-02	0.0	1.314400e-01	2.834894e-02	0.0	1.422900e-01	2.898319e-02	0.0	1.534900e-01	2.961488e-02	0.0	1.650400e-01	3.024773e-02	0.0	1.769300e-01	3.088443e-02	0.0	1.891400e-01	3.152671e-02	0.0	2.016600e-01	3.217631e-02	0.0	2.144700e-01	3.283394e-02	0.0	2.275700e-01	3.350076e-02	0.0	2.409400e-01	3.417629e-02	0.0	2.545700e-01	3.485996e-02	0.0	2.684500e-01	3.555052e-02	0.0	2.825500e-01	3.624509e-02	0.0	2.968700e-01	3.694160e-02	0.0	3.114000e-01	3.763681e-02	0.0	3.261100e-01	3.832586e-02	0.0	3.409900e-01	3.900422e-02	0.0	3.560400e-01	3.966718e-02	0.0	3.712300e-01	4.030808e-02	0.0	3.865400e-01	4.092025e-02	0.0	4.019700e-01	4.149734e-02	0.0	4.175000e-01	4.203181e-02	0.0	4.331100e-01	4.251581e-02	0.0	4.487800e-01	4.294141e-02	0.0	4.645100e-01	4.330104e-02	0.0	4.802700e-01	4.358644e-02	0.0	4.960500e-01	4.378996e-02	0.0	5.118400e-01	4.390413e-02	0.0	5.276100e-01	4.392183e-02	0.0	5.433600e-01	4.383661e-02	0.0	5.590600e-01	4.364284e-02	0.0	5.747100e-01	4.333544e-02	0.0	5.902800e-01	4.291086e-02	0.0	6.057600e-01	4.236636e-02	0.0	6.211300e-01	4.170078e-02	0.0	6.363800e-01	4.091396e-02	0.0	6.515000e-01	4.000706e-02	0.0	6.664700e-01	3.898328e-02	0.0	6.812700e-01	3.784760e-02	0.0	6.958900e-01	3.660580e-02	0.0	7.103200e-01	3.526505e-02	0.0	7.245300e-01	3.383591e-02	0.0	7.385200e-01	3.232739e-02	0.0	7.522800e-01	3.075048e-02	0.0	7.657800e-01	2.911959e-02	0.0	7.790100e-01	2.744775e-02	0.0	7.919700e-01	2.574721e-02	0.0	8.046400e-01	2.403312e-02	0.0	8.170100e-01	2.231942e-02	0.0	8.290500e-01	2.062258e-02	0.0	8.407700e-01	1.895262e-02	0.0	8.521600e-01	1.732083e-02	0.0	8.631800e-01	1.574049e-02	0.0	8.738500e-01	1.421331e-02	0.0	8.841500e-01	1.274347e-02	0.0	8.940600e-01	1.133254e-02	0.0	9.035800e-01	9.978608e-03	0.0	9.127000e-01	8.683959e-03	0.0	9.214000e-01	7.459073e-03	0.0	9.296900e-01	6.319950e-03	0.0	9.375400e-01	5.297288e-03	0.0	9.449600e-01	4.419862e-03	0.0	9.519400e-01	3.712188e-03	0.0	9.584700e-01	3.179638e-03	0.0	9.645400e-01	2.800817e-03	0.0	9.701500e-01	2.529227e-03	0.0	9.752800e-01	2.307249e-03	0.0	9.799500e-01	2.081057e-03	0.0	9.841300e-01	1.819777e-03	0.0	9.878400e-01	1.516091e-03	0.0	9.910500e-01	1.188490e-03	0.0	9.937800e-01	8.623934e-04	0.0	9.960200e-01	5.664507e-04	0.0	9.977600e-01	3.231555e-04	0.0	9.990000e-01	1.450753e-04	0.0	9.997500e-01	3.632614e-05	0.0	1.000000e+00	0.000000e+00	0.0	1.984229e+01	2.506660e+00	0.0	1.937166e+01	4.973800e+00	0.0	1.859553e+01	7.362490e+00	0.0	1.752613e+01	9.635070e+00	0.0	1.618034e+01	1.175571e+01	0.0	1.457937e+01	1.369094e+01	0.0	1.274848e+01	1.541027e+01	0.0	1.071654e+01	1.688656e+01	0.0	8.515590e+00	1.809654e+01	0.0	6.180340e+00	1.902113e+01	0.0	3.747630e+00	1.964575e+01	0.0	1.255810e+00	1.996053e+01	0.0	-1.255810e+00	1.996053e+01	0.0	-3.747630e+00	1.964574e+01	0.0	-6.180340e+00	1.902113e+01	0.0	-8.515590e+00	1.809654e+01	0.0	-1.071654e+01	1.688656e+01	0.0	-1.274848e+01	1.541026e+01	0.0	-1.457937e+01	1.369094e+01	0.0	-1.618034e+01	1.175570e+01	0.0	-1.752613e+01	9.635070e+00	0.0	-1.859553e+01	7.362490e+00	0.0	-1.937166e+01	4.973800e+00	0.0	-1.984229e+01	2.506660e+00	0.0	-2.000000e+01	0.000000e+00	0.0	-1.984229e+01	-2.506670e+00	0.0	-1.937166e+01	-4.973800e+00	0.0	-1.859553e+01	-7.362490e+00	0.0	-1.752613e+01	-9.635080e+00	0.0	-1.618034e+01	-1.175571e+01	0.0	-1.457937e+01	-1.369094e+01	0.0	-1.274848e+01	-1.541027e+01	0.0	-1.071653e+01	-1.688656e+01	0.0	-8.515580e+00	-1.809654e+01	0.0	-6.180340e+00	-1.902113e+01	0.0	-3.747620e+00	-1.964575e+01	0.0	-1.255810e+00	-1.996053e+01	0.0	1.255810e+00	-1.996053e+01	0.0	3.747630e+00	-1.964574e+01	0.0	6.180340e+00	-1.902113e+01	0.0	8.515590e+00	-1.809654e+01	0.0	1.071654e+01	-1.688656e+01	0.0	1.274848e+01	-1.541026e+01	0.0	1.457937e+01	-1.369094e+01	0.0	1.618034e+01	-1.175570e+01	0.0	1.752614e+01	-9.635070e+00	0.0	1.859553e+01	-7.362490e+00	0.0	1.937166e+01	-4.973790e+00	0.0	1.984229e+01	-2.506660e+00	0.0	2.000000e+01	0.000000e+00	0.0	6.069297e-02	-4.554501e-02	0.0	6.602156e-01	-6.009967e-02	0.0	4.252892e-01	5.651016e-02	0.0	6.896800e-01	5.032735e-02	0.0	3.791348e-01	-7.488365e-02	0.0	9.994676e-01	-7.277032e-04	0.0	9.985546e-01	-1.331694e-03	0.0	7.738179e-01	-4.729049e-02	0.0	6.898810e-01	-5.714570e-02	0.0	-1.063701e-03	5.464997e-03	0.0	7.467893e-01	-5.071399e-02	0.0	5.830994e-01	5.709531e-02	0.0	9.928166e-01	-3.738241e-03	0.0	9.899368e-01	-4.747872e-03	0.0	5.986932e-01	5.651669e-02	0.0	7.187794e-01	-5.400470e-02	0.0	-1.443643e-03	6.001777e-04	0.0	9.865738e-01	-5.912824e-03	0.0	9.827345e-01	-7.236425e-03	0.0	-1.271922e-03	-6.411994e-03	0.0	6.451353e-01	-6.149927e-02	0.0	8.244806e-01	-4.019584e-02	0.0	7.997433e-01	-4.378317e-02	0.0	3.483100e-01	5.319994e-02	0.0	8.478993e-01	-3.658107e-02	0.0	2.474072e-01	4.721427e-02	0.0	8.699386e-01	-3.296052e-02	0.0	1.061804e-02	1.658163e-02	0.0	8.904922e-01	-2.938891e-02	0.0	7.696474e-02	-5.005950e-02	0.0	9.094881e-01	-2.591984e-02	0.0	-1.737787e-03	-3.169545e-03	0.0	9.424828e-01	-1.918852e-02	0.0	9.268460e-01	-2.255283e-02	0.0	1.793643e-02	-2.740914e-02	0.0	4.257652e-01	-7.415471e-02	0.0	8.591004e-01	-3.476618e-02	0.0	9.563372e-01	-1.569455e-02	0.0	9.784109e-01	-8.739972e-03	0.0	9.683324e-01	-1.210464e-02	0.0	1.581996e-01	-6.454001e-02	0.0	9.001918e-01	-2.763969e-02	0.0	7.604364e-01	-4.901597e-02	0.0	9.971362e-01	-2.087828e-03	0.0	5.990873e-01	-6.535163e-02	0.0	4.414711e-01	-7.374027e-02	0.0	5.363593e-01	-6.958222e-02	0.0	4.730484e-01	-7.266606e-02	0.0	5.047137e-01	-7.127582e-02	0.0	4.888693e-01	-7.200890e-02	0.0	1.248836e-01	-5.980674e-02	0.0	2.782033e-02	-3.294539e-02	0.0	3.945849e-01	-7.472875e-02	0.0	4.617860e-02	-4.072778e-02	0.0	4.101297e-01	-7.448590e-02	0.0	3.187058e-01	-7.460308e-02	0.0	3.486145e-01	-7.493017e-02	0.0	3.347811e-02	-3.559759e-02	0.0	2.894903e-01	-7.390334e-02	0.0	9.348843e-01	-2.087857e-02	0.0	1.467396e-01	-6.305515e-02	0.0	1.945881e-01	-6.839503e-02	0.0	8.573599e-02	-5.219031e-02	0.0	1.045230e-01	-5.619006e-02	0.0	5.678620e-01	-6.760910e-02	0.0	1.700042e-01	-6.592775e-02	0.0	6.145628e-01	-6.412493e-02	0.0	8.804096e-01	-3.116601e-02	0.0	2.265043e-02	-3.021420e-02	0.0	9.952222e-01	-2.871187e-03	0.0	6.744213e-03	-1.870474e-02	0.0	1.868576e-02	2.021113e-02	0.0	9.183754e-01	-2.422720e-02	0.0	9.49641
[...]
POINT_DATA 5233

SCALARS Conservative_1 float 1
LOOKUP_TABLE default
7.174786e-01	1.104931e-01	7.213250e-02	4.069802e-02	-9.341351e-04	-2.250197e-02	-3.233137e-02	-2.926671e-02	-1.229562e-02	1.781344e-02	5.809294e-02	1.027376e-01	1.431767e-01	1.709140e-01	1.815039e-01	1.775109e-01	1.663945e-01	1.552384e-01	1.484309e-01	1.467052e-01	1.495331e-01	1.554915e-01	1.631555e-01	1.715414e-01	1.798693e-01	1.879296e-01	1.956529e-01	2.031046e-01	2.105419e-01	2.180255e-01	2.256912e-01	2.335911e-01	2.416046e-01	2.497977e-01	2.580283e-01	2.663617e-01	2.747133e-01	2.832240e-01	2.917729e-01	3.004195e-01	3.090318e-01	3.177036e-01	3.263300e-01	3.349843e-01	3.435805e-01	3.521949e-01	3.607841e-01	3.692819e-01	3.773230e-01	3.842503e-01	3.896054e-01	3.939190e-01	3.988190e-01	4.059888e-01	4.155222e-01	4.253241e-01	4.339371e-01	4.423503e-01	4.529493e-01	4.672116e-01	4.856362e-01	5.082381e-01	5.354386e-01	5.674492e-01	6.025002e-01	6.345988e-01	6.530025e-01	6.460618e-01	6.088294e-01	5.493182e-01	4.868323e-01	4.410829e-01	4.199705e-01	4.157016e-01	4.132222e-01	4.024459e-01	3.831037e-01	3.602481e-01	3.372097e-01	3.141227e-01	2.897067e-01	2.633028e-01	2.348716e-01	2.043694e-01	1.715007e-01	1.359533e-01	9.733260e-02	5.528418e-02	9.333750e-03	-4.082893e-02	-9.561157e-02	-1.548230e-01	-2.184116e-01	-2.839387e-01	-3.491941e-01	-4.063539e-01	-4.509618e-01	-4.740367e-01	-4.620198e-01	-4.340806e-01	-3.996857e-01	-3.162474e-01	-1.696508e-01	-3.404647e-02	7.308129e-02	3.119661e-01	6.669727e-01	8.531304e-01	7.620066e-01	5.592995e-01	3.980323e-01	2.986323e-01	2.319718e-01	1.804218e-01	1.391752e-01	1.061575e-01	7.927265e-02	5.774623e-02	4.146249e-02	3.027293e-02	2.400952e-02	2.304181e-02	2.758537e-02	3.472605e-02	4.068639e-02	4.192535e-02	3.976719e-02	3.687202e-02	3.474857e-02	3.359071e-02	3.323406e-02	3.359522e-02	3.478563e-02	3.688182e-02	3.990400e-02	4.386507e-02	4.870107e-02	5.427531e-02	6.044577e-02	6.736193e-02	7.566323e-02	8.572112e-02	9.631028e-02	1.047629e-01	1.112421e-01	1.234123e-01	1.545723e-01	2.121502e-01	2.849426e-01	3.435697e-01	3.586005e-01	3.223760e-01	2.532200e-01	1.818836e-01	1.300323e-01	1.008408e-01	8.671843e-02	7.992244e-02	7.531084e-02	6.858341e-02	5.720127e-02	4.181691e-02	2.394557e-02	5.510012e-03	-1.331777e-02	-3.209283e-02	-5.104833e-02	-6.954612e-02	-8.776744e-02	-1.052947e-01	-1.224146e-01	-1.387356e-01	-1.545074e-01	-1.693280e-01	-1.835357e-01	-1.968829e-01	-2.096549e-01	-2.221311e-01	-2.346575e-01	-2.476547e-01	-2.615262e-01	-2.761715e-01	-2.913236e-01	-3.059295e-01	-3.191185e-01	-3.298716e-01	-3.379168e-01	-3.436354e-01	-3.485963e-01	-3.553577e-01	-3.672256e-01	-3.866691e-01	-4.147729e-01	-4.505665e-01	-4.932385e-01	-5.526168e-01	-5.983144e-01	-6.407699e-01	-1.260538e+00	-2.869817e-01	-4.063586e-04	-4.180791e-04	-4.298084e-04	-4.444197e-04	-4.648394e-04	-4.841648e-04	-5.072922e-04	-5.150214e-04	-4.968200e-04	-4.963011e-04	-5.092771e-04	-5.045035e-04	-4.916978e-04	-4.280608e-04	-3.633741e-04	-3.321243e-04	-2.942987e-04	-2.710417e-04	-2.396673e-04	-1.846210e-04	-1.303544e-04	-7.833769e-05	2.527701e-04	6.421770e-05	-5.662040e-04	1.859570e-04	5.938033e-04	5.045922e-04	3.888558e-04	4.734336e-04	5.511480e-04	6.382047e-04	7.169601e-04	7.752658e-04	8.103418e-04	7.836481e-04	6.381502e-04	4.240494e-04	1.534643e-04	2.870086e-06	-9.919169e-05	-1.963713e-04	-2.600414e-04	-3.087020e-04	-3.377446e-04	-3.571965e-04	-3.712668e-04	-3.824753e-04	-3.871687e-04	-3.987467e-04	1.779286e-01	2.560086e-01	1.409789e-01	6.203453e-02	3.907972e-01	3.467751e-01	1.236449e-01	1.900883e-01	2.390186e-01	-2.862966e-01	2.060344e-01	1.454526e-01	-2.716095e-02	-4.200830e-02	1.259258e-01	2.223994e-01	-4.062343e-01	-4.613594e-02	-3.933591e-02	-4.482723e-01	2.645490e-01	1.596633e-01	1.746865e-01	9.437287e-02	1.443049e-01	5.570998e-02	1.283754e-01	5.879827e-01	1.143897e-01	2.346842e-01	1.083565e-01	-4.559979e-01	1.221642e-01	1.148339e-01	-1.020539e-01	3.669156e-01	1.363305e-01	9.686514e-02	-2.232359e-02	3.540251e-02	3.750662e-01	1.099549e-01	1.979782e-01	5.227256e-02	2.902552e-01	3.614408e-01	3.243874e-01	3.528088e-01	3.406444e-01	3.474328e-01	3.507404e-01	-6.511771e-03	3.821214e-01	1.124162e-01	3.740056e-01	4.517133e-01	4.140540e-01	3.628439e-02	5.067442e-01	1.203149e-01	3.737429e-01	4.696842e-01	2.599936e-01	3.060666e-01	3.073629e-01	3.844699e-01	2.816782e-01	1.208206e-01	-5.261461e-02	2.211410e-03	-2.668154e-01	5.879920e-01	1.101752e-01	1.152961e-01	3.561564e-03	-1.746587e-01	1.520721e-01	6.010656e-01	3.158797e-01	2.141838e-01	1.823197e-01	3.289168e-01	5.834993e-01	2.988094e-01	2.474695e-01	1.463503e-01	-3.231566e-01	-1.547886e-01	4.009787e-01	4.155231e-01	5.766804e-01	6.068671e-01	2.834517e-01	4.768757e-01	5.750600e-01	3.571339e-01	2.306486e-01	-3.645281e-01	-4.170342e-01	3.176456e-01	-4.337903e-01	3.155173e-01	1.224222e-01	1.943513e-01	4.562381e-02	1.330490e-01	-5.499781e-01	3.715889e-01	2.702470e-01	-3.030595e-01	-2.946050e-01	-1.917903e-01	3.399938e-01	1.602997e-01	1.148914e-01	-2.439785e-01	-2.169054e-01	6.147730e-02	-3.102517e-01	-2.888257e-01	-2.699929e-01	4.385231e-02	9.730042e-02	6.765471e-02	5.879947e-02	5.346867e-02	7.966519e-02	2.034554e-01	1.253584e-01	5.530029e-02	5.066218e-02	1.080460e-01	5.145541e-02	5.206669e-02	9.083956e-02	1.837697e-01	-1.017036e-02	2.644882e-02	-8.035116e-02	-4.617020e-02	-1.411238e-01	-1.121732e-01	-2.041317e-01	-1.673052e-01	-2.806362e-01	-2.302829e-01	-2.987654e-01	-1.545361e-01	-1.796319e-01	-9.663048e-02	-1.270642e-01	-2.838483e-02	-6.355808e-02	4.450726e-02	8.116554e-03	1.004925e-01	7.784410e-02	2.454806e-01	1.155115e-01	5.140897e-02	5.348115e-02	5.479261e-02	5.216909e-02	1.540157e-01	5.394385e-02	7.000705e-01	2.455348e-01	5.327425e-01	1.737970e-03	6.846839e-02	1.671762e-01	4.308896e-01	3.327690e-01	-9.100048e-02	4.273964e-01	2.644211e-01	5.035938e-02	7.712377e-02	6.277830e-02	4.241173e-02	-3.233770e-01	-3.446535e-01	7.334816e-02	-3.756953e-01	-4.164107e-01	8.654351e-02	1.038757e-01	-2.575319e-01	-1.178731e+00	-6.543818e-01	-9.154563e-01	2.731219e-01	7.584213e-02	-4.719545e-01	3.808432e-01	-3.744711e-01	-2.102340e-01	2.073076e-01	3.670018e-01	5.407426e-01	8.046134e-02	-2.717926e-01	-3.376415e-01	4.803587e-01	1.998835e-01	7.718201e-02	-2.521750e-01	1.869531e-01	2.080500e-01	1.524717e-01	-5.481429e-02	3.982420e-01	1.078302e-01	1.227881e-01	2.305603e-01	-4.129347e-01	5.140435e-01	-1.548711e-01	4.027540e-02	3.328760e-01	1.917987e-01	2.246601e-01	3.226683e-01	2.064158e-01	3.412861e-01	8.165348e-02	1.449498e-01	2.361832e-01	4.524754e-01	1.056002e-01	-1.072472e-01	6.460773e-02	9.150580e-02	6.832316e-02	-1.459366e-01	-3.237746e-01	1.114855e-01	3.985260e-01	-2.505508e-01	-1.580869e-01	-3.555537e-01	-2.570364e-01	-2.832530e-01	7.313448e-02	1.038991e-01	7.078076e-02	6.259327e-02	2.163475e-01	4.563356e-01	4.852309e-01	6.837228e-02	1.374323e-01	-2.667051e-01	-3.956036e-01	-1.701486e-01	3.369922e-01	-4.987422e-01	-5.131351e-01	-4.473795e-01	-1.566579e-02	-1.895293e-01	-3.004096e-01	-4.292661e-01	-4.093052e-01	-1.079819e-01	-1.127177e-01	1.523349e-01	2.478136e-02	-3.407977e-02	1.583052e-01	2.831081e-01	-5.331422e-02	9.320638e-02	1.607312e-01	-4.868319e-02	-4.358112e-01	3.254513e-01	1.509064e-01	1.153115e-01	8.498856e-02	1.003340e-01	8.679443e-02	1.803246e-01	7.841085e-02	7.793288e-02	7.271479e-02	-2.100902e-02	5.984643e-02	1.659107e-02	-4.430528e-02	3.170794e-01	1.679144e-01	1.600938e-01	-1.050971e-02	3.190723e-01	3.139058e-01	3.072146e-01	-6.341992e-02	3.337725e-01	3.287016e-01	3.794065e-01	5.551351e-02	7.912683e-02	7.845570e-02	3.290191e-01	2.533111e-01	2.747740e-01	2.497203e-01	-7.398451e-03	-2.852869e-02	1.838313e-01	1.758605e-01	2.757190e-01	2.979103e-01	2.664468e-01	2.580680e-01	8.992855e-02	1.222694e-01	-2.034893e-01	3.639122e-01	3.513413e-01	3.557138e-01	3.974979e-01	5.516893e-01	5.606241e-01	4.485101e-01	4.211451e-01	5.446571e-01	-3.821109e-01	-3.443720e-01	1.690142e-01	-2.995136e-01	3.651098e-01	3.842153e-01	3.289710e-01	2.592304e-01	-2.729393e-01	-2.620486e-01	-2.076743e-01	2.027141e-01	1.712280e-01	1.417149e-01	-1.949475e-01	-2.420631e-01	9.481273e-02	1.134229e-01	7.624259e-02	8.018419e-02	6.839894e-02	6.825931e-02	6.717997e-02	-4.673353e-02	2.223781e-02	4.019729e-02	-3.009786e-02	-9.310147e-02	-1.824572e-01	-1.335223e-01	-1.206456e-01	-7.833061e-02	-6.273780e-02	-1.307607e-02	4.488959e-03	5.793254e-02	7.537291e-02	1.170198e-01	1.268342e-01	2.350500e-01	3.015992e-01	1.362170e-01	1.465486e-01	6.917547e-02	6.827269e-02	6.795133e-02	6.807783e-02	5.440136e-01	2.103254e-01	2.642725e-01	1.375324e-01	1.301908e-01	2.995406e-01	2.913906e-01	-1.254784e-01	3.420826e-01	6.413507e-02	7.012676e-02	9.699968e-02	9.063857e-02	1.307727e-01	1.203203e-01	-2.318149e-01	-2.200890e-01	2.413547e-01	2.330203e-01	1.866991e-02	-3.822261e-01	5.144365e-01	-4.058452e-01	3.021321e-01	4.270166e-01	1.287535e-01	2.602566e-01	6.021722e-02	-3.234776e-01	-2.999746e-01	-2.461658e-01	-1.308747e-01	-3.500674e-01	-6.325880e-01	-6.338591e-01	-3.072078e-02	-2.850190e-01	-1.132328e-01	-3.698012e-01	2.011161e-01	5.899682e-02	-5.868473e-02	2.167908e-01	1.072793e-01	-2.814973e-01	1.736122e-01	-3.533590e-01	1.660208e-01	-1.545710e-01	8.012782e-02	-2.399282e-01	3.535505e-01	8.679108e-02	1.812792e-01	-5.528906e-02	-1.973482e-01	-2.688407e-01	3.836993e-01	-2.320123e-01	1.163762e-01	-3.882278e-01	3.977531e-01	9.748059e-02	1.225361e-01	8.030893e-02	9.725340e-02	-6.730648e-01	-3.794217e-01	-2.685078e-01	4.049793e-01	-3.237724e-01	9.626676e-03	1.780195e-01	-4.012854e-01	2.963256e-01	2.933307e-01	-7.294499e-02	1.873834e-01	-9.093334e-02	-3.107260e-02	1.033056e-01	-2.819714e-01	-2.396210e-01	-1.542651e-01	-1.421907e-01	1.153815e-01	1.027415e-01	8.648524e-02	8.251491e-02	1.969836e-01	1.891247e-01	4.408426e-01	3.605126e-01	7.996946e-02	-2.593564e-01	-4.297004e-01	-1.226836e-02	-2.009116e-01	-3.199035e-01	-4.142588e-01	-3.424948e-02	6.959016e-02	1.229746e-01	-9.165678e-03	-5.788148e-02	1.812386e-01	2.953433e-01	1.687492e-01	1.008415e-01	9.368294e-02	7.403198e-02	6.880367e-02	1.268823e-01	1.532954e-01	6.467780e-02	6.209052e-02	4.159303e-02	2.721305e-02	-5.223061e-02	1.435174e-01	1.360665e-01	-4.552426e-02	2.893756e-01	2.832439e-01	2.979729e-01	2.963819e-01	1.847499e-03	5.673473e-02	5.134996e-02	2.820560e-01	2.912788e-01	2.524130e-01	2.444796e-01	-2.686394e-02	-4.170360e-02	1.586719e-01	1.511457e-01	2.234103e-01	2.454955e-01	2.661435e-01	2.365894e-01	2.286309e-01	3.580358e-02	6.819119e-02	9.872605e-02	3.365861e-01	3.220719e-01	3.103008e-01	3.072896e-01	3.359156e-01	3.841652e-01	4.882869e-01	5.123640e-01	3.982255e-01	3.738818e-01	5.104470e-01	1.531770e-01	3.679716e-01	3.085169e-01	-2.523632e-01	2.456654e-01	2.011953e-01	1.790098e-01	1.602552e-01	-1.900848e-01	1.101118e-01	1.281579e-01	9.303227e-02	8.940827e-02	8.043207e-02	8.181842e-02	8.302673e-02	3.691772e-02	-1.782218e-01	-1.661623e-01	-1.300142e-01	-1.174595e-01	-1.045210e-01	-7.694519e-02	-6.192076e-02	-4.654337e-02	-1.456969e-02	2.133454e-03	1.954041e-02	5.453450e-02	7.166990e-02	8.830728e-02	1.276352e-01	2.728481e-01	3.348374e-01	1.380780e-01	1.491522e-01	1.618573e-01	8.426239e-02	8.268983e-02	8.168616e-02	8.112724e-02	8.071520e-02	1.868890e-01	2.300490e-01	1.217088e-01	1.147197e-01	1.078177e-01	2.759421e-01	2.681410e-01	2.853829e-01	3.538799e-01	8.169741e-02	8.314093e-02	8.832016e-02	1.087575e-01	1.503547e-01	1.399112e-01	1.305481e-01	-2.231550e-01	-2.129702e-01	-2.019502e-01	2.207463e-01	2.128080e-01	2.049235e-01	4.892939e-01	4.586967e-01	-3.693177e-01	1.735297e-01	-3.699795e-01	-2.697709e-01	2.416395e-01	-3.468368e-01	-2.212496e-02	4.818629e-02	4.446564e-02	-4.617482e-02	-3.212964e-01	3.764547e-01	-3.465893e-01	2.536859e-01	-2.622176e-01	-2.360546e-01	-3.435294e-01	-2.563794e-01	1.159641e-01	-1.942402e-01	-3.855326e-01	-1.669142e-01	1.163276e-01	2.683435e-01	-1.166896e-01	2.778561e-01	1.512618e-01	2.760302e-01	3.846871e-01	-2.833804e-01	2.374832e-01	-2.288974e-01	-2.210914e-01	-2.745230e-02	8.872715e-02	1.036409e-01	-6.406703e-02	1.102806e-01	7.568494e-02	-4.546162e-01	-3.005160e-01	-6.293319e-02	-2.625999e-02	-1.529626e-01	1.664557e-01	-2.953417e-01	1.584054e-01	1.521675e-01	-1.896409e-01	-6.572044e-02	-2.268451e-01	-8.511481e-02	3.843530e-01	1.194303e-01	-3.064857e-01	1.280893e-01	1.011533e-01	-1.474869e-01	1.259058e-01	1.134743e-01	1.081966e-01	1.815438e-01	1.732174e-01	-2.587939e-01	-1.860226e-02	-1.228895e-01	-3.246443e-01	-3.930814e-01	-8.037125e-02	-1.103961e-02	-5.942828e-02	1.884695e-01	8.902106e-02	8.208381e-02	6.939428e-02	6.389283e-02	1.026751e-01	1.276696e-01	5.902975e-02	5.544071e-02	5.207233e-02	1.861426e-02	4.379252e-03	1.307043e-01	1.227494e-01	-6.600598e-02	2.738615e-01	2.693346e-01	2.768634e-01	2.766966e-01	3.882252e-02	3.027802e-02	2.492178e-01	2.588471e-01	2.331605e-01	-4.008040e-02	-5.139619e-02	1.451443e-01	1.370652e-01	1.953303e-01	2.169242e-01	2.357240e-01	2.266550e-01	2.182260e-01	-1.394603e-02	1.745865e-02	4.799695e-02	7.628575e-02	3.201429e-01	3.047440e-01	2.917938e-01	2.825405e-01	2.872165e-01	3.231326e-01	3.725437e-01	4.220417e-01	4.581962e-01	3.381738e-01	3.593957e-01	4.712118e-01	3.374356e-01	-2.501588e-01	-2.429207e-01	2.791143e-01	2.263414e-01	1.936569e-01	1.774043e-01	1.675751e-01	1.233354e-01	1.433486e-01	9.987630e-02	9.677993e-02	8.885325e-02	9.033957e-02	9.330803e-02	9.624874e-02	-1.812740e-01	-1.701975e-01	-1.589540e-01	-1.358265e-01	-1.237676e-01	-1.114539e-01	-9.803955e-02	-7.238551e-02	-5.601003e-02	-4.171011e-02	-1.018991e-02	5.104937e-03	2.344913e-02	3.872120e-02	5.733877e-02	7.169345e-02	8.947089e-02	3.431270e-01	2.943706e-01	1.245129e-01	1.376386e-01	1.476123e-01	1.653077e-01	9.434688e-02	9.250243e-02	9.122146e-02	9.038180e-02	8.975667e-02	8.920461e-02	1.711194e-01	2.053974e-01	1.093070e-01	1.022273e-01	9.584354e-02	2.624591e-01	2.567399e-01	2.480588e-01	2.437437e-01	2.813426e-01	2.990759e-01	9.738915e-02	9.740245e-02	9.863907e-02	1.026132e-01	1.588763e-01	1.496775e-01	1.406711e-01	1.328831e-01	-1.922201e-01	-2.121507e-01	-2.026880e-01	2.116336e-01	2.032876e-01	1.966244e-01	1.883050e-01	4.631118e-01	4.410520e-01	4.125992e-01	-1.822939e-01	-3.413611e-01	-2.876187e-02	-5.545951e-01	-2.142535e-01	1.452402e-01	1.497100e-01	-2.446700e-01	-2.557708e-01	-2.988102e-01	-8.687055e-02	2.484174e-01	9.365722e-02	7.640554e-02	-1.842660e-01	-3.290145e-01	-3.871503e-01	-3.960779e-01	-3.718175e-01	-3.189062e-01	-7.541858e-02	1.235967e-01	-4.107505e-02	-7.416525e-02	2.788939e-02	1.099270e-01	2.642615e-01	-3.099183e-01	-1.831767e-01	-2.089910e-01	2.738429e-01	3.447446e-01	1.007830e-01	-1.752830e-02	3.411511e-01	2.317976e-01	1.303158e-01	-2.949433e-01	1.281421e-01	-5.175745e-01	-2.669658e-01	-3.884226e-01	-5.812445e-03	-1.025005e-03	3.533154e-02	-5.738704e-02	-3.355981e-01	1.697768e-01	-2.730247e-01	-2.241915e-01	-2.418712e-01	-3.491691e-01	-2.107184e-01	-1.512406e-01	3.323589e-01	3.530487e-01	-2.796080e-01	1.960572e-01	-2.170300e-01	-6.900389e-02	1.585833e-01	-2.892774e-01	1.181528e-01	1.126170e-01	1.084287e-01	1.734651e-01	-3.112662e-02	-1.171601e-01	-3.609827e-01	-1.188493e-01	7.827888e-02	7.311308e-02	6.557329e-02	6.035988e-02	1.052187e-01	8.098508e-02	5.364025e-02	5.010601e-02	4.506324e-02	3.890110e-02	-2.813259e-03	-1.573276e-02	1.231043e-01	-7.839203e-02	2.643331e-01	2.602920e-01	2.655778e-01	2.640624e-01	1.920237e-02	9.146236e-03	2.227365e-01	2.365937e-01	-5.217355e-02	-6.153598e-02	1.337969e-01	1.730509e-01	1.970947e-01	2.089830e-01	2.172881e-01	-2.829738e-02	1.119061e-03	2.939433e-02	5.589782e-02	3.121330e-01	2.970131e-01	2.822561e-01	2.729194e-01	2.662428e-01	2.769824e-01	3.149265e-01	3.662572e-01	4.026059e-01	4.347626e-01	-2.463918e-01	-2.384105e-01	-2.312264e-01	3.025191e-01	2.474926e-01	2.045259e-01	1.797609e-01	1.669774e-01	1.193131e-01	1.348781e-01	1.044367e-01	1.015713e-01	9.446900e-02	9.692560e-02	1.012931e-01	-1.721304e-01	-1.624237e-01	-1.510896e-01	-1.407320e-01	-1.289364e-01	-1.177407e-01	-1.051707e-01	-8.697046e-02	-6.726367e-02	-4.565374e-02	1.395336e-02	4.547950e-02	7.533695e-02	1.229934e-01	1.514582e-01	9.894777e-02	9.720211e-02	9.576427e-02	9.496066e-02	9.427973e-02	9.385400e-02	9.356054e-02	1.571397e-01	1.829943e-01	9.844940e-02	9.291443e-02	8.597676e-02	2.544639e-01	2.455732e-01	2.068792e-01	2.213464e-01	2.154444e-01	1.054608e-01	1.073938e-01	1.073854e-01	1.075166e-01	1.106524e-01	1.579761e-01	1.520459e-01	1.440073e-01	1.361315e-01	-2.005465e-01	-1.915016e-01	2.027981e-01	1.882590e-01	4.336723e-01	4.277310e-01	4.021330e-01	3.795387e-01	1.155174e-02	-5.112666e-01	-2.282641e-01	-3.513895e-01	-1.409392e-01	-5.427392e-02	-2.725540e-01	-2.702884e-01	-2.186370e-01	-8.207536e-02	-7.258718e-02	-3.241863e-01	-9.244471e-02	-2.021830e-01	1.273728e-01	-4.101269e-01	-4.397421e-02	-2.263826e-01	-1.754847e-01	-4.380502e-02	2.274790e-01	-2.605221e-01	3.201826e-01	1.016079e-02	2.220950e-02	1.851700e-01	1.323562e-01	2.532508e-01	-2.932881e-01	2.547210e-01	8.659462e-02	1.083761e-01	9.616841e-02	-2.410387e-01	-1.757764e-01	-3.081428e-01	3.496880e-02	-3.263670e-02	-5.123469e-01	-2.501103e-01	-3.838958e-01	-3.057079e-01	-8.014489e-02	1.302298e-01	3.208338e-01	2.838260e-01	-2.854964e-01	-2.721859e-01	-3.441997e-01	-3.751916e-01	-2.431775e-02	-6.650671e-02	-2.746031e-01	-2.524549e-01	2.139887e-01	-1.197620e-01	-2.117316e-01	-2.041926e-01	2.855061e-01	1.161433e-01	1.069986e-01	1.420611e-01	-1.134205e-01	-1.737497e-01	-1.486686e-01	6.417058e-02	5.177939e-02	6.282636e-02	4.092814e-02	3.106290e-02	-2.130121e-02	-8.643174e-02	2.530090e-01	1.838613e-04	-1.009543e-02	2.107556e-01	-6.387182e-02	1.191065e-01	1.070681e-01	1.669550e-01	1.879455e-01	2.136945e-01	-3.953376e-02	-1.115537e-02	1.723557e-02	3.794592e-02	2.856764e-01	2.637954e-01	2.546411e-01	3.297845e-01	3.923318e-01	-2.330178e-01	-2.256950e-01	2.049219e-01	1.603872e-01	1.235685e-01	1.007898e-01	9.979792e-02	-5.798497e-02	-1.571624e-01	-1.365765e-01	-1.152599e-01	-9.527881e-02	-7.697846e-02	-3.533932e-02	-7.793785e-03	2.160092e-02	5.036252e-02	7.646019e-02	9.884203e-02	1.218275e-01	1.559970e-01	9.697065e-02	9.504884e-02	9.444059e-02	9.479021e-02	9.471888e-02	1.411507e-01	1.588754e-01	9.476853e-02	8.450767e-02	7.386653e-02	2.470781e-01	2.389974e-01	1.706023e-01	1.692315e-01	1.488172e-01	1.046839e-01	1.049697e-01	1.093545e-01	1.104943e-01	1.088594e-01	1.085789e-01	1.138475e-01	1.457716e-01	1.366527e-01	-1.976245e-01	-1.884317e-01	1.994317e-01	1.706953e-01	1.559353e-01	3.975243e-01	3.624818e-01	-2.936936e-01	-2.885997e-02	-2.791156e-02	-3.653851e-01	-7.352600e-03	-2.670156e-01	-3.266564e-01	-8.915447e-02	-2.338115e-01	-1.689134e-01	-7.555414e-02	-9.191085e-02	-1.117565e-01	-2.871890e-01	-2.906748e-01	-2.196087e-01	1.153764e-01	1.287653e-01	-3.224168e-01	2.609586e-02	-1.195429e-01	1.082313e-01	-5.622110e-02	-2.132676e-01	2.426005e-01	-6.687593e-03	1.677301e-01	2.094759e-01	-5.705067e-02	-6.661950e-02	-9.635427e-02	-7.250225e-02	-4.509404e-01	-2.435446e-01	-2.532855e-01	-2.062313e-01	1.085354e-01	1.693815e-01	1.393815e-01	5.095457e-02	-4.582690e-01	-4.720636e-01	-3.651114e-01	-4.704813e-02	-2.129118e-01	-2.080296e-01	-7.531666e-02	-2.515481e-01	-1.911933e-01	2.218840e-01	-2.798338e-01	6.892759e-02	9.217575e-02	-2.345573e-01	-3.315654e-01	-3.681934e-02	-8.438050e-02	1.267376e-01	-3.493875e-01	-8.191087e-02	2.435987e-02	-2.689697e-01	-2.522120e-01	2.808004e-01	-1.449757e-01	-1.991040e-01	2.286818e-01	1.187106e-01	1.275679e-01	-1.637091e-01	-2.108874e-01	4.888987e-02	3.694688e-02	1.543474e-02	4.107519e-03	-9.141041e-02	2.412834e-01	-1.641364e-02	-2.652966e-02	2.469967e-01	8.022735e-02	7.019378e-02	1.040111e-01	1.212267e-01	1.503744e-01	1.710464e-01	-4.564490e-02	2.879207e-01	2.609939e-01	1.995173e-01	2.562974e-01	1.533941e-01	-2.267348e-01	2.863807e-01	2.358486e-01	9.510231e-02	-1.601074e-01	-1.420992e-01	-6.790781e-02	-1.226364e-01	-1.035172e-01	-8.549148e-02	-4.847576e-02	-2.510500e-02	1.474481e-03	2.894018e-02	5.512432e-02	7.864591e-02	1.008387e-01	1.010254e-01	9.623230e-02	9.350502e-02	9.249026e-02	9.279136e-02	9.325860e-02	1.204360e-01	1.317556e-01	9.189330e-02	6.020839e-02	2.381265e-01	2.316451e-01	1.338453e-01	1.230172e-01	9.636656e-02	5.529642e-02	2.321306e-03	9.881991e-02	1.036473e-01	1.062680e-01	1.046699e-01	1.026927e-01	1.757644e-01	1.4578