# vtk DataFile Version 3.0
vtk output
ASCII
DATASET UNSTRUCTURED_GRID
POINTS 200 float
9.997500e-01	-3.633248e-05	0.0	9.990000e-01	-1.454755e-04	0.0	9.977600e-01	-3.275418e-04	0.0	9.960200e-01	-5.901118e-04	0.0	9.937800e-01	-9.477569e-04	0.0	9.910500e-01	-1.423905e-03	0.0	9.878400e-01	-2.049562e-03	0.0	9.841300e-01	-2.861425e-03	0.0	9.799500e-01	-3.871861e-03	0.0	9.752800e-01	-5.077651e-03	0.0	9.701500e-01	-6.430996e-03	0.0	9.645400e-01	-7.872121e-03	0.0	9.584700e-01	-9.324307e-03	0.0	9.519400e-01	-1.073120e-02	0.0	9.449600e-01	-1.206449e-02	0.0	9.375400e-01	-1.332890e-02	0.0	9.296900e-01	-1.455255e-02	0.0	9.214000e-01	-1.577471e-02	0.0	9.127000e-01	-1.702361e-02	0.0	9.035800e-01	-1.832096e-02	0.0	8.940600e-01	-1.967088e-02	0.0	8.841500e-01	-2.106893e-02	0.0	8.738500e-01	-2.250696e-02	0.0	8.631800e-01	-2.397291e-02	0.0	8.521600e-01	-2.545617e-02	0.0	8.407700e-01	-2.695368e-02	0.0	8.290500e-01	-2.845646e-02	0.0	8.170100e-01	-2.996098e-02	0.0	8.046400e-01	-3.146685e-02	0.0	7.919700e-01	-3.296891e-02	0.0	7.790100e-01	-3.446446e-02	0.0	7.657800e-01	-3.594945e-02	0.0	7.522800e-01	-3.742190e-02	0.0	7.385200e-01	-3.887854e-02	0.0	7.245300e-01	-4.031399e-02	0.0	7.103200e-01	-4.172505e-02	0.0	6.958900e-01	-4.310954e-02	0.0	6.812700e-01	-4.446248e-02	0.0	6.664700e-01	-4.578100e-02	0.0	6.515000e-01	-4.706234e-02	0.0	6.363800e-01	-4.830303e-02	0.0	6.211300e-01	-4.949987e-02	0.0	6.057600e-01	-5.065061e-02	0.0	5.902800e-01	-5.175311e-02	0.0	5.747100e-01	-5.280465e-02	0.0	5.590600e-01	-5.380333e-02	0.0	5.433600e-01	-5.474615e-02	0.0	5.276100e-01	-5.563208e-02	0.0	5.118400e-01	-5.645844e-02	0.0	4.960500e-01	-5.722424e-02	0.0	4.802700e-01	-5.792707e-02	0.0	4.645100e-01	-5.856555e-02	0.0	4.487800e-01	-5.913825e-02	0.0	4.331100e-01	-5.964309e-02	0.0	4.175000e-01	-6.007904e-02	0.0	4.019700e-01	-6.044436e-02	0.0	3.865400e-01	-6.073743e-02	0.0	3.712300e-01	-6.095672e-02	0.0	3.560400e-01	-6.110094e-02	0.0	3.409900e-01	-6.116851e-02	0.0	3.261100e-01	-6.115799e-02	0.0	3.114000e-01	-6.106805e-02	0.0	2.968700e-01	-6.089725e-02	0.0	2.825500e-01	-6.064450e-02	0.0	2.684500e-01	-6.030866e-02	0.0	2.545700e-01	-5.988827e-02	0.0	2.409400e-01	-5.938280e-02	0.0	2.275700e-01	-5.879139e-02	0.0	2.144700e-01	-5.811323e-02	0.0	2.016600e-01	-5.734825e-02	0.0	1.891400e-01	-5.649532e-02	0.0	1.769300e-01	-5.555475e-02	0.0	1.650400e-01	-5.452641e-02	0.0	1.534900e-01	-5.341135e-02	0.0	1.422900e-01	-5.221008e-02	0.0	1.314400e-01	-5.092206e-02	0.0	1.209500e-01	-4.954787e-02	0.0	1.108500e-01	-4.809126e-02	0.0	1.011300e-01	-4.655073e-02	0.0	9.181000e-02	-4.492928e-02	0.0	8.290000e-02	-4.322884e-02	0.0	7.440000e-02	-4.144946e-02	0.0	6.633000e-02	-3.959551e-02	0.0	5.869000e-02	-3.766733e-02	0.0	5.149000e-02	-3.566763e-02	0.0	4.474000e-02	-3.359956e-02	0.0	3.844000e-02	-3.146332e-02	0.0	3.260000e-02	-2.926230e-02	0.0	2.723000e-02	-2.700064e-02	0.0	2.232000e-02	-2.467358e-02	0.0	1.790000e-02	-2.229551e-02	0.0	1.395000e-02	-1.985568e-02	0.0	1.049000e-02	-1.736543e-02	0.0	7.520000e-03	-1.482553e-02	0.0	5.040000e-03	-1.223580e-02	0.0	3.050000e-03	-9.594112e-03	0.0	1.560000e-03	-6.914510e-03	0.0	5.600000e-04	-4.174111e-03	0.0	6.000000e-05	-1.376204e-03	0.0	0.000000e+00	0.000000e+00	0.0	6.000000e-05	1.269362e-03	0.0	5.600000e-04	3.626724e-03	0.0	1.560000e-03	5.752206e-03	0.0	3.050000e-03	7.692961e-03	0.0	5.040000e-03	9.491510e-03	0.0	7.520000e-03	1.115567e-02	0.0	1.049000e-02	1.270092e-02	0.0	1.395000e-02	1.413900e-02	0.0	1.790000e-02	1.547958e-02	0.0	2.232000e-02	1.672597e-02	0.0	2.723000e-02	1.789258e-02	0.0	3.260000e-02	1.898043e-02	0.0	3.844000e-02	1.999983e-02	0.0	4.474000e-02	2.095641e-02	0.0	5.149000e-02	2.185600e-02	0.0	5.869000e-02	2.270558e-02	0.0	6.633000e-02	2.351063e-02	0.0	7.440000e-02	2.427659e-02	0.0	8.290000e-02	2.500968e-02	0.0	9.181000e-02	2.571416e-02	0.0	1.011300e-01	2.639580e-02	0.0	1.108500e-01	2.705931e-02	0.0	1.209500e-01	2.770853e-02	0.0	1.314400e-01	2.834894e-02	0.0	1.422900e-01	2.898319e-02	0.0	1.534900e-01	2.961488e-02	0.0	1.650400e-01	3.024773e-02	0.0	1.769300e-01	3.088443e-02	0.0	1.891400e-01	3.152671e-02	0.0	2.016600e-01	3.217631e-02	0.0	2.144700e-01	3.283394e-02	0.0	2.275700e-01	3.350076e-02	0.0	2.409400e-01	3.417629e-02	0.0	2.545700e-01	3.485996e-02	0.0	2.684500e-01	3.555052e-02	0.0	2.825500e-01	3.624509e-02	0.0	2.968700e-01	3.694160e-02	0.0	3.114000e-01	3.763681e-02	0.0	3.261100e-01	3.832586e-02	0.0	3.409900e-01	3.900422e-02	0.0	3.560400e-01	3.966718e-02	0.0	3.712300e-01	4.030808e-02	0.0	3.865400e-01	4.092025e-02	0.0	4.019700e-01	4.149734e-02	0.0	4.175000e-01	4.203181e-02	0.0	4.331100e-01	4.251581e-02	0.0	4.487800e-01	4.294141e-02	0.0	4.645100e-01	4.330104e-02	0.0	4.802700e-01	4.358644e-02	0.0	4.960500e-01	4.378996e-02	0.0	5.118400e-01	4.390413e-02	0.0	5.276100e-01	4.392183e-02	0.0	5.433600e-01	4.383661e-02	0.0	5.590600e-01	4.364284e-02	0.0	5.747100e-01	4.333544e-02	0.0	5.902800e-01	4.291086e-02	0.0	6.057600e-01	4.236636e-02	0.0	6.211300e-01	4.170078e-02	0.0	6.363800e-01	4.091396e-02	0.0	6.515000e-01	4.000706e-02	0.0	6.664700e-01	3.898328e-02	0.0	6.812700e-01	3.784760e-02	0.0	6.958900e-01	3.660580e-02	0.0	7.103200e-01	3.526505e-02	0.0	7.245300e-01	3.383591e-02	0.0	7.385200e-01	3.232739e-02	0.0	7.522800e-01	3.075048e-02	0.0	7.657800e-01	2.911959e-02	0.0	7.790100e-01	2.744775e-02	0.0	7.919700e-01	2.574721e-02	0.0	8.046400e-01	2.403312e-02	0.0	8.170100e-01	2.231942e-02	0.0	8.290500e-01	2.062258e-02	0.0	8.407700e-01	1.895262e-02	0.0	8.521600e-01	1.732083e-02	0.0	8.631800e-01	1.574049e-02	0.0	8.738500e-01	1.421331e-02	0.0	8.841500e-01	1.274347e-02	0.0	8.940600e-01	1.133254e-02	0.0	9.035800e-01	9.978608e-03	0.0	9.127000e-01	8.683959e-03	0.0	9.214000e-01	7.459073e-03	0.0	9.296900e-01	6.319950e-03	0.0	9.375400e-01	5.297288e-03	0.0	9.449600e-01	4.419862e-03	0.0	9.519400e-01	3.712188e-03	0.0	9.584700e-01	3.179638e-03	0.0	9.645400e-01	2.800817e-03	0.0	9.701500e-01	2.529227e-03	0.0	9.752800e-01	2.307249e-03	0.0	9.799500e-01	2.081057e-03	0.0	9.841300e-01	1.819777e-03	0.0	9.878400e-01	1.516091e-03	0.0	9.910500e-01	1.188490e-03	0.0	9.937800e-01	8.623934e-04	0.0	9.960200e-01	5.664507e-04	0.0	9.977600e-01	3.231555e-04	0.0	9.990000e-01	1.450753e-04	0.0	9.997500e-01	3.632614e-05	0.0	1.000000e+00	0.000000e+00	0.0	
CELLS 200	600
2	199	0	2	0	1	2	1	2	2	2	3	2	3	4	2	4	5	2	5	6	2	6	7	2	7	8	2	8	9	2	9	10	2	10	11	2	11	12	2	12	13	2	13	14	2	14	15	2	15	16	2	16	17	2	17	18	2	18	19	2	19	20	2	20	21	2	21	22	2	22	23	2	23	24	2	24	25	2	25	26	2	26	27	2	27	28	2	28	29	2	29	30	2	30	31	2	31	32	2	32	33	2	33	34	2	34	35	2	35	36	2	36	37	2	37	38	2	38	39	2	39	40	2	40	41	2	41	42	2	42	43	2	43	44	2	44	45	2	45	46	2	46	47	2	47	48	2	48	49	2	49	50	2	50	51	2	51	52	2	52	53	2	53	54	2	54	55	2	55	56	2	56	57	2	57	58	2	58	59	2	59	60	2	60	61	2	61	62	2	62	63	2	63	64	2	64	65	2	65	66	2	66	67	2	67	68	2	68	69	2	69	70	2	70	71	2	71	72	2	72	73	2	73	74	2	74	75	2	75	76	2	76	77	2	77	78	2	78	79	2	79	80	2	80	81	2	81	82	2	82	83	2	83	84	2	84	85	2	85	86	2	86	87	2	87	88	2	88	89	2	89	90	2	90	91	2	91	92	2	92	93	2	93	94	2	94	95	2	95	96	2	96	97	2	97	98	2	98	99	2	99	100	2	100	101	2	101	102	2	102	103	2	103	104	2	104	105	2	105	106	2	106	107	2	107	108	2	108	109	2	109	110	2	110	111	2	111	112	2	112	113	2	113	114	2	114	115	2	115	116	2	116	117	2	117	118	2	118	119	2	119	120	2	120	121	2	121	122	2	122	123	2	123	124	2	124	125	2	125	126	2	126	127	2	127	128	2	128	129	2	129	130	2	130	131	2	131	132	2	132	133	2	133	134	2	134	135	2	135	136	2	136	137	2	137	138	2	138	139	2	139	140	2	140	141	2	141	142	2	142	143	2	143	144	2	144	145	2	145	146	2	146	147	2	147	148	2	148	149	2	149	150	2	150	151	2	151	152	2	152	153	2	153	154	2	154	155	2	155	156	2	156	157	2	157	158	2	158	159	2	159	160	2	160	161	2	161	162	2	162	163	2	163	164	2	164	165	2	165	166	2	166	167	2	167	168	2	168	169	2	169	170	2	170	171	2	171	172	2	172	173	2	173	174	2	174	175	2	175	176	2	176	177	2	177	178	2	178	179	2	179	180	2	180	181	2	181	182	2	182	183	2	183	184	2	184	185	2	185	186	2	186	187	2	187	188	2	188	189	2	189	190	2	190	191	2	191	192	2	192	193	2	193	194	2	194	195	2	195	196	2	196	197	2	197	198	2	198	199	
CELL_TYPES 200
3	3	3	3	3	3	3	3	3	3	3	3	3	3	3	3	3	3	3	3	3	3	3	3	3	3	3	3	3	3	3	3	3	3	3	3	3	3	3	3	3	3	3	3	3	3	3	3	3	3	3	3	3	3	3	3	3	3	3	3	3	3	3	3	3	3	3	3	3	3	3	3	3	3	3	3	3	3	3	3	3	3	3	3	3	3	3	3	3	3	3	3	3	3	3	3	3	3	3	3	3	3	3	3	3	3	3	3	3	3	3	3	3	3	3	3	3	3	3	3	3	3	3	3	3	3	3	3	3	3	3	3	3	3	3	3	3	3	3	3	3	3	3	3	3	3	3	3	3	3	3	3	3	3	3	3	3	3	3	3	3	3	3	3	3	3	3	3	3	3	3	3	3	3	3	3	3	3	3	3	3	3	3	3	3	3	3	3	3	3	3	3	3	3	3	3	3	3	3	3	
POINT_DATA 200

SCALARS Conservative_1 float 1
LOOKUP_TABLE default
7.174786e-01	1.104931e-01	7.213250e-02	4.069802e-02	-9.341351e-04	-2.250197e-02	-3.233137e-02	-2.926671e-02	-1.229562e-02	1.781344e-02	5.809294e-02	1.027376e-01	1.431767e-01	1.709140e-01	1.815039e-01	1.775109e-01	1.663945e-01	1.552384e-01	1.484309e-01	1.467052e-01	1.495331e-01	1.554915e-01	1.631555e-01	1.715414e-01	1.798693e-01	1.879296e-01	1.956529e-01	2.031046e-01	2.105419e-01	2.180255e-01	2.256912e-01	2.335911e-01	2.416046e-01	2.497977e-01	2.580283e-01	2.663617e-01	2.747133e-01	2.832240e-01	2.917729e-01	3.004195e-01	3.090318e-01	3.177036e-01	3.263300e-01	3.349843e-01	3.435805e-01	3.521949e-01	3.607841e-01	3.692819e-01	3.773230e-01	3.842503e-01	3.896054e-01	3.939190e-01	3.988190e-01	4.059888e-01	4.155222e-01	4.253241e-01	4.339371e-01	4.423503e-01	4.529493e-01	4.672116e-01	4.856362e-01	5.082381e-01	5.354386e-01	5.674492e-01	6.025002e-01	6.345988e-01	6.530025e-01	6.460618e-01	6.088294e-01	5.493182e-01	4.868323e-01	4.410829e-01	4.199705e-01	4.157016e-01	4.132222e-01	4.024459e-01	3.831037e-01	3.602481e-01	3.372097e-01	3.141227e-01	2.897067e-01	2.633028e-01	2.348716e-01	2.043694e-01	1.715007e-01	1.359533e-01	9.733260e-02	5.528418e-02	9.333750e-03	-4.082893e-02	-9.561157e-02	-1.548230e-01	-2.184116e-01	-2.839387e-01	-3.491941e-01	-4.063539e-01	-4.509618e-01	-4.740367e-01	-4.620198e-01	-4.340806e-01	-3.996857e-01	-3.162474e-01	-1.696508e-01	-3.404647e-02	7.308129e-02	3.119661e-01	6.669727e-01	8.531304e-01	7.620066e-01	5.592995e-01	3.980323e-01	2.986323e-01	2.319718e-01	1.804218e-01	1.391752e-01	1.061575e-01	7.927265e-02	5.774623e-02	4.146249e-02	3.027293e-02	2.400952e-02	2.304181e-02	2.758537e-02	3.472605e-02	4.068639e-02	4.192535e-02	3.976719e-02	3.687202e-02	3.474857e-02	3.359071e-02	3.323406e-02	3.359522e-02	3.478563e-02	3.688182e-02	3.990400e-02	4.386507e-02	4.870107e-02	5.427531e-02	6.044577e-02	6.736193e-02	7.566323e-02	8.572112e-02	9.631028e-02	1.047629e-01	1.112421e-01	1.234123e-01	1.545723e-01	2.121502e-01	2.849426e-01	3.435697e-01	3.586005e-01	3.223760e-01	2.532200e-01	1.818836e-01	1.300323e-01	1.008408e-01	8.671843e-02	7.992244e-02	7.531084e-02	6.858341e-02	5.720127e-02	4.181691e-02	2.394557e-02	5.510012e-03	-1.331777e-02	-3.209283e-02	-5.104833e-02	-6.954612e-02	-8.776744e-02	-1.052947e-01	-1.224146e-01	-1.387356e-01	-1.545074e-01	-1.693280e-01	-1.835357e-01	-1.968829e-01	-2.096549e-01	-2.221311e-01	-2.346575e-01	-2.476547e-01	-2.615262e-01	-2.761715e-01	-2.913236e-01	-3.059295e-01	-3.191185e-01	-3.298716e-01	-3.379168e-01	-3.436354e-01	-3.485963e-01	-3.553577e-01	-3.672256e-01	-3.866691e-01	-4.147729e-01	-4.505665e-01	-4.932385e-01	-5.526168e-01	-5.983144e-01	-6.407699e-01	-1.260538e+00	-2.869817e-01	
SCALARS Conservative_2 float 1
LOOKUP_TABLE default
-1.726156e+00	-5.445276e-01	-3.834108e-01	-2.843030e-01	-1.851093e-01	-1.268204e-01	-9.141627e-02	-7.857899e-02	-8.811293e-02	-1.181590e-01	-1.637732e-01	-2.166047e-01	-2.653730e-01	-2.992070e-01	-3.123003e-01	-3.072329e-01	-2.926110e-01	-2.771592e-01	-2.664294e-01	-2.616646e-01	-2.624266e-01	-2.670964e-01	-2.740121e-01	-2.819504e-01	-2.899760e-01	-2.977891e-01	-3.052798e-01	-3.125130e-01	-3.197532e-01	-3.270719e-01	-3.346265e-01	-3.424423e-01	-3.504192e-01	-3.586194e-01	-3.668735e-01	-3.752452e-01	-3.836413e-01	-3.922150e-01	-4.008325e-01	-4.095504e-01	-4.182332e-01	-4.269747e-01	-4.356596e-01	-4.443634e-01	-4.529949e-01	-4.616263e-01	-4.702282e-01	-4.787376e-01	-4.867764e-01	-4.936798e-01	-4.989593e-01	-5.031366e-01	-5.078956e-01	-5.149651e-01	-5.242824e-01	-5.336896e-01	-5.418118e-01	-5.497002e-01	-5.597011e-01	-5.732658e-01	-5.908397e-01	-6.124347e-01	-6.384575e-01	-6.691177e-01	-7.026754e-01	-7.332809e-01	-7.504649e-01	-7.428582e-01	-7.055526e-01	-6.463086e-01	-5.839133e-01	-5.376720e-01	-5.153581e-01	-5.093836e-01	-5.049396e-01	-4.919486e-01	-4.700057e-01	-4.440071e-01	-4.171935e-01	-3.896194e-01	-3.598762e-01	-3.271320e-01	-2.911436e-01	-2.516042e-01	-2.079308e-01	-1.593890e-01	-1.050933e-01	-4.405390e-02	2.499152e-02	1.033288e-01	1.925748e-01	2.936034e-01	4.080839e-01	5.332583e-01	6.668711e-01	7.975749e-01	9.126678e-01	9.868839e-01	1.010918e+00	9.946997e-01	9.436015e-01	8.325370e-01	6.164751e-01	4.022718e-01	2.140850e-01	-5.381729e-02	-3.925166e-01	-5.863084e-01	-5.425074e-01	-3.898411e-01	-2.608067e-01	-1.798012e-01	-1.253476e-01	-8.289655e-02	-4.854307e-02	-2.077709e-02	2.030793e-03	2.042816e-02	3.442670e-02	4.407991e-02	4.951158e-02	5.031469e-02	4.610769e-02	3.928442e-02	3.286909e-02	3.153529e-02	3.400039e-02	3.727585e-02	3.962302e-02	4.094090e-02	4.143212e-02	4.116515e-02	4.001515e-02	3.790320e-02	3.481713e-02	3.074019e-02	2.575475e-02	2.001077e-02	1.366735e-02	6.570015e-03	-1.935900e-03	-1.222126e-02	-2.300238e-02	-3.151336e-02	-3.793051e-02	-5.011807e-02	-8.152881e-02	-1.394345e-01	-2.122491e-01	-2.704250e-01	-2.849369e-01	-2.486482e-01	-1.801503e-01	-1.097553e-01	-5.857104e-02	-2.936195e-02	-1.463964e-02	-6.886857e-03	-9.932090e-04	7.433916e-03	2.107015e-02	3.902841e-02	5.969575e-02	8.116602e-02	1.033616e-01	1.258240e-01	1.487748e-01	1.715105e-01	1.942110e-01	2.164171e-01	2.384307e-01	2.598045e-01	2.808001e-01	3.009902e-01	3.206543e-01	3.396359e-01	3.582398e-01	3.768483e-01	3.959338e-01	4.160558e-01	4.377609e-01	4.609477e-01	4.852636e-01	5.093663e-01	5.321035e-01	5.522697e-01	5.696757e-01	5.851379e-01	6.011313e-01	6.214248e-01	6.507491e-01	6.927520e-01	7.490369e-01	8.199364e-01	9.061822e-01	1.026646e+00	1.140555e+00	1.290279e+00	2.447690e+00	3.045770e-01	
SCALARS Conservative_3 float 1
LOOKUP_TABLE default
-2.848710e-01	-1.350088e-01	-1.901364e-01	-1.792108e-01	-1.804918e-01	-1.909178e-01	-2.077357e-01	-2.296234e-01	-2.527782e-01	-2.724830e-01	-2.837736e-01	-2.828582e-01	-2.686712e-01	-2.445342e-01	-2.169826e-01	-1.926476e-01	-1.753095e-01	-1.650322e-01	-1.601898e-01	-1.583394e-01	-1.576538e-01	-1.568886e-01	-1.554323e-01	-1.532669e-01	-1.504707e-01	-1.473241e-01	-1.440185e-01	-1.406312e-01	-1.372796e-01	-1.339196e-01	-1.305599e-01	-1.271976e-01	-1.237364e-01	-1.202226e-01	-1.165686e-01	-1.128329e-01	-1.089481e-01	-1.049808e-01	-1.008673e-01	-9.667093e-02	-9.232983e-02	-8.790468e-02	-8.333801e-02	-7.867433e-02	-7.387275e-02	-6.897239e-02	-6.395143e-02	-5.878088e-02	-5.340451e-02	-4.777711e-02	-4.192127e-02	-3.595547e-02	-3.003624e-02	-2.433109e-02	-1.834116e-02	-1.145690e-02	-4.206680e-03	3.023804e-03	1.035378e-02	1.814703e-02	2.650962e-02	3.548334e-02	4.517193e-02	5.580263e-02	6.772701e-02	8.090548e-02	9.471598e-02	1.077439e-01	1.186396e-01	1.272477e-01	1.351721e-01	1.450180e-01	1.584013e-01	1.747734e-01	1.919872e-01	2.083366e-01	2.238756e-01	2.397211e-01	2.566221e-01	2.745356e-01	2.931430e-01	3.122729e-01	3.320097e-01	3.523434e-01	3.731453e-01	3.942408e-01	4.152788e-01	4.357514e-01	4.547817e-01	4.710682e-01	4.826223e-01	4.861477e-01	4.772572e-01	4.497269e-01	3.959488e-01	3.066388e-01	1.735297e-01	2.724177e-02	-9.885623e-02	-1.752515e-01	-2.542248e-01	-4.039850e-01	-5.576493e-01	-5.903908e-01	-5.497665e-01	-5.827389e-01	-6.405973e-01	-5.895031e-01	-4.515517e-01	-3.240760e-01	-2.430508e-01	-1.932301e-01	-1.572664e-01	-1.293573e-01	-1.076791e-01	-9.055309e-02	-7.685050e-02	-6.586404e-02	-5.706917e-02	-4.994590e-02	-4.438571e-02	-4.066524e-02	-3.825088e-02	-3.588990e-02	-3.383324e-02	-3.212576e-02	-3.052709e-02	-2.922874e-02	-2.827593e-02	-2.761059e-02	-2.711257e-02	-2.673880e-02	-2.643821e-02	-2.617363e-02	-2.590395e-02	-2.557497e-02	-2.515756e-02	-2.457841e-02	-2.375666e-02	-2.265520e-02	-2.133886e-02	-1.989887e-02	-1.815878e-02	-1.560850e-02	-1.181190e-02	-7.240654e-03	-3.187687e-03	-5.888401e-04	1.359971e-03	4.860963e-03	1.169685e-02	2.146964e-02	3.184400e-02	4.079060e-02	4.802195e-02	5.462012e-02	6.157016e-02	6.908390e-02	7.696006e-02	8.472363e-02	9.203973e-02	9.886256e-02	1.048641e-01	1.102487e-01	1.147552e-01	1.186161e-01	1.215473e-01	1.238241e-01	1.251721e-01	1.258692e-01	1.256675e-01	1.248702e-01	1.232867e-01	1.212658e-01	1.186731e-01	1.158676e-01	1.129090e-01	1.099267e-01	1.070104e-01	1.040110e-01	1.005460e-01	9.614158e-02	9.012605e-02	8.225197e-02	7.251390e-02	6.172480e-02	5.105519e-02	4.211775e-02	3.623429e-02	3.407737e-02	3.511624e-02	3.737146e-02	3.827250e-02	3.561943e-02	3.057936e-02	2.198683e-02	7.682500e-03	7.429561e-02	-2.526953e-02	-2.737333e+00	
SCALARS Conservative_4 float 1
LOOKUP_TABLE default
4.507087e-01	7.594322e-02	4.919021e-02	3.479042e-02	1.626076e-02	7.180302e-03	2.245346e-03	1.236500e-03	4.238815e-03	1.093152e-02	2.049739e-02	3.141083e-02	4.146035e-02	4.832219e-02	5.075717e-02	4.936919e-02	4.609195e-02	4.286825e-02	4.077979e-02	4.009508e-02	4.060189e-02	4.195962e-02	4.378397e-02	4.579244e-02	4.780964e-02	4.975164e-02	5.161980e-02	5.343501e-02	5.523758e-02	5.706808e-02	5.894154e-02	6.086945e-02	6.285001e-02	6.487180e-02	6.692343e-02	6.898661e-02	7.107404e-02	7.318444e-02	7.532494e-02	7.747390e-02	7.963514e-02	8.179624e-02	8.396444e-02	8.612581e-02	8.828773e-02	9.044217e-02	9.260300e-02	9.473508e-02	9.674799e-02	9.846921e-02	9.980054e-02	1.008737e-01	1.021004e-01	1.039260e-01	1.063927e-01	1.089458e-01	1.111330e-01	1.132619e-01	1.159583e-01	1.196189e-01	1.243226e-01	1.300868e-01	1.369911e-01	1.450777e-01	1.538397e-01	1.617276e-01	1.660430e-01	1.639692e-01	1.543995e-01	1.394727e-01	1.239811e-01	1.127372e-01	1.075456e-01	1.064124e-01	1.056361e-01	1.027812e-01	9.785860e-02	9.208615e-02	8.628463e-02	8.045382e-02	7.429378e-02	6.763048e-02	6.047361e-02	5.280663e-02	4.457223e-02	3.568206e-02	2.605701e-02	1.562461e-02	4.285120e-03	-8.056332e-03	-2.136313e-02	-3.574332e-02	-5.087406e-02	-6.641006e-02	-8.138500e-02	-9.465653e-02	-1.033934e-01	-1.046963e-01	-1.022307e-01	-9.843320e-02	-9.185300e-02	-6.867230e-02	-2.979491e-02	1.419394e-04	2.505633e-02	8.436701e-02	1.683015e-01	2.125100e-01	1.922950e-01	1.432488e-01	1.022259e-01	7.612178e-02	5.865307e-02	4.526752e-02	3.464207e-02	2.615328e-02	1.927393e-02	1.376887e-02	9.597927e-03	6.700261e-03	4.979198e-03	4.599684e-03	5.733712e-03	7.636169e-03	9.229060e-03	9.431597e-03	8.894920e-03	8.169008e-03	7.642207e-03	7.354492e-03	7.253973e-03	7.337802e-03	7.629464e-03	8.148331e-03	8.900318e-03	9.886358e-03	1.109226e-02	1.248568e-02	1.402546e-02	1.574931e-02	1.780856e-02	2.031244e-02	2.296180e-02	2.511614e-02	2.678315e-02	2.979935e-02	3.742562e-02	5.151834e-02	6.945886e-02	8.409771e-02	8.824528e-02	7.966879e-02	6.270808e-02	4.486533e-02	3.162667e-02	2.398413e-02	2.023180e-02	1.844403e-02	1.725401e-02	1.546701e-02	1.255625e-02	8.633789e-03	4.158878e-03	-5.303528e-04	-5.280890e-03	-1.008768e-02	-1.488175e-02	-1.961930e-02	-2.424138e-02	-2.875007e-02	-3.311061e-02	-3.732685e-02	-4.135651e-02	-4.521708e-02	-4.886319e-02	-5.234575e-02	-5.568320e-02	-5.895503e-02	-6.224339e-02	-6.567991e-02	-6.932580e-02	-7.321580e-02	-7.722207e-02	-8.116142e-02	-8.477244e-02	-8.787535e-02	-9.039187e-02	-9.247297e-02	-9.452292e-02	-9.723028e-02	-1.014403e-01	-1.078386e-01	-1.167818e-01	-1.281483e-01	-1.423926e-01	-1.652092e-01	-1.832248e-01	-2.102039e-01	-5.932977e-01	-7.970303e-02	
SCALARS Surface_Sensitivity float 1
LOOKUP_TABLE default
-4.205613e+03	1.406306e+03	6.781968e+01	4.188519e+01	3.077977e+01	1.491247e+01	9.847458e+00	6.906539e+00	5.047633e+00	3.854289e+00	3.068823e+00	2.381517e+00	1.633896e+00	1.150059e+00	1.102121e+00	1.205841e+00	1.152248e+00	9.576430e-01	7.396847e-01	5.819904e-01	4.634543e-01	3.814214e-01	3.306607e-01	2.924427e-01	2.697103e-01	2.523270e-01	2.373128e-01	2.227776e-01	1.993483e-01	1.741858e-01	1.513763e-01	1.394461e-01	1.410177e-01	1.392936e-01	1.343027e-01	1.225970e-01	1.083139e-01	9.044943e-02	8.359980e-02	8.600329e-02	9.576680e-02	9.023300e-02	6.771927e-02	4.682320e-02	7.449141e-02	1.363217e-01	8.816113e-02	-2.955346e-01	-1.039549e+00	-1.685940e+00	-1.257095e+00	1.121794e+00	4.973199e+00	7.270813e+00	5.313607e+00	1.480279e+00	-9.851434e-01	-1.850741e+00	-2.099637e+00	-2.421906e+00	-2.977978e+00	-3.690537e+00	-4.478567e+00	-5.173307e+00	-5.374866e+00	-4.503083e+00	-2.128271e+00	1.470127e+00	5.027502e+00	6.822516e+00	5.854215e+00	2.744319e+00	-5.507969e-01	-2.189818e+00	-1.834547e+00	-6.149255e-01	1.827351e-01	2.215042e-01	-5.651108e-02	-2.302600e-01	-2.335907e-01	-2.007293e-01	-2.032528e-01	-2.050417e-01	-2.006143e-01	-1.848733e-01	-1.348465e-01	-5.229545e-02	8.960161e-02	3.629406e-01	7.942722e-01	1.443340e+00	2.458494e+00	3.492530e+00	3.940628e+00	4.514539e+00	4.462161e+00	1.214765e+01	8.268948e+00	-4.206305e+00	3.469138e+01	3.905138e+01	2.405484e+01	-4.881707e+00	1.993788e+01	9.840380e+01	9.449521e+01	3.279683e+00	-6.418887e+01	-6.733045e+01	-4.385507e+01	-2.529691e+01	-1.582045e+01	-1.081176e+01	-7.504474e+00	-5.185746e+00	-3.474829e+00	-1.866820e+00	-2.248371e-01	6.074767e-01	-5.691322e-02	9.924650e-01	1.100420e+01	2.904557e+01	2.291585e+01	3.773890e+00	-3.569840e+00	-2.923758e+00	-9.718890e-01	-2.928470e-01	-3.482907e-01	-3.897814e-01	-2.804597e-01	-1.350586e-01	-3.553514e-02	1.916481e-02	4.135332e-02	3.705491e-02	2.631032e-02	5.849270e-02	1.588900e-01	2.176304e-01	4.961728e-02	-2.845521e-01	-1.978386e-01	1.079166e+00	3.542281e+00	5.792633e+00	5.761295e+00	2.449534e+00	-2.895275e+00	-7.636825e+00	-9.665824e+00	-8.768747e+00	-6.172538e+00	-2.843166e+00	1.261437e+00	5.352103e+00	6.237259e+00	3.303326e+00	2.550445e-01	-7.824268e-01	-4.500098e-01	6.023183e-03	8.437692e-02	-4.449441e-02	-1.038535e-01	-9.845898e-02	-8.359645e-02	-1.039371e-01	-1.232549e-01	-1.511778e-01	-1.702094e-01	-1.975329e-01	-2.166033e-01	-2.452984e-01	-2.814410e-01	-3.274512e-01	-3.916617e-01	-4.748773e-01	-5.655982e-01	-6.632037e-01	-7.386917e-01	-8.026251e-01	-8.500450e-01	-9.204245e-01	-1.059395e+00	-1.359161e+00	-1.942018e+00	-3.039744e+00	-4.841759e+00	-7.613793e+00	-1.145638e+01	-1.734920e+01	-3.442247e+01	-4.577250e+01	-6.722635e+01	-1.442583e+03	3.762148e+03	3.263804e+02	