# vtk DataFile Version 3.0
vtk output
ASCII
DATASET UNSTRUCTURED_GRID
POINTS 5233 float
9.997500e-01	-3.633243e-05	0.0	9.990000e-01	-1.454724e-04	0.0	9.977600e-01	-3.275077e-04	0.0	9.960200e-01	-5.899288e-04	0.0	9.937800e-01	-9.471009e-04	0.0	9.910500e-01	-1.422113e-03	0.0	9.878400e-01	-2.045556e-03	0.0	9.841300e-01	-2.853752e-03	0.0	9.799500e-01	-3.859020e-03	0.0	9.752800e-01	-5.058521e-03	0.0	9.701500e-01	-6.405433e-03	0.0	9.645400e-01	-7.841279e-03	0.0	9.584700e-01	-9.290713e-03	0.0	9.519400e-01	-1.069837e-02	0.0	9.449600e-01	-1.203631e-02	0.0	9.375400e-01	-1.330891e-02	0.0	9.296900e-01	-1.454349e-02	0.0	9.214000e-01	-1.577834e-02	0.0	9.127000e-01	-1.704070e-02	0.0	9.035800e-01	-1.835162e-02	0.0	8.940600e-01	-1.971473e-02	0.0	8.841500e-01	-2.112541e-02	0.0	8.738500e-01	-2.257548e-02	0.0	8.631800e-01	-2.405282e-02	0.0	8.521600e-01	-2.554677e-02	0.0	8.407700e-01	-2.705418e-02	0.0	8.290500e-01	-2.856580e-02	0.0	8.170100e-01	-3.007779e-02	0.0	8.046400e-01	-3.158933e-02	0.0	7.919700e-01	-3.309477e-02	0.0	7.790100e-01	-3.459084e-02	0.0	7.657800e-01	-3.607292e-02	0.0	7.522800e-01	-3.753846e-02	0.0	7.385200e-01	-3.898362e-02	0.0	7.245300e-01	-4.040251e-02	0.0	7.103200e-01	-4.179151e-02	0.0	6.958900e-01	-4.314806e-02	0.0	6.812700e-01	-4.446697e-02	0.0	6.664700e-01	-4.574522e-02	0.0	6.515000e-01	-4.698006e-02	0.0	6.363800e-01	-4.816815e-02	0.0	6.211300e-01	-4.930661e-02	0.0	6.057600e-01	-5.039356e-02	0.0	5.902800e-01	-5.142738e-02	0.0	5.747100e-01	-5.240601e-02	0.0	5.590600e-01	-5.332829e-02	0.0	5.433600e-01	-5.419213e-02	0.0	5.276100e-01	-5.499734e-02	0.0	5.118400e-01	-5.574228e-02	0.0	4.960500e-01	-5.642688e-02	0.0	4.802700e-01	-5.704982e-02	0.0	4.645100e-01	-5.761069e-02	0.0	4.487800e-01	-5.810902e-02	0.0	4.331100e-01	-5.854375e-02	0.0	4.175000e-01	-5.891464e-02	0.0	4.019700e-01	-5.922081e-02	0.0	3.865400e-01	-5.946135e-02	0.0	3.712300e-01	-5.963539e-02	0.0	3.560400e-01	-5.974213e-02	0.0	3.409900e-01	-5.978042e-02	0.0	3.261100e-01	-5.974916e-02	0.0	3.114000e-01	-5.964718e-02	0.0	2.968700e-01	-5.947315e-02	0.0	2.825500e-01	-5.922595e-02	0.0	2.684500e-01	-5.890430e-02	0.0	2.545700e-01	-5.850653e-02	0.0	2.409400e-01	-5.803176e-02	0.0	2.275700e-01	-5.747872e-02	0.0	2.144700e-01	-5.684611e-02	0.0	2.016600e-01	-5.613326e-02	0.0	1.891400e-01	-5.533847e-02	0.0	1.769300e-01	-5.446134e-02	0.0	1.650400e-01	-5.350102e-02	0.0	1.534900e-01	-5.245773e-02	0.0	1.422900e-01	-5.133119e-02	0.0	1.314400e-01	-5.012014e-02	0.0	1.209500e-01	-4.882433e-02	0.0	1.108500e-01	-4.744654e-02	0.0	1.011300e-01	-4.598460e-02	0.0	9.181000e-02	-4.444061e-02	0.0	8.290000e-02	-4.281571e-02	0.0	7.440000e-02	-4.110923e-02	0.0	6.633000e-02	-3.932472e-02	0.0	5.869000e-02	-3.746188e-02	0.0	5.149000e-02	-3.552273e-02	0.0	4.474000e-02	-3.350978e-02	0.0	3.844000e-02	-3.142272e-02	0.0	3.260000e-02	-2.926441e-02	0.0	2.723000e-02	-2.703852e-02	0.0	2.232000e-02	-2.474002e-02	0.0	1.790000e-02	-2.238292e-02	0.0	1.395000e-02	-1.995638e-02	0.0	1.049000e-02	-1.747169e-02	0.0	7.520000e-03	-1.492973e-02	0.0	5.040000e-03	-1.233071e-02	0.0	3.050000e-03	-9.673088e-03	0.0	1.560000e-03	-6.972116e-03	0.0	5.600000e-04	-4.206659e-03	0.0	6.000000e-05	-1.384107e-03	0.0	0.000000e+00	0.000000e+00	0.0	6.000000e-05	1.263838e-03	0.0	5.600000e-04	3.625496e-03	0.0	1.560000e-03	5.789704e-03	0.0	3.050000e-03	7.808167e-03	0.0	5.040000e-03	9.725883e-03	0.0	7.520000e-03	1.155059e-02	0.0	1.049000e-02	1.329726e-02	0.0	1.395000e-02	1.497642e-02	0.0	1.790000e-02	1.659595e-02	0.0	2.232000e-02	1.815550e-02	0.0	2.723000e-02	1.966819e-02	0.0	3.260000e-02	2.112990e-02	0.0	3.844000e-02	2.254834e-02	0.0	4.474000e-02	2.392485e-02	0.0	5.149000e-02	2.526083e-02	0.0	5.869000e-02	2.655929e-02	0.0	6.633000e-02	2.782097e-02	0.0	7.440000e-02	2.904652e-02	0.0	8.290000e-02	3.023788e-02	0.0	9.181000e-02	3.139394e-02	0.0	1.011300e-01	3.251620e-02	0.0	1.108500e-01	3.360466e-02	0.0	1.209500e-01	3.465816e-02	0.0	1.314400e-01	3.567859e-02	0.0	1.422900e-01	3.666364e-02	0.0	1.534900e-01	3.761307e-02	0.0	1.650400e-01	3.852723e-02	0.0	1.769300e-01	3.940544e-02	0.0	1.891400e-01	4.024625e-02	0.0	2.016600e-01	4.104886e-02	0.0	2.144700e-01	4.181177e-02	0.0	2.275700e-01	4.253459e-02	0.0	2.409400e-01	4.321560e-02	0.0	2.545700e-01	4.385356e-02	0.0	2.684500e-01	4.444707e-02	0.0	2.825500e-01	4.499382e-02	0.0	2.968700e-01	4.549264e-02	0.0	3.114000e-01	4.594175e-02	0.0	3.261100e-01	4.633869e-02	0.0	3.409900e-01	4.668160e-02	0.0	3.560400e-01	4.696859e-02	0.0	3.712300e-01	4.719710e-02	0.0	3.865400e-01	4.736484e-02	0.0	4.019700e-01	4.746964e-02	0.0	4.175000e-01	4.750906e-02	0.0	4.331100e-01	4.748075e-02	0.0	4.487800e-01	4.738247e-02	0.0	4.645100e-01	4.721188e-02	0.0	4.802700e-01	4.696700e-02	0.0	4.960500e-01	4.664580e-02	0.0	5.118400e-01	4.624636e-02	0.0	5.276100e-01	4.576754e-02	0.0	5.433600e-01	4.520765e-02	0.0	5.590600e-01	4.456632e-02	0.0	5.747100e-01	4.384243e-02	0.0	5.902800e-01	4.303662e-02	0.0	6.057600e-01	4.214916e-02	0.0	6.211300e-01	4.118143e-02	0.0	6.363800e-01	4.013482e-02	0.0	6.515000e-01	3.901127e-02	0.0	6.664700e-01	3.781415e-02	0.0	6.812700e-01	3.654766e-02	0.0	6.958900e-01	3.521595e-02	0.0	7.103200e-01	3.382383e-02	0.0	7.245300e-01	3.237886e-02	0.0	7.385200e-01	3.088638e-02	0.0	7.522800e-01	2.935334e-02	0.0	7.657800e-01	2.778964e-02	0.0	7.790100e-01	2.620365e-02	0.0	7.919700e-01	2.460302e-02	0.0	8.046400e-01	2.299827e-02	0.0	8.170100e-01	2.139904e-02	0.0	8.290500e-01	1.981769e-02	0.0	8.407700e-01	1.826101e-02	0.0	8.521600e-01	1.673745e-02	0.0	8.631800e-01	1.525783e-02	0.0	8.738500e-01	1.382266e-02	0.0	8.841500e-01	1.243514e-02	0.0	8.940600e-01	1.109648e-02	0.0	9.035800e-01	9.804994e-03	0.0	9.127000e-01	8.563382e-03	0.0	9.214000e-01	7.382590e-03	0.0	9.296900e-01	6.279181e-03	0.0	9.375400e-01	5.284120e-03	0.0	9.449600e-01	4.426554e-03	0.0	9.519400e-01	3.731401e-03	0.0	9.584700e-01	3.204776e-03	0.0	9.645400e-01	2.826500e-03	0.0	9.701500e-01	2.551707e-03	0.0	9.752800e-01	2.324589e-03	0.0	9.799500e-01	2.092905e-03	0.0	9.841300e-01	1.826934e-03	0.0	9.878400e-01	1.519854e-03	0.0	9.910500e-01	1.190181e-03	0.0	9.937800e-01	8.630141e-04	0.0	9.960200e-01	5.666242e-04	0.0	9.977600e-01	3.231879e-04	0.0	9.990000e-01	1.450783e-04	0.0	9.997500e-01	3.632619e-05	0.0	1.000000e+00	0.000000e+00	0.0	1.984229e+01	2.506660e+00	0.0	1.937166e+01	4.973800e+00	0.0	1.859553e+01	7.362490e+00	0.0	1.752613e+01	9.635070e+00	0.0	1.618034e+01	1.175571e+01	0.0	1.457937e+01	1.369094e+01	0.0	1.274848e+01	1.541027e+01	0.0	1.071654e+01	1.688656e+01	0.0	8.515590e+00	1.809654e+01	0.0	6.180340e+00	1.902113e+01	0.0	3.747630e+00	1.964575e+01	0.0	1.255810e+00	1.996053e+01	0.0	-1.255810e+00	1.996053e+01	0.0	-3.747630e+00	1.964574e+01	0.0	-6.180340e+00	1.902113e+01	0.0	-8.515590e+00	1.809654e+01	0.0	-1.071654e+01	1.688656e+01	0.0	-1.274848e+01	1.541026e+01	0.0	-1.457937e+01	1.369094e+01	0.0	-1.618034e+01	1.175570e+01	0.0	-1.752613e+01	9.635070e+00	0.0	-1.859553e+01	7.362490e+00	0.0	-1.937166e+01	4.973800e+00	0.0	-1.984229e+01	2.506660e+00	0.0	-2.000000e+01	0.000000e+00	0.0	-1.984229e+01	-2.506670e+00	0.0	-1.937166e+01	-4.973800e+00	0.0	-1.859553e+01	-7.362490e+00	0.0	-1.752613e+01	-9.635080e+00	0.0	-1.618034e+01	-1.175571e+01	0.0	-1.457937e+01	-1.369094e+01	0.0	-1.274848e+01	-1.541027e+01	0.0	-1.071653e+01	-1.688656e+01	0.0	-8.515580e+00	-1.809654e+01	0.0	-6.180340e+00	-1.902113e+01	0.0	-3.747620e+00	-1.964575e+01	0.0	-1.255810e+00	-1.996053e+01	0.0	1.255810e+00	-1.996053e+01	0.0	3.747630e+00	-1.964574e+01	0.0	6.180340e+00	-1.902113e+01	0.0	8.515590e+00	-1.809654e+01	0.0	1.071654e+01	-1.688656e+01	0.0	1.274848e+01	-1.541026e+01	0.0	1.457937e+01	-1.369094e+01	0.0	1.618034e+01	-1.175570e+01	0.0	1.752614e+01	-9.635070e+00	0.0	1.859553e+01	-7.362490e+00	0.0	1.937166e+01	-4.973790e+00	0.0	1.984229e+01	-2.506660e+00	0.0	2.000000e+01	0.000000e+00	0.0	6.074226e-02	-4.532495e-02	0.0	6.601883e-01	-6.002387e-02	0.0	4.255534e-01	6.171916e-02	0.0	6.897642e-01	4.910355e-02	0.0	3.791232e-01	-7.360733e-02	0.0	9.994675e-01	-7.275902e-04	0.0	9.985544e-01	-1.331424e-03	0.0	7.738132e-01	-4.740193e-02	0.0	6.898600e-01	-5.715008e-02	0.0	-1.127443e-03	5.517347e-03	0.0	7.467800e-01	-5.080938e-02	0.0	5.833311e-01	5.753077e-02	0.0	9.928160e-01	-3.736257e-03	0.0	9.899359e-01	-4.744227e-03	0.0	5.989071e-01	5.659601e-02	0.0	7.187646e-01	-5.406553e-02	0.0	-1.468834e-03	5.998859e-04	0.0	9.865726e-01	-5.906555e-03	0.0	9.827329e-01	-7.226500e-03	0.0	-1.302296e-03	-6.473653e-03	0.0	6.451051e-01	-6.137445e-02	0.0	8.244819e-01	-4.029958e-02	0.0	7.997421e-01	-4.389599e-02	0.0	3.484811e-01	6.060516e-02	0.0	8.479020e-01	-3.666906e-02	0.0	2.473658e-01	5.609673e-02	0.0	8.699420e-01	-3.302863e-02	0.0	1.046371e-02	1.734609e-02	0.0	8.904957e-01	-2.943446e-02	0.0	7.702141e-02	-4.970294e-02	0.0	9.094909e-01	-2.594131e-02	0.0	-1.766978e-03	-3.207258e-03	0.0	9.424826e-01	-1.916900e-02	0.0	9.268475e-01	-2.255109e-02	0.0	1.794761e-02	-2.749967e-02	0.0	4.257416e-01	-7.303814e-02	0.0	8.591036e-01	-3.484464e-02	0.0	9.563356e-01	-1.566748e-02	0.0	9.784088e-01	-8.725520e-03	0.0	9.683301e-01	-1.208101e-02	0.0	1.582633e-01	-6.357683e-02	0.0	9.001951e-01	-2.767328e-02	0.0	7.604295e-01	-4.912148e-02	0.0	9.971359e-01	-2.087288e-03	0.0	5.990500e-01	-6.504703e-02	0.0	4.414441e-01	-7.268831e-02	0.0	5.363196e-01	-6.898193e-02	0.0	4.730157e-01	-7.175589e-02	0.0	5.046766e-01	-7.051852e-02	0.0	4.888342e-01	-7.117414e-02	0.0	1.249493e-01	-5.906874e-02	0.0	2.784398e-02	-3.297977e-02	0.0	3.945689e-01	-7.349934e-02	0.0	4.621887e-02	-4.062676e-02	0.0	4.101097e-01	-7.330993e-02	0.0	3.187147e-01	-7.321543e-02	0.0	3.486125e-01	-7.358208e-02	0.0	3.350755e-02	-3.559325e-02	0.0	2.895105e-01	-7.251011e-02	0.0	9.348850e-01	-2.086692e-02	0.0	1.468046e-01	-6.216483e-02	0.0	1.946435e-01	-6.723637e-02	0.0	8.579563e-02	-5.176061e-02	0.0	1.045869e-01	-5.560774e-02	0.0	5.678223e-01	-6.716223e-02	0.0	1.700658e-01	-6.489502e-02	0.0	6.145275e-01	-6.388536e-02	0.0	8.804132e-01	-3.122311e-02	0.0	2.266794e-02	-3.028024e-02	0.0	9.952218e-01	-2.870149e-03	0.0	6.736126e-03	-1.882351e-02	0.0	1.849192e-02	2.151531e-02	0.0	9.183776e-01	-2.423672e-02	0.0	9.49640
[...]
POINT_DATA 5233

SCALARS Conservative_1 float 1
LOOKUP_TABLE default
1.199829e+00	1.181604e+00	1.171181e+00	1.164742e+00	1.160170e+00	1.155705e+00	1.148821e+00	1.137904e+00	1.121722e+00	1.100366e+00	1.075076e+00	1.048463e+00	1.024893e+00	1.008356e+00	9.999811e-01	9.979221e-01	9.990310e-01	1.000473e+00	1.000500e+00	9.985114e-01	9.947273e-01	9.897050e-01	9.840301e-01	9.781741e-01	9.724147e-01	9.668628e-01	9.615098e-01	9.563089e-01	9.511956e-01	9.461384e-01	9.411214e-01	9.361007e-01	9.310423e-01	9.259627e-01	9.209131e-01	9.159419e-01	9.110679e-01	9.062954e-01	9.016359e-01	8.971059e-01	8.927052e-01	8.884444e-01	8.843058e-01	8.803061e-01	8.764602e-01	8.728198e-01	8.693744e-01	8.660599e-01	8.627291e-01	8.593726e-01	8.561927e-01	8.535436e-01	8.515392e-01	8.498877e-01	8.479161e-01	8.448723e-01	8.402557e-01	8.342132e-01	8.276242e-01	8.217468e-01	8.174689e-01	8.149841e-01	8.140197e-01	8.141425e-01	8.150421e-01	8.165195e-01	8.185253e-01	8.209757e-01	8.237845e-01	8.268393e-01	8.301593e-01	8.339076e-01	8.383312e-01	8.434982e-01	8.493319e-01	8.556858e-01	8.626249e-01	8.703275e-01	8.788507e-01	8.882338e-01	8.985886e-01	9.099741e-01	9.225416e-01	9.364091e-01	9.517665e-01	9.688911e-01	9.880110e-01	1.009485e+00	1.033799e+00	1.061267e+00	1.092421e+00	1.127728e+00	1.167035e+00	1.209880e+00	1.254553e+00	1.298040e+00	1.331742e+00	1.350899e+00	1.339540e+00	1.308287e+00	1.284286e+00	1.221144e+00	1.099533e+00	1.002064e+00	9.260606e-01	8.703337e-01	8.323312e-01	8.073086e-01	7.904600e-01	7.790459e-01	7.713709e-01	7.662656e-01	7.631703e-01	7.613473e-01	7.604223e-01	7.603917e-01	7.611270e-01	7.623914e-01	7.638634e-01	7.652155e-01	7.664640e-01	7.679326e-01	7.698806e-01	7.721587e-01	7.743674e-01	7.762782e-01	7.779826e-01	7.796275e-01	7.813163e-01	7.831198e-01	7.850934e-01	7.872213e-01	7.894307e-01	7.916217e-01	7.937515e-01	7.957954e-01	7.977441e-01	7.995589e-01	8.012501e-01	8.029367e-01	8.048389e-01	8.071205e-01	8.098289e-01	8.129073e-01	8.163209e-01	8.200890e-01	8.242231e-01	8.287155e-01	8.334622e-01	8.383332e-01	8.431585e-01	8.479676e-01	8.530046e-01	8.585777e-01	8.647323e-01	8.712498e-01	8.779273e-01	8.847746e-01	8.919594e-01	8.995257e-01	9.074201e-01	9.155551e-01	9.238828e-01	9.323911e-01	9.410497e-01	9.498451e-01	9.587271e-01	9.676782e-01	9.766241e-01	9.855672e-01	9.944245e-01	1.003115e+00	1.011577e+00	1.019726e+00	1.027515e+00	1.034924e+00	1.041999e+00	1.048919e+00	1.055945e+00	1.063467e+00	1.071780e+00	1.080982e+00	1.090690e+00	1.100042e+00	1.107789e+00	1.112593e+00	1.113366e+00	1.109744e+00	1.102492e+00	1.093774e+00	1.086671e+00	1.084151e+00	1.088055e+00	1.098272e+00	1.112847e+00	1.130013e+00	1.148477e+00	1.168635e+00	1.192714e+00	1.181127e+00	9.999764e-01	9.999694e-01	9.999528e-01	9.999288e-01	9.999047e-01	9.998766e-01	9.998370e-01	9.997817e-01	9.997191e-01	9.996670e-01	9.996326e-01	9.996441e-01	9.996985e-01	9.998091e-01	9.999042e-01	9.999810e-01	1.000023e+00	1.000049e+00	1.000064e+00	1.000070e+00	1.000073e+00	1.000074e+00	1.000074e+00	1.000076e+00	1.000077e+00	1.000080e+00	1.000085e+00	1.000092e+00	1.000101e+00	1.000114e+00	1.000129e+00	1.000150e+00	1.000169e+00	1.000196e+00	1.000213e+00	1.000224e+00	1.000226e+00	1.000213e+00	1.000203e+00	1.000190e+00	1.000183e+00	1.000168e+00	1.000151e+00	1.000130e+00	1.000106e+00	1.000078e+00	1.000060e+00	1.000046e+00	1.000013e+00	9.999797e-01	9.442916e-01	9.020517e-01	8.218680e-01	9.232695e-01	8.406885e-01	1.183062e+00	1.173571e+00	9.407906e-01	9.112573e-01	1.217047e+00	9.308170e-01	8.721100e-01	1.151720e+00	1.144991e+00	8.787119e-01	9.208753e-01	1.307654e+00	1.136019e+00	1.123651e+00	1.337687e+00	8.976346e-01	9.608912e-01	9.507301e-01	8.073856e-01	9.714624e-01	7.942787e-01	9.825692e-01	8.784617e-01	9.931803e-01	9.170904e-01	1.000610e+00	1.344668e+00	1.006082e+00	1.002994e+00	1.100351e+00	8.522863e-01	9.769724e-01	1.025352e+00	1.107399e+00	1.065588e+00	8.484162e-01	9.974894e-01	9.358235e-01	1.164148e+00	8.851205e-01	8.538305e-01	8.706229e-01	8.576813e-01	8.639585e-01	8.606299e-01	8.682936e-01	1.042964e+00	8.461774e-01	9.775161e-01	8.499740e-01	8.197267e-01	8.278119e-01	1.018682e+00	8.182129e-01	1.003605e+00	8.544380e-01	8.347968e-01	9.053545e-01	8.849601e-01	8.774841e-01	8.431512e-01	8.891738e-01	9.880759e-01	1.070094e+00	1.157651e+00	1.209195e+00	8.235011e-01	1.002348e+00	1.012762e+00	1.087636e+00	1.133927e+00	9.661088e-01	8.224925e-01	8.739736e-01	9.258114e-01	9.457433e-01	8.761948e-01	8.279878e-01	8.812156e-01	9.066007e-01	9.600560e-01	1.248741e+00	1.133817e+00	8.341485e-01	8.386850e-01	1.211158e+00	8.250342e-01	8.946770e-01	8.183174e-01	8.204685e-01	8.554454e-01	9.160171e-01	1.279754e+00	1.318485e+00	8.545578e-01	1.324597e+00	7.951013e-01	7.745206e-01	7.810992e-01	7.755188e-01	8.182237e-01	1.140212e+00	8.496721e-01	8.349575e-01	1.097229e+00	1.105874e+00	1.052291e+00	8.398869e-01	8.258772e-01	8.119882e-01	1.083652e+00	1.067054e+00	7.729800e-01	1.092474e+00	1.106619e+00	1.099067e+00	7.739061e-01	7.731166e-01	8.003698e-01	7.963718e-01	7.835722e-01	8.039710e-01	8.302570e-01	8.149246e-01	7.806976e-01	7.771191e-01	8.923456e-01	7.864805e-01	7.900952e-01	9.072814e-01	8.657105e-01	9.569878e-01	9.398946e-01	9.915087e-01	9.742865e-01	1.023937e+00	1.008237e+00	1.059452e+00	1.038442e+00	1.104236e+00	1.075190e+00	1.102348e+00	1.031331e+00	1.045370e+00	9.999649e-01	1.016235e+00	9.656330e-01	9.829403e-01	9.315073e-01	9.483938e-01	8.996344e-01	9.151797e-01	8.598222e-01	8.854075e-01	7.881867e-01	7.921618e-01	7.821977e-01	7.849698e-01	7.771120e-01	7.789808e-01	8.465088e-01	7.868566e-01	8.312669e-01	9.815296e-01	1.043719e+00	9.557721e-01	8.228375e-01	8.673275e-01	1.053494e+00	8.068970e-01	9.226714e-01	7.734578e-01	7.727193e-01	7.984050e-01	7.744786e-01	1.090296e+00	1.092369e+00	8.022340e-01	1.099366e+00	1.110415e+00	8.056277e-01	8.094635e-01	1.091894e+00	1.206471e+00	1.157950e+00	1.174454e+00	8.933382e-01	9.969690e-01	1.124412e+00	8.448282e-01	1.286681e+00	1.170390e+00	9.300179e-01	8.610874e-01	8.190009e-01	7.850419e-01	1.199621e+00	1.259563e+00	8.238639e-01	9.164982e-01	1.003312e+00	1.199627e+00	8.735367e-01	9.118501e-01	9.456702e-01	1.133356e+00	8.258081e-01	9.762845e-01	9.657631e-01	9.125962e-01	1.317253e+00	8.363735e-01	1.132815e+00	1.041622e+00	8.603502e-01	9.212279e-01	9.028775e-01	8.580203e-01	9.245412e-01	8.471640e-01	9.965416e-01	9.505634e-01	9.565675e-01	8.548495e-01	9.153236e-01	1.020545e+00	7.829701e-01	9.231615e-01	7.882577e-01	1.041862e+00	1.100601e+00	8.104498e-01	8.517613e-01	1.099650e+00	1.048676e+00	1.108349e+00	1.100930e+00	1.094586e+00	7.974503e-01	8.087230e-01	7.955144e-01	7.828393e-01	9.073183e-01	8.402145e-01	9.140120e-01	7.859514e-01	7.939418e-01	1.098097e+00	1.119024e+00	1.055551e+00	8.542076e-01	1.215365e+00	1.145816e+00	1.131609e+00	1.009141e+00	1.133558e+00	1.234087e+00	1.331030e+00	1.315071e+00	1.102249e+00	1.217657e+00	9.519526e-01	1.163048e+00	1.148578e+00	8.242431e-01	8.755212e-01	1.123034e+00	9.869416e-01	8.799989e-01	1.141663e+00	1.332383e+00	8.564810e-01	8.207342e-01	9.709720e-01	8.033526e-01	9.816429e-01	9.919907e-01	9.376119e-01	1.000350e+00	1.005618e+00	1.017431e+00	1.048623e+00	1.027460e+00	1.058815e+00	1.110021e+00	8.747309e-01	9.359033e-01	9.408049e-01	1.155388e+00	8.599457e-01	8.625834e-01	8.657037e-01	1.074325e+00	8.516687e-01	8.546367e-01	8.296399e-01	1.004245e+00	1.007895e+00	1.011324e+00	8.672349e-01	9.016924e-01	8.789335e-01	8.903158e-01	1.077037e+00	1.094516e+00	9.260308e-01	9.309625e-01	8.918357e-01	8.828815e-01	8.825608e-01	8.863530e-01	9.851706e-01	9.677918e-01	1.165336e+00	8.350744e-01	8.413131e-01	8.489668e-01	8.443685e-01	8.329065e-01	8.298375e-01	8.232616e-01	8.237963e-01	8.272767e-01	1.298375e+00	1.267561e+00	8.001151e-01	1.095895e+00	8.565916e-01	8.468622e-01	8.418860e-01	8.369820e-01	1.095744e+00	1.100204e+00	1.077316e+00	8.323895e-01	8.281313e-01	8.175930e-01	1.069907e+00	1.096253e+00	7.867344e-01	7.895678e-01	7.994316e-01	8.014006e-01	7.870988e-01	7.848496e-01	7.837482e-01	9.889577e-01	9.557163e-01	9.474283e-01	9.807256e-01	1.012984e+00	1.062595e+00	1.034948e+00	1.027853e+00	1.005214e+00	9.971789e-01	9.723835e-01	9.640385e-01	9.392317e-01	9.311277e-01	9.076850e-01	9.003012e-01	8.673044e-01	8.616522e-01	8.932738e-01	8.865326e-01	7.936863e-01	7.920693e-01	7.906633e-01	7.894373e-01	8.808189e-01	8.085784e-01	8.199605e-01	9.555443e-01	9.606220e-01	8.689792e-01	8.722188e-01	1.069772e+00	8.350011e-01	7.832797e-01	7.840031e-01	8.070313e-01	8.052391e-01	8.148273e-01	8.124344e-01	1.091043e+00	1.084530e+00	8.943775e-01	8.985775e-01	1.025281e+00	1.297444e+00	8.252409e-01	1.311613e+00	8.534839e-01	8.291896e-01	9.510556e-01	8.776968e-01	1.007436e+00	1.107317e+00	1.101251e+00	1.096614e+00	1.081225e+00	1.115970e+00	1.160562e+00	1.181452e+00	1.153145e+00	1.200927e+00	1.103893e+00	1.283273e+00	9.202518e-01	1.010843e+00	1.131560e+00	8.756677e-01	1.172915e+00	1.220861e+00	9.222560e-01	1.275978e+00	9.269239e-01	1.131342e+00	9.863531e-01	1.190705e+00	8.325116e-01	9.812250e-01	9.176502e-01	1.139455e+00	1.160731e+00	1.095992e+00	8.592049e-01	1.093259e+00	9.162993e-01	1.125963e+00	8.542832e-01	8.065088e-01	8.137322e-01	7.934582e-01	7.997569e-01	1.171570e+00	1.293316e+00	1.184914e+00	9.088874e-01	1.240764e+00	1.055116e+00	9.322922e-01	1.312131e+00	8.665117e-01	8.627367e-01	1.078011e+00	9.819955e-01	1.017746e+00	9.871835e-01	9.238672e-01	1.097521e+00	1.095651e+00	1.051745e+00	1.045118e+00	8.120115e-01	8.084123e-01	8.009189e-01	7.917102e-01	9.086989e-01	9.131253e-01	8.458010e-01	9.422106e-01	7.926001e-01	1.095969e+00	1.136240e+00	1.029011e+00	1.134255e+00	1.249581e+00	1.315006e+00	1.053674e+00	1.186192e+00	1.178452e+00	1.070321e+00	1.122725e+00	8.819879e-01	8.611051e-01	8.269367e-01	9.708668e-01	9.760368e-01	9.913403e-01	9.960286e-01	9.597745e-01	9.454612e-01	1.000276e+00	1.004056e+00	1.029624e+00	1.041162e+00	1.112212e+00	9.414289e-01	9.462551e-01	1.145975e+00	8.650086e-01	8.679773e-01	8.572346e-01	8.595357e-01	1.031598e+00	1.015028e+00	1.020998e+00	8.815198e-01	8.736655e-01	8.810333e-01	8.845491e-01	1.085512e+00	1.099624e+00	9.317023e-01	9.366129e-01	9.092284e-01	8.990157e-01	8.898294e-01	8.882361e-01	8.920993e-01	1.011517e+00	9.927830e-01	9.754766e-01	8.368328e-01	8.424604e-01	8.483596e-01	8.604756e-01	8.551358e-01	8.502863e-01	8.417745e-01	8.381593e-01	8.289057e-01	8.298629e-01	8.350558e-01	8.181048e-01	8.492061e-01	8.441135e-01	1.096482e+00	8.393106e-01	8.348234e-01	8.306940e-01	8.235905e-01	1.071768e+00	8.041510e-01	8.101477e-01	8.045905e-01	8.027307e-01	7.920252e-01	7.918461e-01	7.916791e-01	9.552760e-01	1.065114e+00	1.058369e+00	1.038454e+00	1.031741e+00	1.024912e+00	1.010345e+00	1.002823e+00	9.950694e-01	9.793039e-01	9.713115e-01	9.632921e-01	9.473183e-01	9.393983e-01	9.315909e-01	9.089081e-01	8.695403e-01	8.642132e-01	9.018131e-01	8.950019e-01	8.884122e-01	7.992343e-01	7.976955e-01	7.964104e-01	7.953101e-01	7.943747e-01	8.287208e-01	8.425498e-01	9.559056e-01	9.608611e-01	9.658128e-01	8.711816e-01	8.744140e-01	8.600633e-01	8.817429e-01	7.925908e-01	7.943949e-01	7.967019e-01	8.102668e-01	8.206298e-01	8.180159e-01	8.156783e-01	1.089393e+00	1.084282e+00	1.078292e+00	8.960741e-01	9.001726e-01	9.043754e-01	8.324447e-01	8.304732e-01	1.289949e+00	9.280704e-01	1.129354e+00	1.097675e+00	8.830843e-01	1.261908e+00	1.159457e+00	1.013173e+00	1.018098e+00	1.057402e+00	1.112691e+00	8.574944e-01	1.271272e+00	9.660751e-01	1.206346e+00	1.092417e+00	1.120626e+00	1.172057e+00	9.172856e-01	1.130641e+00	1.185407e+00	1.188067e+00	9.563846e-01	8.739244e-01	1.104094e+00	8.600133e-01	9.402233e-01	8.662726e-01	8.357650e-01	1.101031e+00	8.780630e-01	1.090334e+00	1.087300e+00	9.861699e-01	7.997817e-01	8.102553e-01	1.122120e+00	8.186345e-01	9.865814e-01	1.146691e+00	1.105997e+00	1.144058e+00	1.078630e+00	1.128372e+00	9.233886e-01	1.231575e+00	9.284988e-01	9.325920e-01	1.154387e+00	1.129952e+00	1.180678e+00	1.015153e+00	8.614096e-01	8.157811e-01	1.219431e+00	1.002430e+00	9.253622e-01	1.048420e+00	8.175720e-01	8.139909e-01	8.120959e-01	9.144651e-01	9.194649e-01	1.095700e+00	1.042577e+00	1.086613e+00	1.254721e+00	1.296773e+00	1.080038e+00	1.065698e+00	1.113093e+00	8.850515e-01	9.764780e-01	9.814640e-01	9.914546e-01	9.961884e-01	9.673747e-01	9.532586e-01	1.000609e+00	1.004873e+00	1.009000e+00	1.041507e+00	1.053085e+00	9.467949e-01	9.520216e-01	1.137240e+00	8.681973e-01	8.708884e-01	8.628940e-01	8.647450e-01	1.024021e+00	1.031678e+00	8.890781e-01	8.805999e-01	8.871767e-01	1.091098e+00	1.102744e+00	9.377119e-01	9.429851e-01	9.168803e-01	9.067459e-01	8.977658e-01	8.901557e-01	8.945424e-01	1.037341e+00	1.017911e+00	9.993895e-01	9.825484e-01	8.403544e-01	8.449218e-01	8.502777e-01	8.555060e-01	8.679181e-01	8.623506e-01	8.571151e-01	8.524154e-01	8.481945e-01	8.372895e-01	8.357938e-01	8.445187e-01	8.519687e-01	1.094598e+00	1.093693e+00	8.469854e-01	8.422957e-01	8.379343e-01	8.339392e-01	8.303358e-01	8.267608e-01	8.370431e-01	8.084357e-01	8.068043e-01	7.995751e-01	7.998837e-01	8.006539e-01	8.014114e-01	1.067032e+00	1.060918e+00	1.054742e+00	1.042061e+00	1.035727e+00	1.029372e+00	1.021902e+00	1.008913e+00	1.000850e+00	9.934107e-01	9.781965e-01	9.709413e-01	9.627701e-01	9.555972e-01	9.473389e-01	9.403369e-01	9.321217e-01	8.672643e-01	8.716853e-01	9.108800e-01	9.031715e-01	8.972622e-01	8.900426e-01	8.052180e-01	8.038530e-01	8.025256e-01	8.015045e-01	8.006099e-01	8.000160e-01	8.491816e-01	8.646961e-01	9.615910e-01	9.667558e-01	9.715113e-01	8.740692e-01	8.764056e-01	8.803246e-01	8.841544e-01	9.071304e-01	9.339870e-01	8.025235e-01	8.048178e-01	8.086179e-01	8.130597e-01	8.271306e-01	8.243275e-01	8.218179e-01	8.194232e-01	1.072930e+00	1.083242e+00	1.078470e+00	8.977988e-01	9.024172e-01	9.059134e-01	9.107364e-01	8.413169e-01	8.387280e-01	8.367965e-01	1.148047e+00	1.125341e+00	1.073701e+00	1.177465e+00	1.171256e+00	9.363689e-01	9.362663e-01	1.193493e+00	1.096513e+00	1.235368e+00	1.081053e+00	8.826682e-01	8.075843e-01	1.018729e+00	1.127191e+00	1.235004e+00	1.292331e+00	1.294382e+00	1.281529e+00	1.250853e+00	1.138725e+00	8.218801e-01	1.084565e+00	1.121531e+00	1.026541e+00	9.595633e-01	8.664506e-01	1.115923e+00	1.068629e+00	1.082000e+00	8.773255e-01	8.677007e-01	9.226638e-01	9.813196e-01	8.605766e-01	8.874791e-01	8.229910e-01	1.109671e+00	9.483552e-01	1.165199e+00	1.099797e+00	1.292585e+00	1.182391e+00	1.173230e+00	1.019715e+00	1.061216e+00	1.266776e+00	9.859070e-01	1.215153e+00	1.088027e+00	1.162050e+00	1.177068e+00	1.178082e+00	1.125464e+00	8.423554e-01	8.430780e-01	1.104117e+00	8.873925e-01	1.085386e+00	1.113478e+00	9.275409e-01	1.200200e+00	8.193420e-01	8.181912e-01	8.156464e-01	9.187583e-01	1.053311e+00	1.090028e+00	1.275313e+00	1.103685e+00	9.825536e-01	9.866717e-01	9.920498e-01	9.964778e-01	9.611717e-01	9.754313e-01	1.001604e+00	1.005597e+00	1.010540e+00	1.015610e+00	1.052035e+00	1.062703e+00	9.507859e-01	1.128575e+00	8.712801e-01	8.741499e-01	8.679851e-01	8.702870e-01	1.033974e+00	1.042184e+00	8.964110e-01	8.873414e-01	1.095030e+00	1.104729e+00	9.443455e-01	9.247403e-01	9.138740e-01	9.071703e-01	8.946845e-01	1.042308e+00	1.023712e+00	1.005908e+00	9.904046e-01	8.451941e-01	8.475677e-01	8.527364e-01	8.570478e-01	8.623088e-01	8.748923e-01	8.704538e-01	8.633969e-01	8.598729e-01	8.541658e-01	1.094056e+00	1.092109e+00	1.090214e+00	8.544111e-01	8.503413e-01	8.450053e-01	8.415469e-01	8.368808e-01	8.442144e-01	8.563515e-01	8.146829e-01	8.123586e-01	8.069711e-01	8.097631e-01	8.117544e-01	1.062736e+00	1.057303e+00	1.051229e+00	1.045393e+00	1.039178e+00	1.033234e+00	1.026395e+00	1.016501e+00	1.007096e+00	9.954048e-01	9.666393e-01	9.518509e-01	9.371586e-01	9.086700e-01	8.963147e-01	8.117716e-01	8.096862e-01	8.094696e-01	8.075453e-01	8.079119e-01	8.071909e-01	8.071688e-01	8.706084e-01	8.867799e-01	9.677344e-01	9.722140e-01	9.772598e-01	8.772542e-01	8.811007e-01	9.067074e-01	9.305768e-01	9.565429e-01	8.137455e-01	8.167372e-01	8.216140e-01	8.286353e-01	8.357463e-01	8.342221e-01	8.303883e-01	8.287046e-01	8.258474e-01	1.078204e+00	1.072945e+00	9.023023e-01	9.103271e-01	8.516122e-01	8.471134e-01	8.457195e-01	8.427744e-01	1.166078e+00	1.154374e+00	1.181133e+00	1.255009e+00	1.180682e+00	1.088606e+00	1.106553e+00	1.183428e+00	1.086404e+00	1.141046e+00	1.105940e+00	1.255345e+00	1.081805e+00	1.161522e+00	8.283199e-01	1.177728e+00	1.061000e+00	1.152371e+00	1.141409e+00	1.079418e+00	8.887887e-01	1.101714e+00	8.496425e-01	1.035162e+00	1.024792e+00	9.105973e-01	9.441761e-01	8.864679e-01	1.231226e+00	8.726302e-01	9.701318e-01	9.572777e-01	8.171646e-01	1.094245e+00	1.066033e+00	1.212920e+00	1.031049e+00	1.070052e+00	1.170731e+00	1.097581e+00	1.291367e+00	1.245004e+00	1.113742e+00	9.441300e-01	8.700032e-01	8.600584e-01	1.112128e+00	1.173869e+00	1.129520e+00	1.275265e+00	1.176732e+00	1.064245e+00	1.216968e+00	1.199796e+00	8.879587e-01	1.101533e+00	1.083947e+00	1.080339e+00	8.785901e-01	8.245458e-01	8.210096e-01	9.358529e-01	1.091876e+00	1.122802e+00	1.122169e+00	9.901171e-01	9.994819e-01	9.829825e-01	1.009053e+00	1.017505e+00	1.060614e+00	1.120996e+00	8.760490e-01	1.043359e+00	1.051495e+00	8.996165e-01	1.097454e+00	9.513458e-01	9.587361e-01	9.280075e-01	9.145609e-01	8.954236e-01	1.046639e+00	1.028081e+00	1.011310e+00	9.997510e-01	8.534414e-01	8.612387e-01	8.688074e-01	8.740221e-01	8.636522e-01	1.091456e+00	1.088962e+00	8.506138e-01	8.424902e-01	8.759718e-01	8.181672e-01	8.224352e-01	1.003203e+00	1.056073e+00	1.044845e+00	1.033305e+00	1.022718e+00	1.013326e+00	9.908586e-01	9.771731e-01	9.630773e-01	9.489414e-01	9.347875e-01	9.208200e-01	9.081149e-01	8.976100e-01	8.161036e-01	8.147874e-01	8.149977e-01	8.137333e-01	8.157992e-01	8.921688e-01	9.090220e-01	9.672354e-01	9.753177e-01	9.832505e-01	8.800545e-01	8.837772e-01	9.281706e-01	9.512413e-01	9.763701e-01	1.002473e+00	8.262562e-01	8.298637e-01	8.354226e-01	8.439111e-01	8.547660e-01	8.607631e-01	8.362288e-01	8.326544e-01	1.077799e+00	1.073294e+00	9.028341e-01	9.187121e-01	9.271973e-01	8.557641e-01	8.507700e-01	1.117388e+00	1.166019e+00	1.161178e+00	1.136252e+00	1.025457e+00	1.108369e+00	1.173798e+00	1.135621e+00	1.185598e+00	1.135180e+00	1.147604e+00	1.126776e+00	1.092526e+00	1.193628e+00	1.235637e+00	1.088367e+00	9.515744e-01	8.359657e-01	1.125042e+00	1.017123e+00	1.099444e+00	8.876230e-01	1.066683e+00	1.169561e+00	8.756780e-01	1.043567e+00	9.189832e-01	8.966262e-01	1.083528e+00	1.091447e+00	1.082176e+00	1.067003e+00	1.171389e+00	1.098735e+00	1.103072e+00	1.082832e+00	8.283132e-01	8.985298e-01	9.355730e-01	9.897319e-01	1.150517e+00	1.157257e+00	1.272015e+00	1.075361e+00	1.085452e+00	1.175645e+00	1.099194e+00	1.169056e+00	1.152263e+00	8.908507e-01	1.224914e+00	9.799540e-01	9.646591e-01	1.094848e+00	1.233614e+00	1.067209e+00	1.106562e+00	9.438896e-01	1.254321e+00	1.176116e+00	1.005239e+00	1.213100e+00	1.200151e+00	8.801005e-01	1.117592e+00	1.079351e+00	8.890657e-01	8.319120e-01	9.086481e-01	1.118349e+00	1.143452e+00	9.980244e-01	1.007574e+00	1.025394e+00	1.034302e+00	1.114270e+00	8.793661e-01	1.051243e+00	1.058999e+00	8.698598e-01	9.748596e-01	9.827924e-01	9.588233e-01	9.500285e-01	9.347565e-01	9.199521e-01	1.049046e+00	8.580993e-01	8.628127e-01	9.055450e-01	8.916197e-01	9.271545e-01	1.091450e+00	8.707363e-01	8.610947e-01	8.331280e-01	1.059489e+00	1.049547e+00	1.009811e+00	1.038882e+00	1.028576e+00	1.019150e+00	9.991207e-01	9.867773e-01	9.735588e-01	9.600822e-01	9.464855e-01	9.328408e-01	9.199326e-01	8.254453e-01	8.236151e-01	8.227241e-01	8.227563e-01	8.229405e-01	8.273178e-01	9.123005e-01	9.305307e-01	9.665973e-01	9.900136e-01	8.826095e-01	8.863353e-01	9.484982e-01	9.694089e-01	9.929435e-01	1.016452e+00	1.041023e+00	8.401962e-01	8.460056e-01	8.513606e-01	8.595789e-01	8.716796e-01	8.523632e-01	8.453404e-01	8.402413e-01	1.074560e+00	1.067820e+00	9.035743e-01	9.111291e-01	8.791307e-01	8.690186e-01	8.617176e-01	8.577796e-01	1.152327e+00	1.152978e+00	1.149676e+00	1.121130e+00	1.156086e+00	1.140383e+00	1.113606e+00	1.050481e+00	1.172800e+00	1.120685e+00	1.117931e+00	1.071725e+00	1.166005e+00	1.084786e+00	8.331012e-01	1.137607e+00	1.141597e+00	1.128287e+00	1.169441e+00	1.070960e+00	9.260399e-01	1.027021e+00	1.024942e+00	9.594616e-01	1.132801e+00	1.131996e+00	1.128186e+00	1.171839e+00	1.172191e+00	9.001829e-01	9.