# vtk DataFile Version 3.0
vtk output
ASCII
DATASET UNSTRUCTURED_GRID
POINTS 200 float
9.997500e-01	-3.633243e-05	0.0	9.990000e-01	-1.454724e-04	0.0	9.977600e-01	-3.275077e-04	0.0	9.960200e-01	-5.899288e-04	0.0	9.937800e-01	-9.471009e-04	0.0	9.910500e-01	-1.422113e-03	0.0	9.878400e-01	-2.045556e-03	0.0	9.841300e-01	-2.853752e-03	0.0	9.799500e-01	-3.859020e-03	0.0	9.752800e-01	-5.058521e-03	0.0	9.701500e-01	-6.405433e-03	0.0	9.645400e-01	-7.841279e-03	0.0	9.584700e-01	-9.290713e-03	0.0	9.519400e-01	-1.069837e-02	0.0	9.449600e-01	-1.203631e-02	0.0	9.375400e-01	-1.330891e-02	0.0	9.296900e-01	-1.454349e-02	0.0	9.214000e-01	-1.577834e-02	0.0	9.127000e-01	-1.704070e-02	0.0	9.035800e-01	-1.835162e-02	0.0	8.940600e-01	-1.971473e-02	0.0	8.841500e-01	-2.112541e-02	0.0	8.738500e-01	-2.257548e-02	0.0	8.631800e-01	-2.405282e-02	0.0	8.521600e-01	-2.554677e-02	0.0	8.407700e-01	-2.705418e-02	0.0	8.290500e-01	-2.856580e-02	0.0	8.170100e-01	-3.007779e-02	0.0	8.046400e-01	-3.158933e-02	0.0	7.919700e-01	-3.309477e-02	0.0	7.790100e-01	-3.459084e-02	0.0	7.657800e-01	-3.607292e-02	0.0	7.522800e-01	-3.753846e-02	0.0	7.385200e-01	-3.898362e-02	0.0	7.245300e-01	-4.040251e-02	0.0	7.103200e-01	-4.179151e-02	0.0	6.958900e-01	-4.314806e-02	0.0	6.812700e-01	-4.446697e-02	0.0	6.664700e-01	-4.574522e-02	0.0	6.515000e-01	-4.698006e-02	0.0	6.363800e-01	-4.816815e-02	0.0	6.211300e-01	-4.930661e-02	0.0	6.057600e-01	-5.039356e-02	0.0	5.902800e-01	-5.142738e-02	0.0	5.747100e-01	-5.240601e-02	0.0	5.590600e-01	-5.332829e-02	0.0	5.433600e-01	-5.419213e-02	0.0	5.276100e-01	-5.499734e-02	0.0	5.118400e-01	-5.574228e-02	0.0	4.960500e-01	-5.642688e-02	0.0	4.802700e-01	-5.704982e-02	0.0	4.645100e-01	-5.761069e-02	0.0	4.487800e-01	-5.810902e-02	0.0	4.331100e-01	-5.854375e-02	0.0	4.175000e-01	-5.891464e-02	0.0	4.019700e-01	-5.922081e-02	0.0	3.865400e-01	-5.946135e-02	0.0	3.712300e-01	-5.963539e-02	0.0	3.560400e-01	-5.974213e-02	0.0	3.409900e-01	-5.978042e-02	0.0	3.261100e-01	-5.974916e-02	0.0	3.114000e-01	-5.964718e-02	0.0	2.968700e-01	-5.947315e-02	0.0	2.825500e-01	-5.922595e-02	0.0	2.684500e-01	-5.890430e-02	0.0	2.545700e-01	-5.850653e-02	0.0	2.409400e-01	-5.803176e-02	0.0	2.275700e-01	-5.747872e-02	0.0	2.144700e-01	-5.684611e-02	0.0	2.016600e-01	-5.613326e-02	0.0	1.891400e-01	-5.533847e-02	0.0	1.769300e-01	-5.446134e-02	0.0	1.650400e-01	-5.350102e-02	0.0	1.534900e-01	-5.245773e-02	0.0	1.422900e-01	-5.133119e-02	0.0	1.314400e-01	-5.012014e-02	0.0	1.209500e-01	-4.882433e-02	0.0	1.108500e-01	-4.744654e-02	0.0	1.011300e-01	-4.598460e-02	0.0	9.181000e-02	-4.444061e-02	0.0	8.290000e-02	-4.281571e-02	0.0	7.440000e-02	-4.110923e-02	0.0	6.633000e-02	-3.932472e-02	0.0	5.869000e-02	-3.746188e-02	0.0	5.149000e-02	-3.552273e-02	0.0	4.474000e-02	-3.350978e-02	0.0	3.844000e-02	-3.142272e-02	0.0	3.260000e-02	-2.926441e-02	0.0	2.723000e-02	-2.703852e-02	0.0	2.232000e-02	-2.474002e-02	0.0	1.790000e-02	-2.238292e-02	0.0	1.395000e-02	-1.995638e-02	0.0	1.049000e-02	-1.747169e-02	0.0	7.520000e-03	-1.492973e-02	0.0	5.040000e-03	-1.233071e-02	0.0	3.050000e-03	-9.673088e-03	0.0	1.560000e-03	-6.972116e-03	0.0	5.600000e-04	-4.206659e-03	0.0	6.000000e-05	-1.384107e-03	0.0	0.000000e+00	0.000000e+00	0.0	6.000000e-05	1.263838e-03	0.0	5.600000e-04	3.625496e-03	0.0	1.560000e-03	5.789704e-03	0.0	3.050000e-03	7.808167e-03	0.0	5.040000e-03	9.725883e-03	0.0	7.520000e-03	1.155059e-02	0.0	1.049000e-02	1.329726e-02	0.0	1.395000e-02	1.497642e-02	0.0	1.790000e-02	1.659595e-02	0.0	2.232000e-02	1.815550e-02	0.0	2.723000e-02	1.966819e-02	0.0	3.260000e-02	2.112990e-02	0.0	3.844000e-02	2.254834e-02	0.0	4.474000e-02	2.392485e-02	0.0	5.149000e-02	2.526083e-02	0.0	5.869000e-02	2.655929e-02	0.0	6.633000e-02	2.782097e-02	0.0	7.440000e-02	2.904652e-02	0.0	8.290000e-02	3.023788e-02	0.0	9.181000e-02	3.139394e-02	0.0	1.011300e-01	3.251620e-02	0.0	1.108500e-01	3.360466e-02	0.0	1.209500e-01	3.465816e-02	0.0	1.314400e-01	3.567859e-02	0.0	1.422900e-01	3.666364e-02	0.0	1.534900e-01	3.761307e-02	0.0	1.650400e-01	3.852723e-02	0.0	1.769300e-01	3.940544e-02	0.0	1.891400e-01	4.024625e-02	0.0	2.016600e-01	4.104886e-02	0.0	2.144700e-01	4.181177e-02	0.0	2.275700e-01	4.253459e-02	0.0	2.409400e-01	4.321560e-02	0.0	2.545700e-01	4.385356e-02	0.0	2.684500e-01	4.444707e-02	0.0	2.825500e-01	4.499382e-02	0.0	2.968700e-01	4.549264e-02	0.0	3.114000e-01	4.594175e-02	0.0	3.261100e-01	4.633869e-02	0.0	3.409900e-01	4.668160e-02	0.0	3.560400e-01	4.696859e-02	0.0	3.712300e-01	4.719710e-02	0.0	3.865400e-01	4.736484e-02	0.0	4.019700e-01	4.746964e-02	0.0	4.175000e-01	4.750906e-02	0.0	4.331100e-01	4.748075e-02	0.0	4.487800e-01	4.738247e-02	0.0	4.645100e-01	4.721188e-02	0.0	4.802700e-01	4.696700e-02	0.0	4.960500e-01	4.664580e-02	0.0	5.118400e-01	4.624636e-02	0.0	5.276100e-01	4.576754e-02	0.0	5.433600e-01	4.520765e-02	0.0	5.590600e-01	4.456632e-02	0.0	5.747100e-01	4.384243e-02	0.0	5.902800e-01	4.303662e-02	0.0	6.057600e-01	4.214916e-02	0.0	6.211300e-01	4.118143e-02	0.0	6.363800e-01	4.013482e-02	0.0	6.515000e-01	3.901127e-02	0.0	6.664700e-01	3.781415e-02	0.0	6.812700e-01	3.654766e-02	0.0	6.958900e-01	3.521595e-02	0.0	7.103200e-01	3.382383e-02	0.0	7.245300e-01	3.237886e-02	0.0	7.385200e-01	3.088638e-02	0.0	7.522800e-01	2.935334e-02	0.0	7.657800e-01	2.778964e-02	0.0	7.790100e-01	2.620365e-02	0.0	7.919700e-01	2.460302e-02	0.0	8.046400e-01	2.299827e-02	0.0	8.170100e-01	2.139904e-02	0.0	8.290500e-01	1.981769e-02	0.0	8.407700e-01	1.826101e-02	0.0	8.521600e-01	1.673745e-02	0.0	8.631800e-01	1.525783e-02	0.0	8.738500e-01	1.382266e-02	0.0	8.841500e-01	1.243514e-02	0.0	8.940600e-01	1.109648e-02	0.0	9.035800e-01	9.804994e-03	0.0	9.127000e-01	8.563382e-03	0.0	9.214000e-01	7.382590e-03	0.0	9.296900e-01	6.279181e-03	0.0	9.375400e-01	5.284120e-03	0.0	9.449600e-01	4.426554e-03	0.0	9.519400e-01	3.731401e-03	0.0	9.584700e-01	3.204776e-03	0.0	9.645400e-01	2.826500e-03	0.0	9.701500e-01	2.551707e-03	0.0	9.752800e-01	2.324589e-03	0.0	9.799500e-01	2.092905e-03	0.0	9.841300e-01	1.826934e-03	0.0	9.878400e-01	1.519854e-03	0.0	9.910500e-01	1.190181e-03	0.0	9.937800e-01	8.630141e-04	0.0	9.960200e-01	5.666242e-04	0.0	9.977600e-01	3.231879e-04	0.0	9.990000e-01	1.450783e-04	0.0	9.997500e-01	3.632619e-05	0.0	1.000000e+00	0.000000e+00	0.0	
CELLS 200	600
2	149	150	2	150	151	2	151	152	2	152	153	2	153	154	2	154	155	2	155	156	2	156	157	2	157	158	2	158	159	2	159	160	2	160	161	2	161	162	2	162	163	2	163	164	2	164	165	2	165	166	2	166	167	2	167	168	2	168	169	2	169	170	2	170	171	2	171	172	2	172	173	2	173	174	2	174	175	2	175	176	2	176	177	2	177	178	2	178	179	2	179	180	2	180	181	2	181	182	2	31	32	2	32	33	2	33	34	2	34	35	2	35	36	2	36	37	2	37	38	2	38	39	2	39	40	2	40	41	2	41	42	2	42	43	2	43	44	2	44	45	2	45	46	2	46	47	2	47	48	2	48	49	2	49	50	2	50	51	2	51	52	2	52	53	2	53	54	2	54	55	2	55	56	2	56	57	2	57	58	2	58	59	2	59	60	2	60	61	2	61	62	2	62	63	2	63	64	2	64	65	2	65	66	2	66	67	2	67	68	2	68	69	2	69	70	2	70	71	2	71	72	2	72	73	2	73	74	2	74	75	2	75	76	2	76	77	2	77	78	2	78	79	2	79	80	2	80	81	2	81	82	2	82	83	2	83	84	2	113	114	2	114	115	2	115	116	2	116	117	2	117	118	2	118	119	2	119	120	2	120	121	2	121	122	2	122	123	2	123	124	2	124	125	2	125	126	2	126	127	2	127	128	2	128	129	2	129	130	2	130	131	2	131	132	2	132	133	2	133	134	2	134	135	2	135	136	2	136	137	2	137	138	2	138	139	2	139	140	2	140	141	2	141	142	2	142	143	2	143	144	2	144	145	2	145	146	2	146	147	2	147	148	2	148	149	2	84	85	2	85	86	2	86	87	2	87	88	2	88	89	2	89	90	2	90	91	2	91	92	2	92	93	2	93	94	2	94	95	2	95	96	2	96	97	2	97	98	2	98	99	2	99	100	2	100	101	2	101	102	2	102	103	2	103	104	2	104	105	2	105	106	2	106	107	2	107	108	2	108	109	2	109	110	2	110	111	2	111	112	2	112	113	2	199	0	2	0	1	2	1	2	2	2	3	2	3	4	2	4	5	2	5	6	2	6	7	2	182	183	2	183	184	2	184	185	2	185	186	2	186	187	2	187	188	2	188	189	2	189	190	2	190	191	2	191	192	2	192	193	2	193	194	2	194	195	2	195	196	2	196	197	2	197	198	2	198	199	2	7	8	2	8	9	2	9	10	2	10	11	2	11	12	2	12	13	2	13	14	2	14	15	2	15	16	2	16	17	2	17	18	2	18	19	2	19	20	2	20	21	2	21	22	2	22	23	2	23	24	2	24	25	2	25	26	2	26	27	2	27	28	2	28	29	2	29	30	2	30	31	
CELL_TYPES 200
3	3	3	3	3	3	3	3	3	3	3	3	3	3	3	3	3	3	3	3	3	3	3	3	3	3	3	3	3	3	3	3	3	3	3	3	3	3	3	3	3	3	3	3	3	3	3	3	3	3	3	3	3	3	3	3	3	3	3	3	3	3	3	3	3	3	3	3	3	3	3	3	3	3	3	3	3	3	3	3	3	3	3	3	3	3	3	3	3	3	3	3	3	3	3	3	3	3	3	3	3	3	3	3	3	3	3	3	3	3	3	3	3	3	3	3	3	3	3	3	3	3	3	3	3	3	3	3	3	3	3	3	3	3	3	3	3	3	3	3	3	3	3	3	3	3	3	3	3	3	3	3	3	3	3	3	3	3	3	3	3	3	3	3	3	3	3	3	3	3	3	3	3	3	3	3	3	3	3	3	3	3	3	3	3	3	3	3	3	3	3	3	3	3	3	3	3	3	3	3	
POINT_DATA 200

SCALARS Conservative_1 float 1
LOOKUP_TABLE default
1.199829e+00	1.181604e+00	1.171181e+00	1.164742e+00	1.160170e+00	1.155705e+00	1.148821e+00	1.137904e+00	1.121722e+00	1.100366e+00	1.075076e+00	1.048463e+00	1.024893e+00	1.008356e+00	9.999811e-01	9.979221e-01	9.990310e-01	1.000473e+00	1.000500e+00	9.985114e-01	9.947273e-01	9.897050e-01	9.840301e-01	9.781741e-01	9.724147e-01	9.668628e-01	9.615098e-01	9.563089e-01	9.511956e-01	9.461384e-01	9.411214e-01	9.361007e-01	9.310423e-01	9.259627e-01	9.209131e-01	9.159419e-01	9.110679e-01	9.062954e-01	9.016359e-01	8.971059e-01	8.927052e-01	8.884444e-01	8.843058e-01	8.803061e-01	8.764602e-01	8.728198e-01	8.693744e-01	8.660599e-01	8.627291e-01	8.593726e-01	8.561927e-01	8.535436e-01	8.515392e-01	8.498877e-01	8.479161e-01	8.448723e-01	8.402557e-01	8.342132e-01	8.276242e-01	8.217468e-01	8.174689e-01	8.149841e-01	8.140197e-01	8.141425e-01	8.150421e-01	8.165195e-01	8.185253e-01	8.209757e-01	8.237845e-01	8.268393e-01	8.301593e-01	8.339076e-01	8.383312e-01	8.434982e-01	8.493319e-01	8.556858e-01	8.626249e-01	8.703275e-01	8.788507e-01	8.882338e-01	8.985886e-01	9.099741e-01	9.225416e-01	9.364091e-01	9.517665e-01	9.688911e-01	9.880110e-01	1.009485e+00	1.033799e+00	1.061267e+00	1.092421e+00	1.127728e+00	1.167035e+00	1.209880e+00	1.254553e+00	1.298040e+00	1.331742e+00	1.350899e+00	1.339540e+00	1.308287e+00	1.284286e+00	1.221144e+00	1.099533e+00	1.002064e+00	9.260606e-01	8.703337e-01	8.323312e-01	8.073086e-01	7.904600e-01	7.790459e-01	7.713709e-01	7.662656e-01	7.631703e-01	7.613473e-01	7.604223e-01	7.603917e-01	7.611270e-01	7.623914e-01	7.638634e-01	7.652155e-01	7.664640e-01	7.679326e-01	7.698806e-01	7.721587e-01	7.743674e-01	7.762782e-01	7.779826e-01	7.796275e-01	7.813163e-01	7.831198e-01	7.850934e-01	7.872213e-01	7.894307e-01	7.916217e-01	7.937515e-01	7.957954e-01	7.977441e-01	7.995589e-01	8.012501e-01	8.029367e-01	8.048389e-01	8.071205e-01	8.098289e-01	8.129073e-01	8.163209e-01	8.200890e-01	8.242231e-01	8.287155e-01	8.334622e-01	8.383332e-01	8.431585e-01	8.479676e-01	8.530046e-01	8.585777e-01	8.647323e-01	8.712498e-01	8.779273e-01	8.847746e-01	8.919594e-01	8.995257e-01	9.074201e-01	9.155551e-01	9.238828e-01	9.323911e-01	9.410497e-01	9.498451e-01	9.587271e-01	9.676782e-01	9.766241e-01	9.855672e-01	9.944245e-01	1.003115e+00	1.011577e+00	1.019726e+00	1.027515e+00	1.034924e+00	1.041999e+00	1.048919e+00	1.055945e+00	1.063467e+00	1.071780e+00	1.080982e+00	1.090690e+00	1.100042e+00	1.107789e+00	1.112593e+00	1.113366e+00	1.109744e+00	1.102492e+00	1.093774e+00	1.086671e+00	1.084151e+00	1.088055e+00	1.098272e+00	1.112847e+00	1.130013e+00	1.148477e+00	1.168635e+00	1.192714e+00	1.181127e+00	
SCALARS Conservative_2 float 1
LOOKUP_TABLE default
7.195741e-01	7.459490e-01	7.640386e-01	7.748466e-01	7.807370e-01	7.855092e-01	7.913140e-01	8.009786e-01	8.159881e-01	8.363959e-01	8.604860e-01	8.849310e-01	9.060873e-01	9.215740e-01	9.308017e-01	9.347653e-01	9.355199e-01	9.351596e-01	9.351435e-01	9.360831e-01	9.380321e-01	9.406895e-01	9.436796e-01	9.467121e-01	9.496002e-01	9.522781e-01	9.547411e-01	9.570310e-01	9.591583e-01	9.611553e-01	9.630571e-01	9.648558e-01	9.665658e-01	9.681848e-01	9.697002e-01	9.710998e-01	9.723983e-01	9.735767e-01	9.746451e-01	9.756189e-01	9.764790e-01	9.772604e-01	9.779368e-01	9.785451e-01	9.790527e-01	9.795006e-01	9.798662e-01	9.802013e-01	9.804743e-01	9.807242e-01	9.808920e-01	9.810049e-01	9.810476e-01	9.810770e-01	9.811125e-01	9.811862e-01	9.812252e-01	9.811484e-01	9.808244e-01	9.803287e-01	9.798242e-01	9.794106e-01	9.791606e-01	9.790092e-01	9.789568e-01	9.789129e-01	9.789002e-01	9.788470e-01	9.787667e-01	9.785923e-01	9.783372e-01	9.779478e-01	9.774259e-01	9.766913e-01	9.757316e-01	9.744063e-01	9.727355e-01	9.706245e-01	9.678426e-01	9.642350e-01	9.597116e-01	9.539803e-01	9.467779e-01	9.376872e-01	9.261929e-01	9.115664e-01	8.928758e-01	8.690462e-01	8.385047e-01	7.991016e-01	7.483507e-01	6.832048e-01	6.000007e-01	4.965357e-01	3.728213e-01	2.366201e-01	1.074487e-01	1.081427e-02	-2.157015e-02	5.237640e-03	7.304613e-02	2.104643e-01	4.134624e-01	5.902261e-01	7.152503e-01	7.968391e-01	8.484330e-01	8.813487e-01	9.026205e-01	9.169515e-01	9.269899e-01	9.341554e-01	9.396232e-01	9.438985e-01	9.473282e-01	9.502686e-01	9.527820e-01	9.549547e-01	9.568841e-01	9.585486e-01	9.600335e-01	9.614525e-01	9.628216e-01	9.640530e-01	9.651512e-01	9.661149e-01	9.669999e-01	9.678111e-01	9.685910e-01	9.693363e-01	9.700795e-01	9.708001e-01	9.715017e-01	9.721529e-01	9.727677e-01	9.733307e-01	9.738547e-01	9.743308e-01	9.747735e-01	9.752007e-01	9.756618e-01	9.761353e-01	9.766252e-01	9.771107e-01	9.775834e-01	9.780407e-01	9.784564e-01	9.788397e-01	9.791152e-01	9.793164e-01	9.794192e-01	9.794522e-01	9.793955e-01	9.792249e-01	9.788781e-01	9.783280e-01	9.776098e-01	9.766669e-01	9.755031e-01	9.740607e-01	9.723376e-01	9.703089e-01	9.679789e-01	9.653313e-01	9.623614e-01	9.590629e-01	9.554348e-01	9.515167e-01	9.472430e-01	9.427248e-01	9.379690e-01	9.329940e-01	9.279158e-01	9.227892e-01	9.176692e-01	9.125817e-01	9.074709e-01	9.022140e-01	8.965184e-01	8.900878e-01	8.825865e-01	8.740073e-01	8.647759e-01	8.559751e-01	8.491449e-01	8.458513e-01	8.471040e-01	8.528075e-01	8.615026e-01	8.705234e-01	8.765635e-01	8.769803e-01	8.704667e-01	8.577559e-01	8.395803e-01	8.174880e-01	7.911900e-01	7.596511e-01	7.213239e-01	6.623545e-01	
SCALARS Conservative_3 float 1
LOOKUP_TABLE default
1.010186e-01	1.066667e-01	1.128621e-01	1.197583e-01	1.301719e-01	1.447877e-01	1.632592e-01	1.836732e-01	2.028813e-01	2.169615e-01	2.227310e-01	2.186129e-01	2.055733e-01	1.874069e-01	1.688388e-01	1.535375e-01	1.431411e-01	1.374090e-01	1.349898e-01	1.342511e-01	1.338970e-01	1.331641e-01	1.317668e-01	1.297328e-01	1.272303e-01	1.244589e-01	1.215522e-01	1.185993e-01	1.156261e-01	1.126202e-01	1.095703e-01	1.064559e-01	1.032656e-01	9.999193e-02	9.662088e-02	9.316734e-02	8.962774e-02	8.602058e-02	8.235223e-02	7.863466e-02	7.488108e-02	7.109837e-02	6.730502e-02	6.350255e-02	5.969850e-02	5.588425e-02	5.206357e-02	4.824854e-02	4.446270e-02	4.071043e-02	3.695540e-02	3.314077e-02	2.924407e-02	2.525229e-02	2.119765e-02	1.712413e-02	1.307683e-02	9.042740e-03	4.914221e-03	5.545769e-04	-4.072970e-03	-8.946810e-03	-1.405553e-02	-1.938771e-02	-2.498161e-02	-3.086527e-02	-3.709503e-02	-4.368774e-02	-5.067700e-02	-5.808275e-02	-6.595195e-02	-7.434873e-02	-8.334345e-02	-9.296864e-02	-1.032670e-01	-1.142904e-01	-1.261499e-01	-1.389123e-01	-1.526534e-01	-1.674975e-01	-1.835631e-01	-2.009626e-01	-2.198517e-01	-2.403652e-01	-2.626237e-01	-2.867453e-01	-3.128011e-01	-3.407363e-01	-3.701646e-01	-4.003546e-01	-4.298307e-01	-4.554863e-01	-4.722469e-01	-4.716969e-01	-4.409186e-01	-3.644847e-01	-2.306804e-01	-3.810690e-02	1.857427e-01	3.518157e-01	4.963118e-01	6.610517e-01	7.236267e-01	6.884370e-01	6.112666e-01	5.275980e-01	4.531279e-01	3.913656e-01	3.411756e-01	3.001606e-01	2.665822e-01	2.386544e-01	2.152027e-01	1.952746e-01	1.781343e-01	1.632675e-01	1.502890e-01	1.388468e-01	1.286867e-01	1.195369e-01	1.111985e-01	1.036026e-01	9.669948e-02	9.039691e-02	8.456465e-02	7.905655e-02	7.384690e-02	6.891109e-02	6.423974e-02	5.978252e-02	5.550756e-02	5.138332e-02	4.737840e-02	4.345500e-02	3.958871e-02	3.575984e-02	3.195460e-02	2.815134e-02	2.432063e-02	2.044202e-02	1.651922e-02	1.255574e-02	8.541924e-03	4.446627e-03	2.497793e-04	-4.058523e-03	-8.478798e-03	-1.300363e-02	-1.764542e-02	-2.240725e-02	-2.730326e-02	-3.235779e-02	-3.752871e-02	-4.279056e-02	-4.809178e-02	-5.344978e-02	-5.887755e-02	-6.435403e-02	-6.982256e-02	-7.524049e-02	-8.056767e-02	-8.579081e-02	-9.085116e-02	-9.571968e-02	-1.003266e-01	-1.046478e-01	-1.086126e-01	-1.121863e-01	-1.153135e-01	-1.179501e-01	-1.200556e-01	-1.215959e-01	-1.225722e-01	-1.230100e-01	-1.229819e-01	-1.226338e-01	-1.221403e-01	-1.216792e-01	-1.213221e-01	-1.209050e-01	-1.198958e-01	-1.173987e-01	-1.122966e-01	-1.037055e-01	-9.143570e-02	-7.640924e-02	-6.078868e-02	-4.765996e-02	-4.026734e-02	-4.081398e-02	-4.939530e-02	-6.377698e-02	-8.015280e-02	-9.479497e-02	-1.049831e-01	-1.097968e-01	-1.102829e-01	-1.061992e-01	-1.003428e-01	2.575516e-03	
SCALARS Conservative_4 float 1
LOOKUP_TABLE default
3.446401e+00	3.400792e+00	3.375506e+00	3.359988e+00	3.348840e+00	3.337969e+00	3.320874e+00	3.293686e+00	3.253313e+00	3.199982e+00	3.136712e+00	3.069893e+00	3.010540e+00	2.968879e+00	2.947807e+00	2.942617e+00	2.945362e+00	2.948919e+00	2.948893e+00	2.943762e+00	2.934088e+00	2.921272e+00	2.906784e+00	2.891819e+00	2.877077e+00	2.862844e+00	2.849099e+00	2.835729e+00	2.822564e+00	2.809527e+00	2.796585e+00	2.783618e+00	2.770539e+00	2.757390e+00	2.744305e+00	2.731407e+00	2.718750e+00	2.706341e+00	2.694211e+00	2.682409e+00	2.670928e+00	2.659805e+00	2.648985e+00	2.638524e+00	2.628449e+00	2.618908e+00	2.609866e+00	2.601170e+00	2.592421e+00	2.583607e+00	2.575241e+00	2.568261e+00	2.562962e+00	2.558592e+00	2.553388e+00	2.545387e+00	2.533255e+00	2.517360e+00	2.499972e+00	2.484412e+00	2.473053e+00	2.466426e+00	2.463841e+00	2.464141e+00	2.466517e+00	2.470422e+00	2.475737e+00	2.482221e+00	2.489660e+00	2.497739e+00	2.506520e+00	2.516417e+00	2.528090e+00	2.541701e+00	2.557057e+00	2.573742e+00	2.591951e+00	2.612144e+00	2.634424e+00	2.658879e+00	2.685818e+00	2.715355e+00	2.747874e+00	2.783640e+00	2.823107e+00	2.866930e+00	2.915625e+00	2.970071e+00	3.031420e+00	3.100323e+00	3.178041e+00	3.265621e+00	3.362424e+00	3.467264e+00	3.575824e+00	3.681276e+00	3.762480e+00	3.809722e+00	3.781253e+00	3.702909e+00	3.649699e+00	3.499949e+00	3.190944e+00	2.943068e+00	2.748064e+00	2.604266e+00	2.505977e+00	2.441180e+00	2.397388e+00	2.367624e+00	2.347583e+00	2.334189e+00	2.326089e+00	2.321341e+00	2.318960e+00	2.318976e+00	2.321014e+00	2.324447e+00	2.328444e+00	2.332120e+00	2.335529e+00	2.339541e+00	2.344827e+00	2.350959e+00	2.356896e+00	2.362035e+00	2.366630e+00	2.371063e+00	2.375615e+00	2.380466e+00	2.385772e+00	2.391482e+00	2.397408e+00	2.403277e+00	2.408982e+00	2.414452e+00	2.419668e+00	2.424525e+00	2.429054e+00	2.433571e+00	2.438670e+00	2.444769e+00	2.451997e+00	2.460198e+00	2.469281e+00	2.479297e+00	2.490270e+00	2.502185e+00	2.514747e+00	2.527628e+00	2.540375e+00	2.553076e+00	2.566367e+00	2.581054e+00	2.597239e+00	2.614344e+00	2.631849e+00	2.649762e+00	2.668530e+00	2.688257e+00	2.708803e+00	2.729933e+00	2.751523e+00	2.773538e+00	2.795896e+00	2.818563e+00	2.841405e+00	2.864386e+00	2.887289e+00	2.910152e+00	2.932751e+00	2.954874e+00	2.976381e+00	2.997058e+00	3.016793e+00	3.035535e+00	3.053399e+00	3.070846e+00	3.088511e+00	3.107381e+00	3.128179e+00	3.151158e+00	3.175365e+00	3.198685e+00	3.218043e+00	3.230145e+00	3.232257e+00	3.223411e+00	3.205425e+00	3.183656e+00	3.165760e+00	3.159202e+00	3.168661e+00	3.194013e+00	3.230148e+00	3.272664e+00	3.318100e+00	3.367490e+00	3.426998e+00	3.383859e+00	
SCALARS Pressure float 1
LOOKUP_TABLE default
1.290549e+00	1.264207e+00	1.248340e+00	1.238439e+00	1.231536e+00	1.224781e+00	1.214697e+00	1.198782e+00	1.175269e+00	1.144287e+00	1.107710e+00	1.069460e+00	1.035759e+00	1.012133e+00	1.000140e+00	9.972011e-01	9.988338e-01	1.000971e+00	1.001104e+00	9.983831e-01	9.931168e-01	9.861050e-01	9.781880e-01	9.700338e-01	9.620373e-01	9.543509e-01	9.469623e-01	9.397992e-01	9.327769e-01	9.258477e-01	9.189820e-01	9.121273e-01	9.052360e-01	8.983302e-01	8.914800e-01	8.847515e-01	8.781652e-01	8.717329e-01	8.654669e-01	8.593845e-01	8.534920e-01	8.477929e-01	8.422732e-01	8.369439e-01	8.318354e-01	8.270035e-01	8.224427e-01	8.180532e-01	8.136522e-01	8.092147e-01	8.050267e-01	8.015472e-01	7.989334e-01	7.967833e-01	7.942028e-01	7.901868e-01	7.840924e-01	7.761316e-01	7.675063e-01	7.598620e-01	7.543321e-01	7.511487e-01	7.499269e-01	7.501115e-01	7.512865e-01	7.532147e-01	7.558189e-01	7.590083e-01	7.626592e-01	7.666402e-01	7.709671e-01	7.758676e-01	7.816593e-01	7.884478e-01	7.961233e-01	8.045241e-01	8.137106e-01	8.239274e-01	8.352974e-01	8.478868e-01	8.618291e-01	8.772426e-01	8.943407e-01	9.133230e-01	9.344881e-01	9.582728e-01	9.850635e-01	1.015397e+00	1.050039e+00	1.089583e+00	1.134862e+00	1.186674e+00	1.245055e+00	1.309370e+00	1.377178e+00	1.443414e+00	1.495266e+00	1.523656e+00	1.507281e+00	1.462238e+00	1.420689e+00	1.321155e+00	1.150036e+00	1.013103e+00	9.080436e-01	8.318302e-01	7.800844e-01	7.460913e-01	7.233648e-01	7.080660e-01	6.978063e-01	6.910438e-01	6.869239e-01	6.844751e-01	6.832035e-01	6.830672e-01	6.839313e-01	6.854905e-01	6.873057e-01	6.889677e-01	6.904873e-01	6.922732e-01	6.946784e-01	6.975399e-01	7.003235e-01	7.027286e-01	7.048620e-01	7.069233e-01	7.090388e-01	7.113073e-01	7.137935e-01	7.164843e-01	7.192815e-01	7.220627e-01	7.247662e-01	7.273651e-01	7.298426e-01	7.321508e-01	7.342988e-01	7.364399e-01	7.388518e-01	7.417601e-01	7.452255e-01	7.491778e-01	7.535717e-01	7.584320e-01	7.637804e-01	7.696014e-01	7.757797e-01	7.821297e-01	7.884330e-01	7.947186e-01	8.013138e-01	8.086298e-01	8.167426e-01	8.253686e-01	8.342276e-01	8.433479e-01	8.529447e-01	8.630899e-01	8.737108e-01	8.846981e-01	8.959864e-01	9.075626e-01	9.193882e-01	9.314454e-01	9.436704e-01	9.560282e-01	9.684435e-01	9.808886e-01	9.932580e-01	1.005447e+00	1.017347e+00	1.028842e+00	1.039860e+00	1.050367e+00	1.060434e+00	1.070310e+00	1.080384e+00	1.091208e+00	1.103231e+00	1.116581e+00	1.130703e+00	1.144307e+00	1.155530e+00	1.162396e+00	1.163335e+00	1.157883e+00	1.147238e+00	1.134590e+00	1.124439e+00	1.121051e+00	1.127005e+00	1.141987e+00	1.163395e+00	1.188652e+00	1.216111e+00	1.246306e+00	1.281863e+00	1.279255e+00	
SCALARS Temperature float 1
LOOKUP_TABLE default
1.075611e+00	1.069907e+00	1.065882e+00	1.063273e+00	1.061513e+00	1.059769e+00	1.057342e+00	1.053500e+00	1.047737e+00	1.039915e+00	1.030355e+00	1.020027e+00	1.010602e+00	1.003746e+00	1.000159e+00	9.992775e-01	9.998026e-01	1.000498e+00	1.000603e+00	9.998714e-01	9.983810e-01	9.963625e-01	9.940631e-01	9.916781e-01	9.893282e-01	9.870593e-01	9.848702e-01	9.827360e-01	9.806363e-01	9.785542e-01	9.764756e-01	9.743901e-01	9.722823e-01	9.701581e-01	9.680393e-01	9.659472e-01	9.638856e-01	9.618640e-01	9.598851e-01	9.579521e-01	9.560736e-01	9.542442e-01	9.524683e-01	9.507419e-01	9.490851e-01	9.475077e-01	9.460167e-01	9.445689e-01	9.431144e-01	9.416343e-01	9.402400e-01	9.390817e-01	9.382226e-01	9.375159e-01	9.366526e-01	9.352737e-01	9.331593e-01	9.303756e-01	9.273608e-01	9.246911e-01	9.227655e-01	9.216728e-01	9.212638e-01	9.213516e-01	9.217763e-01	9.224699e-01	9.233910e-01	9.245198e-01	9.257994e-01	9.271938e-01	9.286979e-01	9.304001e-01	9.323991e-01	9.347357e-01	9.373524e-01	9.402097e-01	9.432960e-01	9.466867e-01	9.504429e-01	9.545761e-01	9.590920e-01	9.640304e-01	9.694312e-01	9.753461e-01	9.818460e-01	9.890408e-01	9.970167e-01	1.005857e+00	1.015709e+00	1.026681e+00	1.038850e+00	1.052270e+00	1.066853e+00	1.082231e+00	1.097744e+00	1.111995e+00	1.122790e+00	1.127883e+00	1.125222e+00	1.117673e+00	1.106209e+00	1.081899e+00	1.045931e+00	1.011016e+00	9.805445e-01	9.557600e-01	9.372283e-01	9.241711e-01	9.151188e-01	9.088886e-01	9.046314e-01	9.018333e-01	9.000926e-01	8.990313e-01	8.984527e-01	8.983096e-01	8.985772e-01	8.991320e-01	8.997756e-01	9.003578e-01	9.008738e-01	9.014765e-01	9.023197e-01	9.033634e-01	9.043814e-01	9.052535e-01	9.060126e-01	9.067450e-01	9.074927e-01	9.082995e-01	9.091829e-01	9.101435e-01	9.111395e-01	9.121310e-01	9.130896e-01	9.140101e-01	9.148831e-01	9.156934e-01	9.164414e-01	9.171831e-01	9.180120e-01	9.190202e-01	9.202258e-01	9.216030e-01	9.231317e-01	9.248166e-01	9.266672e-01	9.286678e-01	9.307917e-01	9.329580e-01	9.350947e-01	9.372039e-01	9.394015e-01	9.418249e-01	9.445033e-01	9.473387e-01	9.502240e-01	9.531782e-01	9.562595e-01	9.594944e-01	9.628515e-01	9.662969e-01	9.698053e-01	9.733712e-01	9.769816e-01	9.806288e-01	9.842951e-01	9.879609e-01	9.916237e-01	9.952529e-01	9.988270e-01	1.002324e+00	1.005704e+00	1.008940e+00	1.012014e+00	1.014922e+00	1.017692e+00	1.020393e+00	1.023144e+00	1.026086e+00	1.029345e+00	1.032932e+00	1.036686e+00	1.040239e+00	1.043096e+00	1.044763e+00	1.044881e+00	1.043379e+00	1.040586e+00	1.037316e+00	1.034756e+00	1.034035e+00	1.035798e+00	1.039803e+00	1.045423e+00	1.051893e+00	1.058891e+00	1.066463e+00	1.074745e+00	1.083080e+00	
SCALARS Pressure_Coefficient float 1
LOOKUP_TABLE default
6.485472e-01	5.897483e-01	5.543314e-01	5.322297e-01	5.168204e-01	5.017433e-01	4.792349e-01	4.437098e-01	3.912264e-01	3.220691e-01	2.404242e-01	1.550437e-01	7.981826e-02	2.708327e-02	3.120807e-04	-6.247628e-03	-2.603138e-03	2.168288e-03	2.463299e-03	-3.609219e-03	-1.536421e-02	-3.101557e-02	-4.868747e-02	-6.688880e-02	-8.473819e-02	-1.018953e-01	-1.183877e-01	-1.343768e-01	-1.500515e-01	-1.655185e-01	-1.808436e-01	-1.961445e-01	-2.115268e-01	-2.269416e-01	-2.422321e-01	-2.572510e-01	-2.719526e-01	-2.863105e-01	-3.002971e-01	-3.138739e-01	-3.270269e-01	-3.397480e-01	-3.520687e-01	-3.639646e-01	-3.753674e-01	-3.861529e-01	-3.963332e-01	-4.061313e-01	-4.159548e-01	-4.258601e-01	-4.352083e-01	-4.429750e-01	-4.488094e-01	-4.536087e-01	-4.593687e-01	-4.683330e-01	-4.819367e-01	-4.997063e-01	-5.189592e-01	-5.360224e-01	-5.483657e-01	-5.554716e-01	-5.581988e-01	-5.577869e-01	-5.551641e-01	-5.508601e-01	-5.450472e-01	-5.379279e-01	-5.297786e-01	-5.208923e-01	-5.112341e-01	-5.002954e-01	-4.873677e-01	-4.722147e-01	-4.550820e-01	-4.363302e-01	-4.158245e-01	-3.930191e-01	-3.676397e-01	-3.395385e-01	-3.084171e-01	-2.740120e-01	-2.358468e-01	-1.934756e-01	-1.462319e-01	-9.314102e-02	-3.334043e-02	3.436936e-02	1.116944e-01	1.999629e-01	3.010312e-01	4.166836e-01	5.469984e-01	6.905569e-01	8.419160e-01	9.897642e-01	1.105505e+00	1.168876e+00	1.132323e+00	1.031781e+00	9.390376e-01	7.168629e-01	3.349009e-01	2.924888e-02	-2.052599e-01	-3.753790e-01	-4.908831e-01	-5.667606e-01	-6.174892e-01	-6.516385e-01	-6.745395e-01	-6.896344e-01	-6.988305e-01	-7.042967e-01	-7.071351e-01	-7.074394e-01	-7.055104e-01	-7.020302e-01	-6.979784e-01	-6.942684e-01	-6.908765e-01	-6.868902e-01	-6.815214e-01	-6.751342e-01	-6.689207e-01	-6.635523e-01	-6.587901e-01	-6.541890e-01	-6.494670e-01	-6.444034e-01	-6.388538e-01	-6.328475e-01	-6.266038e-01	-6.203958e-01	-6.143611e-01	-6.085601e-01	-6.030299e-01	-5.978777e-01	-5.930830e-01	-5.883037e-01	-5.829202e-01	-5.764284e-01	-5.686931e-01	-5.598709e-01	-5.500633e-01	-5.392144e-01	-5.272758e-01	-5.142825e-01	-5.004917e-01	-4.863177e-01	-4.722478e-01	-4.582175e-01	-4.434959e-01	-4.271656e-01	-4.090568e-01	-3.898022e-01	-3.700277e-01	-3.496700e-01	-3.282485e-01	-3.056030e-01	-2.818956e-01	-2.573704e-01	-2.321731e-01	-2.063334e-01	-1.799370e-01	-1.530236e-01	-1.257358e-01	-9.815127e-02	-7.043856e-02	-4.265935e-02	-1.504904e-02	1.215846e-02	3.872192e-02	6.437984e-02	8.897298e-02	1.124266e-01	1.348971e-01	1.569414e-01	1.794293e-01	2.035900e-01	2.304269e-01	2.602253e-01	2.917467e-01	3.221131e-01	3.471654e-01	3.624918e-01	3.645878e-01	3.524181e-01	3.286554e-01	3.004233e-01	2.777655e-01	2.702031e-01	2.834936e-01	3.169343e-01	3.647217e-01	4.210990e-01	4.823911e-01	5.497911e-01	6.291588e-01	6.233377e-01	
SCALARS Mach float 1
LOOKUP_TABLE default
4.935176e-01	5.210690e-01	5.398339e-01	5.517289e-01	5.596423e-01	5.674002e-01	5.780644e-01	5.946513e-01	6.189187e-01	6.508078e-01	6.883818e-01	7.275289e-01	7.621439e-01	7.867548e-01	7.994597e-01	8.025640e-01	8.007151e-01	7.982639e-01	7.978925e-01	8.004724e-01	8.057151e-01	8.127861e-01	8.208015e-01	8.290721e-01	8.371795e-01	8.449698e-01	8.524519e-01	8.597155e-01	8.668328e-01	8.738631e-01	8.808551e-01	8.878444e-01	8.948832e-01	9.019520e-01	9.089784e-01	9.158932e-01	9.226855e-01	9.293261e-01	9.358073e-01	9.421210e-01	9.482402e-01	9.541851e-01	9.599423e-01	9.655268e-01	9.708746e-01	9.759564e-01	9.807508e-01	9.853988e-01	9.900603e-01	9.947962e-01	9.992503e-01	1.002946e+00	1.005683e+00	1.007934e+00	1.010681e+00	1.015063e+00	1.021772e+00	1.030583e+00	1.040100e+00	1.048507e+00	1.054559e+00	1.057989e+00	1.059273e+00	1.058997e+00	1.057665e+00	1.055488e+00	1.052594e+00	1.049046e+00	1.045020e+00	1.040627e+00	1.035882e+00	1.030506e+00	1.024180e+00	1.016772e+00	1.008454e+00	9.993473e-01	9.894787e-01	9.785976e-01	9.664926e-01	9.531075e-01	9.383998e-01	9.222094e-01	9.043651e-01	8.846436e-01	8.627360e-01	8.381682e-01	8.104979e-01	7.792242e-01	7.435049e-01	7.024658e-01	6.550648e-01	5.998935e-01	5.353536e-01	4.598766e-01	3.712636e-01	2.683128e-01	1.524107e-01	2.333480e-02	1.112197e-01	2.150001e-01	3.138801e-01	4.616115e-01	6.263823e-01	7.606410e-01	8.671435e-01	9.492604e-01	1.008849e+00	1.050143e+00	1.078503e+00	1.097914e+00	1.111133e+00	1.119804e+00	1.125192e+00	1.128474e+00	1.130263e+00	1.130705e+00	1.129878e+00	1.128163e+00	1.126172e+00	1.124371e+00	1.122775e+00	1.120909e+00	1.118298e+00	1.115064e+00	1.111909e+00	1.109204e+00	1.106848e+00	1.104574e+00	1.102252e+00	1.099745e+00	1.096999e+00	1.094011e+00	1.090910e+00	1.087822e+00	1.084834e+00	1.081963e+00	1.079238e+00	1.076708e+00	1.074371e+00	1.072053e+00	1.069460e+00	1.066304e+00	1.062527e+00	1.058209e+00	1.053409e+00	1.048112e+00	1.042286e+00	1.035977e+00	1.029267e+00	1.022410e+00	1.015632e+00	1.008927e+00	1.001926e+00	9.941868e-01	9.856090e-01	9.765002e-01	9.671998e-01	9.576427e-01	9.476355e-01	9.370850e-01	9.260849e-01	9.147389e-01	9.031236e-01	8.912501e-01	8.791554e-01	8.668582e-01	8.544124e-01	8.418784e-01	8.292604e-01	8.166592e-01	8.041483e-01	7.918031e-01	7.797703e-01	7.681519e-01	7.570176e-01	7.463960e-01	7.361933e-01	7.261629e-01	7.158565e-01	7.047306e-01	6.922738e-01	6.783904e-01	6.636603e-01	6.495094e-01	6.379726e-01	6.311746e-01	6.306910e-01	6.368253e-01	6.481150e-01	6.611651e-01	6.712602e-01	6.740833e-01	6.671647e-01	6.512540e-01	6.284718e-01	6.014928e-01	5.712781e-01	5.371570e-01	4.977820e-01	4.554103e-01	