# vtk DataFile Version 3.0
vtk output
ASCII
DATASET UNSTRUCTURED_GRID
POINTS 5233 float
9.997500e-01	-3.633243e-05	0.0	9.990000e-01	-1.454724e-04	0.0	9.977600e-01	-3.275078e-04	0.0	9.960200e-01	-5.899294e-04	0.0	9.937800e-01	-9.471030e-04	0.0	9.910500e-01	-1.422119e-03	0.0	9.878400e-01	-2.045570e-03	0.0	9.841300e-01	-2.853778e-03	0.0	9.799500e-01	-3.859066e-03	0.0	9.752800e-01	-5.058592e-03	0.0	9.701500e-01	-6.405535e-03	0.0	9.645400e-01	-7.841414e-03	0.0	9.584700e-01	-9.290879e-03	0.0	9.519400e-01	-1.069857e-02	0.0	9.449600e-01	-1.203653e-02	0.0	9.375400e-01	-1.330915e-02	0.0	9.296900e-01	-1.454375e-02	0.0	9.214000e-01	-1.577862e-02	0.0	9.127000e-01	-1.704100e-02	0.0	9.035800e-01	-1.835192e-02	0.0	8.940600e-01	-1.971505e-02	0.0	8.841500e-01	-2.112575e-02	0.0	8.738500e-01	-2.257583e-02	0.0	8.631800e-01	-2.405318e-02	0.0	8.521600e-01	-2.554714e-02	0.0	8.407700e-01	-2.705456e-02	0.0	8.290500e-01	-2.856619e-02	0.0	8.170100e-01	-3.007819e-02	0.0	8.046400e-01	-3.158974e-02	0.0	7.919700e-01	-3.309518e-02	0.0	7.790100e-01	-3.459125e-02	0.0	7.657800e-01	-3.607333e-02	0.0	7.522800e-01	-3.753887e-02	0.0	7.385200e-01	-3.898402e-02	0.0	7.245300e-01	-4.040291e-02	0.0	7.103200e-01	-4.179191e-02	0.0	6.958900e-01	-4.314846e-02	0.0	6.812700e-01	-4.446735e-02	0.0	6.664700e-01	-4.574560e-02	0.0	6.515000e-01	-4.698042e-02	0.0	6.363800e-01	-4.816850e-02	0.0	6.211300e-01	-4.930694e-02	0.0	6.057600e-01	-5.039388e-02	0.0	5.902800e-01	-5.142768e-02	0.0	5.747100e-01	-5.240629e-02	0.0	5.590600e-01	-5.332856e-02	0.0	5.433600e-01	-5.419238e-02	0.0	5.276100e-01	-5.499757e-02	0.0	5.118400e-01	-5.574249e-02	0.0	4.960500e-01	-5.642707e-02	0.0	4.802700e-01	-5.704999e-02	0.0	4.645100e-01	-5.761084e-02	0.0	4.487800e-01	-5.810917e-02	0.0	4.331100e-01	-5.854388e-02	0.0	4.175000e-01	-5.891476e-02	0.0	4.019700e-01	-5.922091e-02	0.0	3.865400e-01	-5.946144e-02	0.0	3.712300e-01	-5.963547e-02	0.0	3.560400e-01	-5.974221e-02	0.0	3.409900e-01	-5.978049e-02	0.0	3.261100e-01	-5.974923e-02	0.0	3.114000e-01	-5.964726e-02	0.0	2.968700e-01	-5.947323e-02	0.0	2.825500e-01	-5.922604e-02	0.0	2.684500e-01	-5.890440e-02	0.0	2.545700e-01	-5.850663e-02	0.0	2.409400e-01	-5.803188e-02	0.0	2.275700e-01	-5.747886e-02	0.0	2.144700e-01	-5.684627e-02	0.0	2.016600e-01	-5.613343e-02	0.0	1.891400e-01	-5.533867e-02	0.0	1.769300e-01	-5.446156e-02	0.0	1.650400e-01	-5.350125e-02	0.0	1.534900e-01	-5.245799e-02	0.0	1.422900e-01	-5.133147e-02	0.0	1.314400e-01	-5.012044e-02	0.0	1.209500e-01	-4.882465e-02	0.0	1.108500e-01	-4.744688e-02	0.0	1.011300e-01	-4.598496e-02	0.0	9.181000e-02	-4.444099e-02	0.0	8.290000e-02	-4.281610e-02	0.0	7.440000e-02	-4.110963e-02	0.0	6.633000e-02	-3.932514e-02	0.0	5.869000e-02	-3.746230e-02	0.0	5.149000e-02	-3.552315e-02	0.0	4.474000e-02	-3.351020e-02	0.0	3.844000e-02	-3.142313e-02	0.0	3.260000e-02	-2.926481e-02	0.0	2.723000e-02	-2.703890e-02	0.0	2.232000e-02	-2.474039e-02	0.0	1.790000e-02	-2.238326e-02	0.0	1.395000e-02	-1.995669e-02	0.0	1.049000e-02	-1.747196e-02	0.0	7.520000e-03	-1.492997e-02	0.0	5.040000e-03	-1.233090e-02	0.0	3.050000e-03	-9.673234e-03	0.0	1.560000e-03	-6.972215e-03	0.0	5.600000e-04	-4.206711e-03	0.0	6.000000e-05	-1.384118e-03	0.0	0.000000e+00	0.000000e+00	0.0	6.000000e-05	1.263822e-03	0.0	5.600000e-04	3.625417e-03	0.0	1.560000e-03	5.789547e-03	0.0	3.050000e-03	7.807924e-03	0.0	5.040000e-03	9.725554e-03	0.0	7.520000e-03	1.155018e-02	0.0	1.049000e-02	1.329678e-02	0.0	1.395000e-02	1.497587e-02	0.0	1.790000e-02	1.659536e-02	0.0	2.232000e-02	1.815487e-02	0.0	2.723000e-02	1.966754e-02	0.0	3.260000e-02	2.112926e-02	0.0	3.844000e-02	2.254772e-02	0.0	4.474000e-02	2.392429e-02	0.0	5.149000e-02	2.526033e-02	0.0	5.869000e-02	2.655888e-02	0.0	6.633000e-02	2.782067e-02	0.0	7.440000e-02	2.904636e-02	0.0	8.290000e-02	3.023787e-02	0.0	9.181000e-02	3.139410e-02	0.0	1.011300e-01	3.251655e-02	0.0	1.108500e-01	3.360520e-02	0.0	1.209500e-01	3.465893e-02	0.0	1.314400e-01	3.567958e-02	0.0	1.422900e-01	3.666486e-02	0.0	1.534900e-01	3.761453e-02	0.0	1.650400e-01	3.852893e-02	0.0	1.769300e-01	3.940738e-02	0.0	1.891400e-01	4.024842e-02	0.0	2.016600e-01	4.105126e-02	0.0	2.144700e-01	4.181440e-02	0.0	2.275700e-01	4.253742e-02	0.0	2.409400e-01	4.321863e-02	0.0	2.545700e-01	4.385676e-02	0.0	2.684500e-01	4.445042e-02	0.0	2.825500e-01	4.499730e-02	0.0	2.968700e-01	4.549623e-02	0.0	3.114000e-01	4.594542e-02	0.0	3.261100e-01	4.634242e-02	0.0	3.409900e-01	4.668534e-02	0.0	3.560400e-01	4.697233e-02	0.0	3.712300e-01	4.720081e-02	0.0	3.865400e-01	4.736849e-02	0.0	4.019700e-01	4.747320e-02	0.0	4.175000e-01	4.751251e-02	0.0	4.331100e-01	4.748406e-02	0.0	4.487800e-01	4.738562e-02	0.0	4.645100e-01	4.721485e-02	0.0	4.802700e-01	4.696977e-02	0.0	4.960500e-01	4.664836e-02	0.0	5.118400e-01	4.624870e-02	0.0	5.276100e-01	4.576965e-02	0.0	5.433600e-01	4.520952e-02	0.0	5.590600e-01	4.456796e-02	0.0	5.747100e-01	4.384384e-02	0.0	5.902800e-01	4.303780e-02	0.0	6.057600e-01	4.215012e-02	0.0	6.211300e-01	4.118218e-02	0.0	6.363800e-01	4.013538e-02	0.0	6.515000e-01	3.901165e-02	0.0	6.664700e-01	3.781436e-02	0.0	6.812700e-01	3.654772e-02	0.0	6.958900e-01	3.521588e-02	0.0	7.103200e-01	3.382365e-02	0.0	7.245300e-01	3.237859e-02	0.0	7.385200e-01	3.088603e-02	0.0	7.522800e-01	2.935293e-02	0.0	7.657800e-01	2.778918e-02	0.0	7.790100e-01	2.620316e-02	0.0	7.919700e-01	2.460250e-02	0.0	8.046400e-01	2.299774e-02	0.0	8.170100e-01	2.139852e-02	0.0	8.290500e-01	1.981717e-02	0.0	8.407700e-01	1.826051e-02	0.0	8.521600e-01	1.673696e-02	0.0	8.631800e-01	1.525737e-02	0.0	8.738500e-01	1.382222e-02	0.0	8.841500e-01	1.243472e-02	0.0	8.940600e-01	1.109609e-02	0.0	9.035800e-01	9.804631e-03	0.0	9.127000e-01	8.563043e-03	0.0	9.214000e-01	7.382275e-03	0.0	9.296900e-01	6.278890e-03	0.0	9.375400e-01	5.283854e-03	0.0	9.449600e-01	4.426314e-03	0.0	9.519400e-01	3.731190e-03	0.0	9.584700e-01	3.204598e-03	0.0	9.645400e-01	2.826357e-03	0.0	9.701500e-01	2.551600e-03	0.0	9.752800e-01	2.324514e-03	0.0	9.799500e-01	2.092857e-03	0.0	9.841300e-01	1.826906e-03	0.0	9.878400e-01	1.519840e-03	0.0	9.910500e-01	1.190174e-03	0.0	9.937800e-01	8.630119e-04	0.0	9.960200e-01	5.666235e-04	0.0	9.977600e-01	3.231877e-04	0.0	9.990000e-01	1.450783e-04	0.0	9.997500e-01	3.632618e-05	0.0	1.000000e+00	0.000000e+00	0.0	1.984229e+01	2.506660e+00	0.0	1.937166e+01	4.973800e+00	0.0	1.859553e+01	7.362490e+00	0.0	1.752613e+01	9.635070e+00	0.0	1.618034e+01	1.175571e+01	0.0	1.457937e+01	1.369094e+01	0.0	1.274848e+01	1.541027e+01	0.0	1.071654e+01	1.688656e+01	0.0	8.515590e+00	1.809654e+01	0.0	6.180340e+00	1.902113e+01	0.0	3.747630e+00	1.964575e+01	0.0	1.255810e+00	1.996053e+01	0.0	-1.255810e+00	1.996053e+01	0.0	-3.747630e+00	1.964574e+01	0.0	-6.180340e+00	1.902113e+01	0.0	-8.515590e+00	1.809654e+01	0.0	-1.071654e+01	1.688656e+01	0.0	-1.274848e+01	1.541026e+01	0.0	-1.457937e+01	1.369094e+01	0.0	-1.618034e+01	1.175570e+01	0.0	-1.752613e+01	9.635070e+00	0.0	-1.859553e+01	7.362490e+00	0.0	-1.937166e+01	4.973800e+00	0.0	-1.984229e+01	2.506660e+00	0.0	-2.000000e+01	0.000000e+00	0.0	-1.984229e+01	-2.506670e+00	0.0	-1.937166e+01	-4.973800e+00	0.0	-1.859553e+01	-7.362490e+00	0.0	-1.752613e+01	-9.635080e+00	0.0	-1.618034e+01	-1.175571e+01	0.0	-1.457937e+01	-1.369094e+01	0.0	-1.274848e+01	-1.541027e+01	0.0	-1.071653e+01	-1.688656e+01	0.0	-8.515580e+00	-1.809654e+01	0.0	-6.180340e+00	-1.902113e+01	0.0	-3.747620e+00	-1.964575e+01	0.0	-1.255810e+00	-1.996053e+01	0.0	1.255810e+00	-1.996053e+01	0.0	3.747630e+00	-1.964574e+01	0.0	6.180340e+00	-1.902113e+01	0.0	8.515590e+00	-1.809654e+01	0.0	1.071654e+01	-1.688656e+01	0.0	1.274848e+01	-1.541026e+01	0.0	1.457937e+01	-1.369094e+01	0.0	1.618034e+01	-1.175570e+01	0.0	1.752614e+01	-9.635070e+00	0.0	1.859553e+01	-7.362490e+00	0.0	1.937166e+01	-4.973790e+00	0.0	1.984229e+01	-2.506660e+00	0.0	2.000000e+01	0.000000e+00	0.0	6.074225e-02	-4.532536e-02	0.0	6.601883e-01	-6.002423e-02	0.0	4.255534e-01	6.172246e-02	0.0	6.897642e-01	4.910359e-02	0.0	3.791232e-01	-7.360742e-02	0.0	9.994675e-01	-7.275904e-04	0.0	9.985544e-01	-1.331425e-03	0.0	7.738132e-01	-4.740234e-02	0.0	6.898600e-01	-5.715047e-02	0.0	-1.127413e-03	5.517243e-03	0.0	7.467800e-01	-5.080979e-02	0.0	5.833312e-01	5.753208e-02	0.0	9.928160e-01	-3.736263e-03	0.0	9.899359e-01	-4.744239e-03	0.0	5.989073e-01	5.659710e-02	0.0	7.187646e-01	-5.406593e-02	0.0	-1.468829e-03	5.998637e-04	0.0	9.865726e-01	-5.906578e-03	0.0	9.827329e-01	-7.226537e-03	0.0	-1.302309e-03	-6.473726e-03	0.0	6.451051e-01	-6.137481e-02	0.0	8.244819e-01	-4.029997e-02	0.0	7.997421e-01	-4.389639e-02	0.0	3.484811e-01	6.060881e-02	0.0	8.479020e-01	-3.666943e-02	0.0	2.473657e-01	5.609975e-02	0.0	8.699421e-01	-3.302898e-02	0.0	1.046375e-02	1.734563e-02	0.0	8.904958e-01	-2.943478e-02	0.0	7.702141e-02	-4.970334e-02	0.0	9.094910e-01	-2.594159e-02	0.0	-1.766979e-03	-3.207294e-03	0.0	9.424826e-01	-1.916921e-02	0.0	9.268475e-01	-2.255134e-02	0.0	1.794758e-02	-2.750001e-02	0.0	4.257416e-01	-7.303827e-02	0.0	8.591036e-01	-3.484500e-02	0.0	9.563356e-01	-1.566764e-02	0.0	9.784089e-01	-8.725577e-03	0.0	9.683301e-01	-1.208111e-02	0.0	1.582633e-01	-6.357708e-02	0.0	9.001951e-01	-2.767359e-02	0.0	7.604295e-01	-4.912188e-02	0.0	9.971359e-01	-2.087289e-03	0.0	5.990500e-01	-6.504734e-02	0.0	4.414441e-01	-7.268845e-02	0.0	5.363196e-01	-6.898217e-02	0.0	4.730157e-01	-7.175606e-02	0.0	5.046766e-01	-7.051872e-02	0.0	4.888342e-01	-7.117432e-02	0.0	1.249493e-01	-5.906906e-02	0.0	2.784396e-02	-3.298014e-02	0.0	3.945689e-01	-7.349944e-02	0.0	4.621885e-02	-4.062717e-02	0.0	4.101097e-01	-7.331005e-02	0.0	3.187147e-01	-7.321551e-02	0.0	3.486125e-01	-7.358216e-02	0.0	3.350753e-02	-3.559364e-02	0.0	2.895105e-01	-7.251021e-02	0.0	9.348850e-01	-2.086715e-02	0.0	1.468046e-01	-6.216510e-02	0.0	1.946435e-01	-6.723656e-02	0.0	8.579563e-02	-5.176099e-02	0.0	1.045869e-01	-5.560808e-02	0.0	5.678223e-01	-6.716251e-02	0.0	1.700658e-01	-6.489525e-02	0.0	6.145275e-01	-6.388568e-02	0.0	8.804132e-01	-3.122344e-02	0.0	2.266792e-02	-3.028059e-02	0.0	9.952218e-01	-2.870152e-03	0.0	6.736101e-03	-1.882374e-02	0.0	1.849195e-02	2.151476e-02	0.0	9.183776e-01	-2.423699e-02	0.0	9.49640
[...]
POINT_DATA 5233

SCALARS Conservative_1 float 1
LOOKUP_TABLE default
1.199829e+00	1.181605e+00	1.171182e+00	1.164743e+00	1.160172e+00	1.155707e+00	1.148823e+00	1.137906e+00	1.121724e+00	1.100367e+00	1.075076e+00	1.048462e+00	1.024892e+00	1.008355e+00	9.999791e-01	9.979201e-01	9.990292e-01	1.000472e+00	1.000499e+00	9.985098e-01	9.947256e-01	9.897032e-01	9.840282e-01	9.781721e-01	9.724126e-01	9.668607e-01	9.615075e-01	9.563066e-01	9.511933e-01	9.461361e-01	9.411190e-01	9.360982e-01	9.310398e-01	9.259601e-01	9.209105e-01	9.159394e-01	9.110653e-01	9.062927e-01	9.016332e-01	8.971033e-01	8.927028e-01	8.884420e-01	8.843035e-01	8.803038e-01	8.764581e-01	8.728180e-01	8.693729e-01	8.660587e-01	8.627282e-01	8.593719e-01	8.561921e-01	8.535430e-01	8.515385e-01	8.498869e-01	8.479157e-01	8.448732e-01	8.402587e-01	8.342185e-01	8.276311e-01	8.217539e-01	8.174751e-01	8.149889e-01	8.140231e-01	8.141448e-01	8.150436e-01	8.165204e-01	8.185256e-01	8.209754e-01	8.237838e-01	8.268381e-01	8.301575e-01	8.339054e-01	8.383286e-01	8.434952e-01	8.493285e-01	8.556821e-01	8.626209e-01	8.703232e-01	8.788462e-01	8.882292e-01	8.985839e-01	9.099693e-01	9.225369e-01	9.364044e-01	9.517621e-01	9.688869e-01	9.880072e-01	1.009482e+00	1.033796e+00	1.061266e+00	1.092420e+00	1.127728e+00	1.167036e+00	1.209882e+00	1.254555e+00	1.298042e+00	1.331744e+00	1.350899e+00	1.339538e+00	1.308283e+00	1.284279e+00	1.221133e+00	1.099515e+00	1.002044e+00	9.260431e-01	8.703221e-01	8.323268e-01	8.073114e-01	7.904698e-01	7.790623e-01	7.713934e-01	7.662938e-01	7.632039e-01	7.613859e-01	7.604656e-01	7.604394e-01	7.611786e-01	7.624463e-01	7.639211e-01	7.652756e-01	7.665264e-01	7.679974e-01	7.699472e-01	7.722261e-01	7.744346e-01	7.763447e-01	7.780480e-01	7.796915e-01	7.813784e-01	7.831790e-01	7.851486e-01	7.872709e-01	7.894731e-01	7.916549e-01	7.937730e-01	7.958022e-01	7.977330e-01	7.995270e-01	8.011932e-01	8.028473e-01	8.047035e-01	8.069213e-01	8.095535e-01	8.125641e-01	8.159516e-01	8.197659e-01	8.240240e-01	8.286853e-01	8.335838e-01	8.385315e-01	8.433439e-01	8.480873e-01	8.530543e-01	8.585847e-01	8.647295e-01	8.712554e-01	8.779427e-01	8.847943e-01	8.919794e-01	8.995453e-01	9.074398e-01	9.155748e-01	9.239019e-01	9.324091e-01	9.410667e-01	9.498610e-01	9.587420e-01	9.676920e-01	9.766367e-01	9.855788e-01	9.944351e-01	1.003125e+00	1.011586e+00	1.019734e+00	1.027522e+00	1.034930e+00	1.042004e+00	1.048924e+00	1.055950e+00	1.063471e+00	1.071784e+00	1.080985e+00	1.090693e+00	1.100046e+00	1.107791e+00	1.112596e+00	1.113368e+00	1.109746e+00	1.102493e+00	1.093775e+00	1.086670e+00	1.084151e+00	1.088054e+00	1.098271e+00	1.112846e+00	1.130013e+00	1.148476e+00	1.168635e+00	1.192714e+00	1.181127e+00	9.999764e-01	9.999694e-01	9.999528e-01	9.999288e-01	9.999047e-01	9.998765e-01	9.998369e-01	9.997817e-01	9.997190e-01	9.996670e-01	9.996325e-01	9.996441e-01	9.996984e-01	9.998091e-01	9.999042e-01	9.999809e-01	1.000023e+00	1.000049e+00	1.000064e+00	1.000070e+00	1.000073e+00	1.000074e+00	1.000074e+00	1.000076e+00	1.000077e+00	1.000080e+00	1.000085e+00	1.000092e+00	1.000101e+00	1.000114e+00	1.000129e+00	1.000150e+00	1.000169e+00	1.000196e+00	1.000213e+00	1.000224e+00	1.000226e+00	1.000213e+00	1.000203e+00	1.000190e+00	1.000183e+00	1.000168e+00	1.000151e+00	1.000130e+00	1.000106e+00	1.000078e+00	1.000060e+00	1.000046e+00	1.000013e+00	9.999797e-01	9.442873e-01	9.020491e-01	8.215041e-01	9.232882e-01	8.406927e-01	1.183063e+00	1.173572e+00	9.407883e-01	9.112547e-01	1.217039e+00	9.308146e-01	8.721070e-01	1.151722e+00	1.144992e+00	8.787215e-01	9.208729e-01	1.307650e+00	1.136021e+00	1.123653e+00	1.337687e+00	8.976321e-01	9.608890e-01	9.507279e-01	8.072791e-01	9.714604e-01	7.943183e-01	9.825674e-01	8.784587e-01	9.931786e-01	9.170859e-01	1.000608e+00	1.344667e+00	1.006080e+00	1.002992e+00	1.100350e+00	8.522854e-01	9.769705e-01	1.025351e+00	1.107400e+00	1.065589e+00	8.484134e-01	9.974878e-01	9.358211e-01	1.164149e+00	8.851183e-01	8.538295e-01	8.706216e-01	8.576806e-01	8.639577e-01	8.606293e-01	8.682898e-01	1.042961e+00	8.461792e-01	9.775122e-01	8.499739e-01	8.197320e-01	8.278192e-01	1.018680e+00	8.182155e-01	1.003603e+00	8.544348e-01	8.347952e-01	9.053500e-01	8.849559e-01	8.774821e-01	8.431487e-01	8.891715e-01	9.880741e-01	1.070092e+00	1.157653e+00	1.209196e+00	8.235104e-01	1.002347e+00	1.012760e+00	1.087637e+00	1.133916e+00	9.661067e-01	8.224929e-01	8.739720e-01	9.258090e-01	9.457410e-01	8.761908e-01	8.279872e-01	8.812134e-01	9.065981e-01	9.600519e-01	1.248742e+00	1.133817e+00	8.341549e-01	8.386829e-01	1.211159e+00	8.250342e-01	8.946726e-01	8.183212e-01	8.204695e-01	8.554447e-01	9.160147e-01	1.279748e+00	1.318487e+00	8.546433e-01	1.324594e+00	7.951232e-01	7.745638e-01	7.811325e-01	7.755841e-01	8.178580e-01	1.140211e+00	8.498382e-01	8.350096e-01	1.097230e+00	1.105876e+00	1.052295e+00	8.400667e-01	8.255973e-01	8.117565e-01	1.083655e+00	1.067058e+00	7.730350e-01	1.092474e+00	1.106622e+00	1.099070e+00	7.739664e-01	7.731643e-01	8.003701e-01	7.964013e-01	7.836375e-01	8.039294e-01	8.301330e-01	8.146150e-01	7.807647e-01	7.771861e-01	8.923655e-01	7.865422e-01	7.901490e-01	9.073003e-01	8.657048e-01	9.570026e-01	9.399113e-01	9.915195e-01	9.742992e-01	1.023944e+00	1.008246e+00	1.059456e+00	1.038448e+00	1.104238e+00	1.075194e+00	1.102349e+00	1.031337e+00	1.045376e+00	9.999748e-01	1.016243e+00	9.656468e-01	9.829520e-01	9.315251e-01	9.484096e-01	8.996536e-01	9.151987e-01	8.598434e-01	8.854255e-01	7.882451e-01	7.922095e-01	7.822640e-01	7.850337e-01	7.771504e-01	7.790483e-01	8.465118e-01	7.868844e-01	8.312658e-01	9.815178e-01	1.043719e+00	9.557699e-01	8.228442e-01	8.673265e-01	1.053481e+00	8.069127e-01	9.226632e-01	7.735155e-01	7.727710e-01	7.984215e-01	7.745415e-01	1.090295e+00	1.092368e+00	8.022149e-01	1.099365e+00	1.110415e+00	8.055586e-01	8.093033e-01	1.091897e+00	1.206471e+00	1.157950e+00	1.174454e+00	8.933358e-01	9.969656e-01	1.124411e+00	8.450425e-01	1.286683e+00	1.170391e+00	9.300135e-01	8.610839e-01	8.190026e-01	7.850926e-01	1.199615e+00	1.259558e+00	8.238658e-01	9.164957e-01	1.003310e+00	1.199628e+00	8.735345e-01	9.118476e-01	9.456680e-01	1.133357e+00	8.258138e-01	9.762826e-01	9.657610e-01	9.125921e-01	1.317254e+00	8.363726e-01	1.132815e+00	1.041621e+00	8.603472e-01	9.212256e-01	9.028751e-01	8.580194e-01	9.245371e-01	8.471669e-01	9.965400e-01	9.505613e-01	9.565626e-01	8.548588e-01	9.153420e-01	1.020553e+00	7.830330e-01	9.231797e-01	7.883238e-01	1.041867e+00	1.100601e+00	8.103638e-01	8.519449e-01	1.099652e+00	1.048681e+00	1.108349e+00	1.100932e+00	1.094586e+00	7.974951e-01	8.086693e-01	7.955661e-01	7.828994e-01	9.073158e-01	8.402131e-01	9.140111e-01	7.860183e-01	7.939789e-01	1.098098e+00	1.119024e+00	1.055556e+00	8.542050e-01	1.215365e+00	1.145816e+00	1.131609e+00	1.009133e+00	1.133550e+00	1.234088e+00	1.331029e+00	1.315069e+00	1.102248e+00	1.217658e+00	9.519487e-01	1.163049e+00	1.148580e+00	8.238844e-01	8.755198e-01	1.123035e+00	9.869398e-01	8.800033e-01	1.141665e+00	1.332383e+00	8.564801e-01	8.204009e-01	9.709701e-01	8.033624e-01	9.816411e-01	9.919890e-01	9.376078e-01	1.000349e+00	1.005616e+00	1.017429e+00	1.048621e+00	1.027459e+00	1.058815e+00	1.110022e+00	8.747274e-01	9.359009e-01	9.408026e-01	1.155389e+00	8.599450e-01	8.625827e-01	8.657029e-01	1.074323e+00	8.516695e-01	8.546361e-01	8.296466e-01	1.004242e+00	1.007894e+00	1.011323e+00	8.672316e-01	9.016884e-01	8.789317e-01	8.903136e-01	1.077038e+00	1.094517e+00	9.260285e-01	9.309602e-01	8.918318e-01	8.828777e-01	8.825588e-01	8.863509e-01	9.851671e-01	9.677881e-01	1.165337e+00	8.350810e-01	8.413183e-01	8.489645e-01	8.443666e-01	8.329061e-01	8.298375e-01	8.232646e-01	8.238006e-01	8.272773e-01	1.298372e+00	1.267563e+00	8.001470e-01	1.095895e+00	8.567110e-01	8.470559e-01	8.420039e-01	8.369522e-01	1.095745e+00	1.100206e+00	1.077320e+00	8.321955e-01	8.278171e-01	8.173251e-01	1.069911e+00	1.096256e+00	7.867811e-01	7.896099e-01	7.994675e-01	8.014250e-01	7.871655e-01	7.849159e-01	7.838132e-01	9.889685e-01	9.557309e-01	9.474438e-01	9.807373e-01	1.012992e+00	1.062600e+00	1.034954e+00	1.027860e+00	1.005223e+00	9.971889e-01	9.723962e-01	9.640521e-01	9.392482e-01	9.311452e-01	9.077032e-01	9.003196e-01	8.673128e-01	8.617023e-01	8.932917e-01	8.865460e-01	7.937432e-01	7.921300e-01	7.907266e-01	7.895023e-01	8.808228e-01	8.086047e-01	8.199812e-01	9.555421e-01	9.606199e-01	8.689783e-01	8.722176e-01	1.069763e+00	8.350161e-01	7.833368e-01	7.840572e-01	8.070023e-01	8.052310e-01	8.146335e-01	8.123030e-01	1.091046e+00	1.084533e+00	8.943752e-01	8.985751e-01	1.025278e+00	1.297445e+00	8.252421e-01	1.311613e+00	8.534856e-01	8.291918e-01	9.510535e-01	8.776955e-01	1.007434e+00	1.107317e+00	1.101252e+00	1.096616e+00	1.081219e+00	1.115970e+00	1.160561e+00	1.181452e+00	1.153146e+00	1.200927e+00	1.103892e+00	1.283270e+00	9.202480e-01	1.010842e+00	1.131561e+00	8.756709e-01	1.172915e+00	1.220861e+00	9.222537e-01	1.275979e+00	9.269216e-01	1.131342e+00	9.863514e-01	1.190705e+00	8.325175e-01	9.812233e-01	9.176479e-01	1.139456e+00	1.160731e+00	1.095993e+00	8.593501e-01	1.093261e+00	9.163169e-01	1.125963e+00	8.544669e-01	8.065275e-01	8.136644e-01	7.935246e-01	7.998018e-01	1.171570e+00	1.293317e+00	1.184909e+00	9.088914e-01	1.240760e+00	1.055116e+00	9.322884e-01	1.312129e+00	8.665089e-01	8.627358e-01	1.078009e+00	9.819924e-01	1.017754e+00	9.871942e-01	9.238847e-01	1.097521e+00	1.095654e+00	1.051750e+00	1.045123e+00	8.119717e-01	8.084147e-01	8.009681e-01	7.917698e-01	9.086965e-01	9.131229e-01	8.457997e-01	9.422105e-01	7.926664e-01	1.095971e+00	1.136240e+00	1.029006e+00	1.134249e+00	1.249582e+00	1.315005e+00	1.053672e+00	1.186192e+00	1.178452e+00	1.070322e+00	1.122726e+00	8.819883e-01	8.611041e-01	8.265972e-01	9.708649e-01	9.760350e-01	9.913387e-01	9.960271e-01	9.597709e-01	9.454575e-01	1.000275e+00	1.004055e+00	1.029623e+00	1.041162e+00	1.112213e+00	9.414267e-01	9.462529e-01	1.145976e+00	8.650079e-01	8.679766e-01	8.572346e-01	8.595349e-01	1.031596e+00	1.015027e+00	1.020997e+00	8.815165e-01	8.736624e-01	8.810317e-01	8.845472e-01	1.085513e+00	1.099625e+00	9.317001e-01	9.366107e-01	9.092247e-01	8.990120e-01	8.898259e-01	8.882340e-01	8.920972e-01	1.011514e+00	9.927799e-01	9.754732e-01	8.368392e-01	8.424662e-01	8.483635e-01	8.604731e-01	8.551336e-01	8.502846e-01	8.417737e-01	8.381589e-01	8.289091e-01	8.298676e-01	8.350559e-01	8.181345e-01	8.493610e-01	8.441593e-01	1.096484e+00	8.392014e-01	8.345735e-01	8.303639e-01	8.232960e-01	1.071772e+00	8.041910e-01	8.101827e-01	8.046220e-01	8.027723e-01	7.920907e-01	7.919102e-01	7.917412e-01	9.552901e-01	1.065118e+00	1.058373e+00	1.038460e+00	1.031748e+00	1.024919e+00	1.010354e+00	1.002832e+00	9.950793e-01	9.793155e-01	9.713240e-01	9.633054e-01	9.473334e-01	9.394143e-01	9.316078e-01	9.089255e-01	8.695689e-01	8.642938e-01	9.018303e-01	8.950167e-01	8.884203e-01	7.992893e-01	7.977548e-01	7.964729e-01	7.953747e-01	7.944406e-01	8.287450e-01	8.425687e-01	9.559035e-01	9.608590e-01	9.658108e-01	8.711808e-01	8.744129e-01	8.600768e-01	8.817515e-01	7.926472e-01	7.944477e-01	7.967509e-01	8.102498e-01	8.204034e-01	8.178566e-01	8.155725e-01	1.089396e+00	1.084285e+00	1.078296e+00	8.960720e-01	9.001704e-01	9.043731e-01	8.324454e-01	8.304746e-01	1.289949e+00	9.280669e-01	1.129354e+00	1.097676e+00	8.830829e-01	1.261906e+00	1.159458e+00	1.013172e+00	1.018097e+00	1.057400e+00	1.112691e+00	8.576532e-01	1.271273e+00	9.660759e-01	1.206347e+00	1.092419e+00	1.120627e+00	1.172053e+00	9.173031e-01	1.130637e+00	1.185407e+00	1.188068e+00	9.563827e-01	8.739218e-01	1.104093e+00	8.600142e-01	9.402198e-01	8.662717e-01	8.357676e-01	1.101032e+00	8.780829e-01	1.090337e+00	1.087303e+00	9.861804e-01	7.998472e-01	8.102816e-01	1.122121e+00	8.186720e-01	9.865798e-01	1.146691e+00	1.105998e+00	1.144059e+00	1.078630e+00	1.128372e+00	9.233863e-01	1.231576e+00	9.284967e-01	9.325898e-01	1.154387e+00	1.129953e+00	1.180678e+00	1.015161e+00	8.615696e-01	8.157537e-01	1.219428e+00	1.002428e+00	9.253794e-01	1.048425e+00	8.175195e-01	8.139848e-01	8.121076e-01	9.144628e-01	9.194626e-01	1.095701e+00	1.042574e+00	1.086609e+00	1.254722e+00	1.296773e+00	1.080037e+00	1.065698e+00	1.113094e+00	8.850506e-01	9.764762e-01	9.814624e-01	9.914531e-01	9.961870e-01	9.673714e-01	9.532552e-01	1.000607e+00	1.004872e+00	1.008999e+00	1.041507e+00	1.053084e+00	9.467929e-01	9.520196e-01	1.137241e+00	8.681965e-01	8.708876e-01	8.628935e-01	8.647441e-01	1.024020e+00	1.031677e+00	8.890750e-01	8.805971e-01	8.871751e-01	1.091099e+00	1.102745e+00	9.377098e-01	9.429830e-01	9.168768e-01	9.067425e-01	8.977626e-01	8.901538e-01	8.945404e-01	1.037339e+00	1.017909e+00	9.993867e-01	9.825453e-01	8.403602e-01	8.449275e-01	8.502823e-01	8.555088e-01	8.679158e-01	8.623486e-01	8.571136e-01	8.524142e-01	8.481938e-01	8.372944e-01	8.357975e-01	8.445184e-01	8.520640e-01	1.094600e+00	1.093695e+00	8.469567e-01	8.421282e-01	8.376624e-01	8.336231e-01	8.300337e-01	8.267931e-01	8.370701e-01	8.084733e-01	8.068505e-01	7.996395e-01	7.999464e-01	8.007145e-01	8.014696e-01	1.067036e+00	1.060922e+00	1.054746e+00	1.042066e+00	1.035733e+00	1.029378e+00	1.021909e+00	1.008921e+00	1.000858e+00	9.934205e-01	9.782078e-01	9.709534e-01	9.627830e-01	9.556108e-01	9.473535e-01	9.403524e-01	9.321383e-01	8.673766e-01	8.717419e-01	9.108969e-01	9.031866e-01	8.972708e-01	8.900437e-01	8.052706e-01	8.039104e-01	8.025866e-01	8.015681e-01	8.006752e-01	8.000819e-01	8.492035e-01	8.647130e-01	9.615890e-01	9.667540e-01	9.715095e-01	8.740684e-01	8.764047e-01	8.803235e-01	8.841665e-01	9.071382e-01	9.339910e-01	8.025786e-01	8.048689e-01	8.086645e-01	8.131019e-01	8.268793e-01	8.241385e-01	8.216874e-01	8.193382e-01	1.072934e+00	1.083245e+00	1.078473e+00	8.977968e-01	9.024151e-01	9.059113e-01	9.107342e-01	8.413171e-01	8.387289e-01	8.367981e-01	1.148046e+00	1.125341e+00	1.073701e+00	1.177465e+00	1.171256e+00	9.363668e-01	9.362631e-01	1.193493e+00	1.096514e+00	1.235369e+00	1.081052e+00	8.826658e-01	8.076475e-01	1.018729e+00	1.127188e+00	1.235002e+00	1.292329e+00	1.294380e+00	1.281527e+00	1.250853e+00	1.138726e+00	8.218425e-01	1.084566e+00	1.121532e+00	1.026540e+00	9.595615e-01	8.664508e-01	1.115924e+00	1.068632e+00	1.082002e+00	8.773984e-01	8.678412e-01	9.226815e-01	9.813302e-01	8.606857e-01	8.874777e-01	8.229253e-01	1.109672e+00	9.483521e-01	1.165199e+00	1.099798e+00	1.292584e+00	1.182392e+00	1.173231e+00	1.019714e+00	1.061214e+00	1.266776e+00	9.859084e-01	1.215153e+00	1.088029e+00	1.162047e+00	1.177068e+00	1.178082e+00	1.125464e+00	8.423593e-01	8.430807e-01	1.104118e+00	8.874032e-01	1.085388e+00	1.113479e+00	9.275388e-01	1.200198e+00	8.193277e-01	8.181961e-01	8.156673e-01	9.187562e-01	1.053309e+00	1.090025e+00	1.275313e+00	1.103684e+00	9.825521e-01	9.866702e-01	9.920484e-01	9.964765e-01	9.611687e-01	9.754284e-01	1.001603e+00	1.005596e+00	1.010539e+00	1.015609e+00	1.052035e+00	1.062703e+00	9.507840e-01	1.128576e+00	8.712792e-01	8.741490e-01	8.679844e-01	8.702861e-01	1.033973e+00	1.042184e+00	8.964082e-01	8.873388e-01	1.095031e+00	1.104730e+00	9.443435e-01	9.247371e-01	9.138709e-01	9.071673e-01	8.946827e-01	1.042306e+00	1.023710e+00	1.005906e+00	9.904019e-01	8.451987e-01	8.475730e-01	8.527412e-01	8.570515e-01	8.623107e-01	8.748901e-01	8.704519e-01	8.633955e-01	8.598718e-01	8.541652e-01	1.094058e+00	1.092110e+00	1.090216e+00	8.544362e-01	8.502399e-01	8.447936e-01	8.412765e-01	8.365888e-01	8.442435e-01	8.563756e-01	8.147163e-01	8.124017e-01	8.070325e-01	8.098217e-01	8.118103e-01	1.062740e+00	1.057307e+00	1.051233e+00	1.045398e+00	1.039184e+00	1.033240e+00	1.026402e+00	1.016508e+00	1.007104e+00	9.954141e-01	9.666513e-01	9.518644e-01	9.371746e-01	9.086814e-01	8.963131e-01	8.118217e-01	8.097418e-01	8.095289e-01	8.076075e-01	8.079759e-01	8.072560e-01	8.072335e-01	8.706276e-01	8.867947e-01	9.677326e-01	9.722123e-01	9.772582e-01	8.772534e-01	8.810997e-01	9.067182e-01	9.305838e-01	9.565468e-01	8.137982e-01	8.167859e-01	8.216578e-01	8.286739e-01	8.357803e-01	8.339656e-01	8.301761e-01	8.285465e-01	8.257446e-01	1.078206e+00	1.072948e+00	9.023003e-01	9.103251e-01	8.516120e-01	8.471138e-01	8.457205e-01	8.427762e-01	1.166079e+00	1.154374e+00	1.181133e+00	1.255007e+00	1.180683e+00	1.088607e+00	1.106553e+00	1.183426e+00	1.086406e+00	1.141047e+00	1.105940e+00	1.255345e+00	1.081804e+00	1.161522e+00	8.282567e-01	1.177728e+00	1.060999e+00	1.152369e+00	1.141409e+00	1.079418e+00	8.887876e-01	1.101715e+00	8.496457e-01	1.035161e+00	1.024791e+00	9.105954e-01	9.441732e-01	8.864658e-01	1.231226e+00	8.726297e-01	9.701292e-01	9.572749e-01	8.172225e-01	1.094246e+00	1.066037e+00	1.212918e+00	1.031050e+00	1.070052e+00	1.170731e+00	1.097582e+00	1.291365e+00	1.245004e+00	1.113743e+00	9.441281e-01	8.701190e-01	8.600485e-01	1.112129e+00	1.173870e+00	1.129520e+00	1.275265e+00	1.176733e+00	1.064243e+00	1.216968e+00	1.199796e+00	8.880014e-01	1.101532e+00	1.083949e+00	1.080341e+00	8.787014e-01	8.245330e-01	8.210315e-01	9.358509e-01	1.091874e+00	1.122800e+00	1.122169e+00	9.901158e-01	9.994807e-01	9.829799e-01	1.009052e+00	1.017504e+00	1.060614e+00	1.120996e+00	8.760480e-01	1.043359e+00	1.051495e+00	8.996140e-01	1.097455e+00	9.513439e-01	9.587343e-01	9.280046e-01	9.145582e-01	8.954221e-01	1.046637e+00	1.028079e+00	1.011308e+00	9.997486e-01	8.534459e-01	8.612423e-01	8.688087e-01	8.740205e-01	8.636514e-01	1.091458e+00	1.088964e+00	8.504229e-01	8.422391e-01	8.759929e-01	8.182105e-01	8.224879e-01	1.003211e+00	1.056077e+00	1.044850e+00	1.033311e+00	1.022725e+00	1.013333e+00	9.908678e-01	9.771835e-01	9.630887e-01	9.489550e-01	9.348046e-01	9.208347e-01	9.081162e-01	8.976098e-01	8.161590e-01	8.148488e-01	8.150613e-01	8.137970e-01	8.158606e-01	8.921855e-01	9.090347e-01	9.672338e-01	9.753161e-01	9.832490e-01	8.800536e-01	8.837764e-01	9.281800e-01	9.512476e-01	9.763739e-01	1.002474e+00	8.263052e-01	8.299088e-01	8.354629e-01	8.439459e-01	8.547955e-01	8.607891e-01	8.360298e-01	8.325286e-01	1.077802e+00	1.073297e+00	9.028323e-01	9.187101e-01	9.271953e-01	8.557643e-01	8.507715e-01	1.117388e+00	1.166020e+00	1.161179e+00	1.136252e+00	1.025455e+00	1.108369e+00	1.173798e+00	1.135622e+00	1.185598e+00	1.135180e+00	1.147605e+00	1.126777e+00	1.092525e+00	1.193627e+00	1.235637e+00	1.088368e+00	9.515727e-01	8.358771e-01	1.125043e+00	1.017123e+00	1.099443e+00	8.876431e-01	1.066683e+00	1.169561e+00	8.756785e-01	1.043567e+00	9.189814e-01	8.966250e-01	1.083528e+00	1.091447e+00	1.082175e+00	1.067002e+00	1.171389e+00	1.098735e+00	1.103072e+00	1.082834e+00	8.283205e-01	8.985475e-01	9.355711e-01	9.897297e-01	1.150517e+00	1.157257e+00	1.272014e+00	1.075361e+00	1.085454e+00	1.175645e+00	1.099195e+00	1.169055e+00	1.152262e+00	8.908497e-01	1.224914e+00	9.799517e-01	9.646566e-01	1.094849e+00	1.233612e+00	1.067209e+00	1.106563e+00	9.438878e-01	1.254321e+00	1.176117e+00	1.005237e+00	1.213100e+00	1.200151e+00	8.802078e-01	1.117592e+00	1.079353e+00	8.891392e-01	8.318781e-01	9.086464e-01	1.118348e+00	1.143450e+00	9.980233e-01	1.007573e+00	1.025393e+00	1.034301e+00	1.114270e+00	8.793653e-01	1.051243e+00	1.058999e+00	8.698623e-01	9.748581e-01	9.827911e-01	9.588216e-01	9.500260e-01	9.347539e-01	9.199497e-01	1.049045e+00	8.581027e-01	8.628165e-01	9.055428e-01	8.916178e-01	9.271526e-01	1.091451e+00	8.707805e-01	8.609931e-01	8.331777e-01	1.059492e+00	1.049551e+00	1.009818e+00	1.038886e+00	1.028582e+00	1.019156e+00	9.991287e-01	9.867864e-01	9.735686e-01	9.600932e-01	9.464997e-01	9.328566e-01	9.199402e-01	8.254795e-01	8.236650e-01	8.227823e-01	8.228175e-01	8.230008e-01	8.273732e-01	9.123147e-01	9.305415e-01	9.665957e-01	9.900124e-01	8.826085e-01	8.863344e-01	9.485064e-01	9.694146e-01	9.929472e-01	1.016454e+00	1.041024e+00	8.402405e-01	8.460457e-01	8.513964e-01	8.596098e-01	8.717052e-01	8.521550e-01	8.451301e-01	8.400881e-01	1.074562e+00	1.067823e+00	9.035727e-01	9.111273e-01	8.791295e-01	8.690181e-01	8.617182e-01	8.577815e-01	1.152327e+00	1.152979e+00	1.149677e+00	1.121130e+00	1.156085e+00	1.140383e+00	1.113605e+00	1.050481e+00	1.172801e+00	1.120686e+00	1.117932e+00	1.071725e+00	1.166005e+00	1.084788e+00	8.331238e-01	1.137608e+00	1.141598e+00	1.128287e+00	1.169441e+00	1.070961e+00	9.260377e-01	1.027020e+00	1.024941e+00	9.594601e-01	1.132802e+00	1.131996e+00	1.128186e+00	1.171840e+00	1.172191e+00	9.002232e-01	9.