# vtk DataFile Version 3.0
vtk output
ASCII
DATASET UNSTRUCTURED_GRID
POINTS 200 float
9.997500e-01	-3.633243e-05	0.0	9.990000e-01	-1.454724e-04	0.0	9.977600e-01	-3.275078e-04	0.0	9.960200e-01	-5.899294e-04	0.0	9.937800e-01	-9.471030e-04	0.0	9.910500e-01	-1.422119e-03	0.0	9.878400e-01	-2.045570e-03	0.0	9.841300e-01	-2.853778e-03	0.0	9.799500e-01	-3.859066e-03	0.0	9.752800e-01	-5.058592e-03	0.0	9.701500e-01	-6.405535e-03	0.0	9.645400e-01	-7.841414e-03	0.0	9.584700e-01	-9.290879e-03	0.0	9.519400e-01	-1.069857e-02	0.0	9.449600e-01	-1.203653e-02	0.0	9.375400e-01	-1.330915e-02	0.0	9.296900e-01	-1.454375e-02	0.0	9.214000e-01	-1.577862e-02	0.0	9.127000e-01	-1.704100e-02	0.0	9.035800e-01	-1.835192e-02	0.0	8.940600e-01	-1.971505e-02	0.0	8.841500e-01	-2.112575e-02	0.0	8.738500e-01	-2.257583e-02	0.0	8.631800e-01	-2.405318e-02	0.0	8.521600e-01	-2.554714e-02	0.0	8.407700e-01	-2.705456e-02	0.0	8.290500e-01	-2.856619e-02	0.0	8.170100e-01	-3.007819e-02	0.0	8.046400e-01	-3.158974e-02	0.0	7.919700e-01	-3.309518e-02	0.0	7.790100e-01	-3.459125e-02	0.0	7.657800e-01	-3.607333e-02	0.0	7.522800e-01	-3.753887e-02	0.0	7.385200e-01	-3.898402e-02	0.0	7.245300e-01	-4.040291e-02	0.0	7.103200e-01	-4.179191e-02	0.0	6.958900e-01	-4.314846e-02	0.0	6.812700e-01	-4.446735e-02	0.0	6.664700e-01	-4.574560e-02	0.0	6.515000e-01	-4.698042e-02	0.0	6.363800e-01	-4.816850e-02	0.0	6.211300e-01	-4.930694e-02	0.0	6.057600e-01	-5.039388e-02	0.0	5.902800e-01	-5.142768e-02	0.0	5.747100e-01	-5.240629e-02	0.0	5.590600e-01	-5.332856e-02	0.0	5.433600e-01	-5.419238e-02	0.0	5.276100e-01	-5.499757e-02	0.0	5.118400e-01	-5.574249e-02	0.0	4.960500e-01	-5.642707e-02	0.0	4.802700e-01	-5.704999e-02	0.0	4.645100e-01	-5.761084e-02	0.0	4.487800e-01	-5.810917e-02	0.0	4.331100e-01	-5.854388e-02	0.0	4.175000e-01	-5.891476e-02	0.0	4.019700e-01	-5.922091e-02	0.0	3.865400e-01	-5.946144e-02	0.0	3.712300e-01	-5.963547e-02	0.0	3.560400e-01	-5.974221e-02	0.0	3.409900e-01	-5.978049e-02	0.0	3.261100e-01	-5.974923e-02	0.0	3.114000e-01	-5.964726e-02	0.0	2.968700e-01	-5.947323e-02	0.0	2.825500e-01	-5.922604e-02	0.0	2.684500e-01	-5.890440e-02	0.0	2.545700e-01	-5.850663e-02	0.0	2.409400e-01	-5.803188e-02	0.0	2.275700e-01	-5.747886e-02	0.0	2.144700e-01	-5.684627e-02	0.0	2.016600e-01	-5.613343e-02	0.0	1.891400e-01	-5.533867e-02	0.0	1.769300e-01	-5.446156e-02	0.0	1.650400e-01	-5.350125e-02	0.0	1.534900e-01	-5.245799e-02	0.0	1.422900e-01	-5.133147e-02	0.0	1.314400e-01	-5.012044e-02	0.0	1.209500e-01	-4.882465e-02	0.0	1.108500e-01	-4.744688e-02	0.0	1.011300e-01	-4.598496e-02	0.0	9.181000e-02	-4.444099e-02	0.0	8.290000e-02	-4.281610e-02	0.0	7.440000e-02	-4.110963e-02	0.0	6.633000e-02	-3.932514e-02	0.0	5.869000e-02	-3.746230e-02	0.0	5.149000e-02	-3.552315e-02	0.0	4.474000e-02	-3.351020e-02	0.0	3.844000e-02	-3.142313e-02	0.0	3.260000e-02	-2.926481e-02	0.0	2.723000e-02	-2.703890e-02	0.0	2.232000e-02	-2.474039e-02	0.0	1.790000e-02	-2.238326e-02	0.0	1.395000e-02	-1.995669e-02	0.0	1.049000e-02	-1.747196e-02	0.0	7.520000e-03	-1.492997e-02	0.0	5.040000e-03	-1.233090e-02	0.0	3.050000e-03	-9.673234e-03	0.0	1.560000e-03	-6.972215e-03	0.0	5.600000e-04	-4.206711e-03	0.0	6.000000e-05	-1.384118e-03	0.0	0.000000e+00	0.000000e+00	0.0	6.000000e-05	1.263822e-03	0.0	5.600000e-04	3.625417e-03	0.0	1.560000e-03	5.789547e-03	0.0	3.050000e-03	7.807924e-03	0.0	5.040000e-03	9.725554e-03	0.0	7.520000e-03	1.155018e-02	0.0	1.049000e-02	1.329678e-02	0.0	1.395000e-02	1.497587e-02	0.0	1.790000e-02	1.659536e-02	0.0	2.232000e-02	1.815487e-02	0.0	2.723000e-02	1.966754e-02	0.0	3.260000e-02	2.112926e-02	0.0	3.844000e-02	2.254772e-02	0.0	4.474000e-02	2.392429e-02	0.0	5.149000e-02	2.526033e-02	0.0	5.869000e-02	2.655888e-02	0.0	6.633000e-02	2.782067e-02	0.0	7.440000e-02	2.904636e-02	0.0	8.290000e-02	3.023787e-02	0.0	9.181000e-02	3.139410e-02	0.0	1.011300e-01	3.251655e-02	0.0	1.108500e-01	3.360520e-02	0.0	1.209500e-01	3.465893e-02	0.0	1.314400e-01	3.567958e-02	0.0	1.422900e-01	3.666486e-02	0.0	1.534900e-01	3.761453e-02	0.0	1.650400e-01	3.852893e-02	0.0	1.769300e-01	3.940738e-02	0.0	1.891400e-01	4.024842e-02	0.0	2.016600e-01	4.105126e-02	0.0	2.144700e-01	4.181440e-02	0.0	2.275700e-01	4.253742e-02	0.0	2.409400e-01	4.321863e-02	0.0	2.545700e-01	4.385676e-02	0.0	2.684500e-01	4.445042e-02	0.0	2.825500e-01	4.499730e-02	0.0	2.968700e-01	4.549623e-02	0.0	3.114000e-01	4.594542e-02	0.0	3.261100e-01	4.634242e-02	0.0	3.409900e-01	4.668534e-02	0.0	3.560400e-01	4.697233e-02	0.0	3.712300e-01	4.720081e-02	0.0	3.865400e-01	4.736849e-02	0.0	4.019700e-01	4.747320e-02	0.0	4.175000e-01	4.751251e-02	0.0	4.331100e-01	4.748406e-02	0.0	4.487800e-01	4.738562e-02	0.0	4.645100e-01	4.721485e-02	0.0	4.802700e-01	4.696977e-02	0.0	4.960500e-01	4.664836e-02	0.0	5.118400e-01	4.624870e-02	0.0	5.276100e-01	4.576965e-02	0.0	5.433600e-01	4.520952e-02	0.0	5.590600e-01	4.456796e-02	0.0	5.747100e-01	4.384384e-02	0.0	5.902800e-01	4.303780e-02	0.0	6.057600e-01	4.215012e-02	0.0	6.211300e-01	4.118218e-02	0.0	6.363800e-01	4.013538e-02	0.0	6.515000e-01	3.901165e-02	0.0	6.664700e-01	3.781436e-02	0.0	6.812700e-01	3.654772e-02	0.0	6.958900e-01	3.521588e-02	0.0	7.103200e-01	3.382365e-02	0.0	7.245300e-01	3.237859e-02	0.0	7.385200e-01	3.088603e-02	0.0	7.522800e-01	2.935293e-02	0.0	7.657800e-01	2.778918e-02	0.0	7.790100e-01	2.620316e-02	0.0	7.919700e-01	2.460250e-02	0.0	8.046400e-01	2.299774e-02	0.0	8.170100e-01	2.139852e-02	0.0	8.290500e-01	1.981717e-02	0.0	8.407700e-01	1.826051e-02	0.0	8.521600e-01	1.673696e-02	0.0	8.631800e-01	1.525737e-02	0.0	8.738500e-01	1.382222e-02	0.0	8.841500e-01	1.243472e-02	0.0	8.940600e-01	1.109609e-02	0.0	9.035800e-01	9.804631e-03	0.0	9.127000e-01	8.563043e-03	0.0	9.214000e-01	7.382275e-03	0.0	9.296900e-01	6.278890e-03	0.0	9.375400e-01	5.283854e-03	0.0	9.449600e-01	4.426314e-03	0.0	9.519400e-01	3.731190e-03	0.0	9.584700e-01	3.204598e-03	0.0	9.645400e-01	2.826357e-03	0.0	9.701500e-01	2.551600e-03	0.0	9.752800e-01	2.324514e-03	0.0	9.799500e-01	2.092857e-03	0.0	9.841300e-01	1.826906e-03	0.0	9.878400e-01	1.519840e-03	0.0	9.910500e-01	1.190174e-03	0.0	9.937800e-01	8.630119e-04	0.0	9.960200e-01	5.666235e-04	0.0	9.977600e-01	3.231877e-04	0.0	9.990000e-01	1.450783e-04	0.0	9.997500e-01	3.632618e-05	0.0	1.000000e+00	0.000000e+00	0.0	
CELLS 200	600
2	199	0	2	0	1	2	1	2	2	2	3	2	3	4	2	4	5	2	5	6	2	6	7	2	7	8	2	8	9	2	9	10	2	10	11	2	11	12	2	12	13	2	13	14	2	14	15	2	15	16	2	16	17	2	17	18	2	18	19	2	19	20	2	20	21	2	21	22	2	22	23	2	23	24	2	24	25	2	25	26	2	26	27	2	27	28	2	28	29	2	29	30	2	30	31	2	31	32	2	32	33	2	33	34	2	34	35	2	35	36	2	36	37	2	37	38	2	38	39	2	39	40	2	40	41	2	41	42	2	42	43	2	43	44	2	44	45	2	45	46	2	46	47	2	47	48	2	48	49	2	49	50	2	50	51	2	51	52	2	52	53	2	53	54	2	54	55	2	55	56	2	56	57	2	57	58	2	58	59	2	59	60	2	60	61	2	61	62	2	62	63	2	63	64	2	64	65	2	65	66	2	66	67	2	67	68	2	68	69	2	69	70	2	70	71	2	71	72	2	72	73	2	73	74	2	74	75	2	75	76	2	76	77	2	77	78	2	78	79	2	79	80	2	80	81	2	81	82	2	82	83	2	83	84	2	84	85	2	85	86	2	86	87	2	87	88	2	88	89	2	89	90	2	90	91	2	91	92	2	92	93	2	93	94	2	94	95	2	95	96	2	96	97	2	97	98	2	98	99	2	99	100	2	100	101	2	101	102	2	102	103	2	103	104	2	104	105	2	105	106	2	106	107	2	107	108	2	108	109	2	109	110	2	110	111	2	111	112	2	112	113	2	113	114	2	114	115	2	115	116	2	116	117	2	117	118	2	118	119	2	119	120	2	120	121	2	121	122	2	122	123	2	123	124	2	124	125	2	125	126	2	126	127	2	127	128	2	128	129	2	129	130	2	130	131	2	131	132	2	132	133	2	133	134	2	134	135	2	135	136	2	136	137	2	137	138	2	138	139	2	139	140	2	140	141	2	141	142	2	142	143	2	143	144	2	144	145	2	145	146	2	146	147	2	147	148	2	148	149	2	149	150	2	150	151	2	151	152	2	152	153	2	153	154	2	154	155	2	155	156	2	156	157	2	157	158	2	158	159	2	159	160	2	160	161	2	161	162	2	162	163	2	163	164	2	164	165	2	165	166	2	166	167	2	167	168	2	168	169	2	169	170	2	170	171	2	171	172	2	172	173	2	173	174	2	174	175	2	175	176	2	176	177	2	177	178	2	178	179	2	179	180	2	180	181	2	181	182	2	182	183	2	183	184	2	184	185	2	185	186	2	186	187	2	187	188	2	188	189	2	189	190	2	190	191	2	191	192	2	192	193	2	193	194	2	194	195	2	195	196	2	196	197	2	197	198	2	198	199	
CELL_TYPES 200
3	3	3	3	3	3	3	3	3	3	3	3	3	3	3	3	3	3	3	3	3	3	3	3	3	3	3	3	3	3	3	3	3	3	3	3	3	3	3	3	3	3	3	3	3	3	3	3	3	3	3	3	3	3	3	3	3	3	3	3	3	3	3	3	3	3	3	3	3	3	3	3	3	3	3	3	3	3	3	3	3	3	3	3	3	3	3	3	3	3	3	3	3	3	3	3	3	3	3	3	3	3	3	3	3	3	3	3	3	3	3	3	3	3	3	3	3	3	3	3	3	3	3	3	3	3	3	3	3	3	3	3	3	3	3	3	3	3	3	3	3	3	3	3	3	3	3	3	3	3	3	3	3	3	3	3	3	3	3	3	3	3	3	3	3	3	3	3	3	3	3	3	3	3	3	3	3	3	3	3	3	3	3	3	3	3	3	3	3	3	3	3	3	3	3	3	3	3	3	3	
POINT_DATA 200

SCALARS Conservative_1 float 1
LOOKUP_TABLE default
1.199829e+00	1.181605e+00	1.171182e+00	1.164743e+00	1.160172e+00	1.155707e+00	1.148823e+00	1.137906e+00	1.121724e+00	1.100367e+00	1.075076e+00	1.048462e+00	1.024892e+00	1.008355e+00	9.999791e-01	9.979201e-01	9.990292e-01	1.000472e+00	1.000499e+00	9.985098e-01	9.947256e-01	9.897032e-01	9.840282e-01	9.781721e-01	9.724126e-01	9.668607e-01	9.615075e-01	9.563066e-01	9.511933e-01	9.461361e-01	9.411190e-01	9.360982e-01	9.310398e-01	9.259601e-01	9.209105e-01	9.159394e-01	9.110653e-01	9.062927e-01	9.016332e-01	8.971033e-01	8.927028e-01	8.884420e-01	8.843035e-01	8.803038e-01	8.764581e-01	8.728180e-01	8.693729e-01	8.660587e-01	8.627282e-01	8.593719e-01	8.561921e-01	8.535430e-01	8.515385e-01	8.498869e-01	8.479157e-01	8.448732e-01	8.402587e-01	8.342185e-01	8.276311e-01	8.217539e-01	8.174751e-01	8.149889e-01	8.140231e-01	8.141448e-01	8.150436e-01	8.165204e-01	8.185256e-01	8.209754e-01	8.237838e-01	8.268381e-01	8.301575e-01	8.339054e-01	8.383286e-01	8.434952e-01	8.493285e-01	8.556821e-01	8.626209e-01	8.703232e-01	8.788462e-01	8.882292e-01	8.985839e-01	9.099693e-01	9.225369e-01	9.364044e-01	9.517621e-01	9.688869e-01	9.880072e-01	1.009482e+00	1.033796e+00	1.061266e+00	1.092420e+00	1.127728e+00	1.167036e+00	1.209882e+00	1.254555e+00	1.298042e+00	1.331744e+00	1.350899e+00	1.339538e+00	1.308283e+00	1.284279e+00	1.221133e+00	1.099515e+00	1.002044e+00	9.260431e-01	8.703221e-01	8.323268e-01	8.073114e-01	7.904698e-01	7.790623e-01	7.713934e-01	7.662938e-01	7.632039e-01	7.613859e-01	7.604656e-01	7.604394e-01	7.611786e-01	7.624463e-01	7.639211e-01	7.652756e-01	7.665264e-01	7.679974e-01	7.699472e-01	7.722261e-01	7.744346e-01	7.763447e-01	7.780480e-01	7.796915e-01	7.813784e-01	7.831790e-01	7.851486e-01	7.872709e-01	7.894731e-01	7.916549e-01	7.937730e-01	7.958022e-01	7.977330e-01	7.995270e-01	8.011932e-01	8.028473e-01	8.047035e-01	8.069213e-01	8.095535e-01	8.125641e-01	8.159516e-01	8.197659e-01	8.240240e-01	8.286853e-01	8.335838e-01	8.385315e-01	8.433439e-01	8.480873e-01	8.530543e-01	8.585847e-01	8.647295e-01	8.712554e-01	8.779427e-01	8.847943e-01	8.919794e-01	8.995453e-01	9.074398e-01	9.155748e-01	9.239019e-01	9.324091e-01	9.410667e-01	9.498610e-01	9.587420e-01	9.676920e-01	9.766367e-01	9.855788e-01	9.944351e-01	1.003125e+00	1.011586e+00	1.019734e+00	1.027522e+00	1.034930e+00	1.042004e+00	1.048924e+00	1.055950e+00	1.063471e+00	1.071784e+00	1.080985e+00	1.090693e+00	1.100046e+00	1.107791e+00	1.112596e+00	1.113368e+00	1.109746e+00	1.102493e+00	1.093775e+00	1.086670e+00	1.084151e+00	1.088054e+00	1.098271e+00	1.112846e+00	1.130013e+00	1.148476e+00	1.168635e+00	1.192714e+00	1.181127e+00	
SCALARS Conservative_2 float 1
LOOKUP_TABLE default
7.195735e-01	7.459478e-01	7.640371e-01	7.748446e-01	7.807346e-01	7.855063e-01	7.913109e-01	8.009754e-01	8.159851e-01	8.363933e-01	8.604841e-01	8.849299e-01	9.060870e-01	9.215743e-01	9.308023e-01	9.347661e-01	9.355207e-01	9.351604e-01	9.351442e-01	9.360838e-01	9.380328e-01	9.406903e-01	9.436804e-01	9.467129e-01	9.496010e-01	9.522790e-01	9.547419e-01	9.570317e-01	9.591590e-01	9.611560e-01	9.630578e-01	9.648565e-01	9.665665e-01	9.681855e-01	9.697008e-01	9.711004e-01	9.723989e-01	9.735772e-01	9.746456e-01	9.756194e-01	9.764794e-01	9.772608e-01	9.779371e-01	9.785453e-01	9.790529e-01	9.795008e-01	9.798663e-01	9.802014e-01	9.804743e-01	9.807242e-01	9.808921e-01	9.810049e-01	9.810476e-01	9.810771e-01	9.811125e-01	9.811862e-01	9.812252e-01	9.811485e-01	9.808248e-01	9.803293e-01	9.798249e-01	9.794112e-01	9.791611e-01	9.790095e-01	9.789571e-01	9.789131e-01	9.789003e-01	9.788470e-01	9.787667e-01	9.785923e-01	9.783372e-01	9.779478e-01	9.774259e-01	9.766915e-01	9.757318e-01	9.744066e-01	9.727359e-01	9.706250e-01	9.678433e-01	9.642359e-01	9.597126e-01	9.539815e-01	9.467792e-01	9.376887e-01	9.261944e-01	9.115680e-01	8.928772e-01	8.690473e-01	8.385053e-01	7.991014e-01	7.483494e-01	6.832020e-01	5.999962e-01	4.965293e-01	3.728136e-01	2.366123e-01	1.074422e-01	1.081015e-02	-2.157222e-02	5.237619e-03	7.305099e-02	2.104766e-01	4.134815e-01	5.902449e-01	7.152646e-01	7.968486e-01	8.484390e-01	8.813527e-01	9.026237e-01	9.169549e-01	9.269938e-01	9.341602e-01	9.396291e-01	9.439054e-01	9.473363e-01	9.502778e-01	9.527921e-01	9.549655e-01	9.568955e-01	9.585606e-01	9.600461e-01	9.614656e-01	9.628349e-01	9.640661e-01	9.651641e-01	9.661274e-01	9.670122e-01	9.678231e-01	9.686023e-01	9.693468e-01	9.700890e-01	9.708082e-01	9.715082e-01	9.721574e-01	9.727698e-01	9.733301e-01	9.738510e-01	9.743236e-01	9.747619e-01	9.751837e-01	9.756376e-01	9.761028e-01	9.765861e-01	9.770698e-01	9.775487e-01	9.780194e-01	9.784509e-01	9.788457e-01	9.791236e-01	9.793184e-01	9.794138e-01	9.794448e-01	9.793906e-01	9.792233e-01	9.788783e-01	9.783279e-01	9.776079e-01	9.766634e-01	9.754988e-01	9.740558e-01	9.723322e-01	9.703029e-01	9.679725e-01	9.653246e-01	9.623545e-01	9.590560e-01	9.554277e-01	9.515096e-01	9.472359e-01	9.427179e-01	9.379622e-01	9.329874e-01	9.279094e-01	9.227831e-01	9.176633e-01	9.125760e-01	9.074655e-01	9.022088e-01	8.965134e-01	8.900830e-01	8.825817e-01	8.740025e-01	8.647710e-01	8.559702e-01	8.491400e-01	8.458466e-01	8.470997e-01	8.528038e-01	8.614998e-01	8.705214e-01	8.765623e-01	8.769796e-01	8.704661e-01	8.577551e-01	8.395792e-01	8.174863e-01	7.911880e-01	7.596487e-01	7.213210e-01	6.623529e-01	
SCALARS Conservative_3 float 1
LOOKUP_TABLE default
1.010184e-01	1.066666e-01	1.128620e-01	1.197584e-01	1.301724e-01	1.447886e-01	1.632608e-01	1.836757e-01	2.028847e-01	2.169656e-01	2.227355e-01	2.186175e-01	2.055777e-01	1.874106e-01	1.688419e-01	1.535400e-01	1.431431e-01	1.374109e-01	1.349914e-01	1.342527e-01	1.338985e-01	1.331655e-01	1.317681e-01	1.297339e-01	1.272313e-01	1.244598e-01	1.215529e-01	1.185999e-01	1.156265e-01	1.126205e-01	1.095705e-01	1.064560e-01	1.032656e-01	9.999183e-02	9.662066e-02	9.316701e-02	8.962732e-02	8.602004e-02	8.235159e-02	7.863392e-02	7.488024e-02	7.109744e-02	6.730404e-02	6.350151e-02	5.969741e-02	5.588312e-02	5.206240e-02	4.824736e-02	4.446154e-02	4.070927e-02	3.695427e-02	3.313970e-02	2.924310e-02	2.525149e-02	2.119700e-02	1.712357e-02	1.307627e-02	9.042152e-03	4.913726e-03	5.542987e-04	-4.072993e-03	-8.946602e-03	-1.405513e-02	-1.938715e-02	-2.498088e-02	-3.086438e-02	-3.709398e-02	-4.368653e-02	-5.067563e-02	-5.808124e-02	-6.595031e-02	-7.434698e-02	-8.334161e-02	-9.296674e-02	-1.032650e-01	-1.142884e-01	-1.261480e-01	-1.389104e-01	-1.526517e-01	-1.674960e-01	-1.835618e-01	-2.009616e-01	-2.198511e-01	-2.403651e-01	-2.626241e-01	-2.867464e-01	-3.128028e-01	-3.407388e-01	-3.701678e-01	-4.003585e-01	-4.298350e-01	-4.554906e-01	-4.722504e-01	-4.716985e-01	-4.409169e-01	-3.644788e-01	-2.306699e-01	-3.809231e-02	1.857614e-01	3.518381e-01	4.963349e-01	6.610717e-01	7.236344e-01	6.884305e-01	6.112513e-01	5.275802e-01	4.531118e-01	3.913531e-01	3.411675e-01	3.001568e-01	2.665824e-01	2.386583e-01	2.152098e-01	1.952846e-01	1.781468e-01	1.632822e-01	1.503056e-01	1.388649e-01	1.287061e-01	1.195572e-01	1.112196e-01	1.036243e-01	9.672161e-02	9.041914e-02	8.458660e-02	7.907799e-02	7.386771e-02	6.893115e-02	6.425890e-02	5.980059e-02	5.552435e-02	5.139865e-02	4.739220e-02	4.346714e-02	3.959913e-02	3.576841e-02	3.196123e-02	2.815613e-02	2.432389e-02	2.044407e-02	1.652011e-02	1.255439e-02	8.536415e-03	4.434869e-03	2.317816e-04	-4.079789e-03	-8.497816e-03	-1.301513e-02	-1.764844e-02	-2.240595e-02	-2.730651e-02	-3.236974e-02	-3.754692e-02	-4.281042e-02	-4.810969e-02	-5.346450e-02	-5.889005e-02	-6.436582e-02	-6.983410e-02	-7.525139e-02	-8.057746e-02	-8.579941e-02	-9.085861e-02	-9.572601e-02	-1.003318e-01	-1.046518e-01	-1.086156e-01	-1.121883e-01	-1.153146e-01	-1.179504e-01	-1.200551e-01	-1.215948e-01	-1.225705e-01	-1.230079e-01	-1.229795e-01	-1.226311e-01	-1.221374e-01	-1.216762e-01	-1.213190e-01	-1.209019e-01	-1.198928e-01	-1.173956e-01	-1.122934e-01	-1.037020e-01	-9.143189e-02	-7.640491e-02	-6.078379e-02	-4.765461e-02	-4.026178e-02	-4.080861e-02	-4.939054e-02	-6.377316e-02	-8.015005e-02	-9.479318e-02	-1.049820e-01	-1.097961e-01	-1.102825e-01	-1.061988e-01	-1.003425e-01	2.575830e-03	
SCALARS Conservative_4 float 1
LOOKUP_TABLE default
3.446402e+00	3.400794e+00	3.375508e+00	3.359991e+00	3.348844e+00	3.337974e+00	3.320879e+00	3.293691e+00	3.253317e+00	3.199985e+00	3.136714e+00	3.069893e+00	3.010538e+00	2.968875e+00	2.947802e+00	2.942612e+00	2.945358e+00	2.948915e+00	2.948889e+00	2.943758e+00	2.934084e+00	2.921267e+00	2.906779e+00	2.891814e+00	2.877072e+00	2.862839e+00	2.849093e+00	2.835723e+00	2.822558e+00	2.809521e+00	2.796579e+00	2.783612e+00	2.770533e+00	2.757384e+00	2.744298e+00	2.731400e+00	2.718744e+00	2.706334e+00	2.694204e+00	2.682402e+00	2.670921e+00	2.659799e+00	2.648979e+00	2.638518e+00	2.628443e+00	2.618903e+00	2.609862e+00	2.601167e+00	2.592419e+00	2.583605e+00	2.575239e+00	2.568260e+00	2.562960e+00	2.558590e+00	2.553387e+00	2.545390e+00	2.533263e+00	2.517374e+00	2.499990e+00	2.484431e+00	2.473069e+00	2.466439e+00	2.463850e+00	2.464147e+00	2.466521e+00	2.470424e+00	2.475737e+00	2.482221e+00	2.489658e+00	2.497736e+00	2.506515e+00	2.516412e+00	2.528084e+00	2.541693e+00	2.557049e+00	2.573732e+00	2.591941e+00	2.612133e+00	2.634412e+00	2.658867e+00	2.685806e+00	2.715342e+00	2.747861e+00	2.783628e+00	2.823095e+00	2.866919e+00	2.915616e+00	2.970063e+00	3.031414e+00	3.100318e+00	3.178039e+00	3.265621e+00	3.362427e+00	3.467268e+00	3.575830e+00	3.681281e+00	3.762484e+00	3.809722e+00	3.781249e+00	3.702898e+00	3.649682e+00	3.499922e+00	3.190899e+00	2.943016e+00	2.748017e+00	2.604235e+00	2.505965e+00	2.441187e+00	2.397414e+00	2.367667e+00	2.347642e+00	2.334265e+00	2.326179e+00	2.321444e+00	2.319076e+00	2.319103e+00	2.321153e+00	2.324594e+00	2.328598e+00	2.332281e+00	2.335696e+00	2.339715e+00	2.345005e+00	2.351140e+00	2.357076e+00	2.362212e+00	2.366805e+00	2.371234e+00	2.375781e+00	2.380625e+00	2.385920e+00	2.391615e+00	2.397521e+00	2.403365e+00	2.409039e+00	2.414470e+00	2.419638e+00	2.424439e+00	2.428902e+00	2.433332e+00	2.438308e+00	2.444238e+00	2.451264e+00	2.459287e+00	2.468303e+00	2.478444e+00	2.489747e+00	2.502108e+00	2.515069e+00	2.528149e+00	2.540860e+00	2.553388e+00	2.566496e+00	2.581072e+00	2.597232e+00	2.614359e+00	2.631889e+00	2.649813e+00	2.668582e+00	2.688308e+00	2.708854e+00	2.729984e+00	2.751572e+00	2.773584e+00	2.795940e+00	2.818604e+00	2.841443e+00	2.864421e+00	2.887322e+00	2.910181e+00	2.932778e+00	2.954899e+00	2.976403e+00	2.997078e+00	3.016810e+00	3.035550e+00	3.053413e+00	3.070858e+00	3.088522e+00	3.107391e+00	3.128188e+00	3.151167e+00	3.175373e+00	3.198692e+00	3.218050e+00	3.230151e+00	3.232263e+00	3.223415e+00	3.205427e+00	3.183656e+00	3.165759e+00	3.159200e+00	3.168658e+00	3.194010e+00	3.230146e+00	3.272662e+00	3.318099e+00	3.367490e+00	3.426997e+00	3.383859e+00	
SCALARS Pressure float 1
LOOKUP_TABLE default
1.290550e+00	1.264208e+00	1.248342e+00	1.238441e+00	1.231538e+00	1.224784e+00	1.214700e+00	1.198785e+00	1.175272e+00	1.144289e+00	1.107711e+00	1.069459e+00	1.035757e+00	1.012131e+00	1.000137e+00	9.971982e-01	9.988311e-01	1.000969e+00	1.001101e+00	9.983808e-01	9.931144e-01	9.861025e-01	9.781854e-01	9.700310e-01	9.620344e-01	9.543479e-01	9.469592e-01	9.397960e-01	9.327737e-01	9.258445e-01	9.189788e-01	9.121239e-01	9.052326e-01	8.983267e-01	8.914766e-01	8.847481e-01	8.781617e-01	8.717293e-01	8.654633e-01	8.593810e-01	8.534886e-01	8.477897e-01	8.422701e-01	8.369408e-01	8.318326e-01	8.270010e-01	8.224407e-01	8.180517e-01	8.136511e-01	8.092138e-01	8.050259e-01	8.015464e-01	7.989324e-01	7.967822e-01	7.942023e-01	7.901880e-01	7.840963e-01	7.761386e-01	7.675154e-01	7.598712e-01	7.543401e-01	7.511548e-01	7.499313e-01	7.501144e-01	7.512884e-01	7.532158e-01	7.558193e-01	7.590080e-01	7.626582e-01	7.666386e-01	7.709649e-01	7.758648e-01	7.816559e-01	7.884439e-01	7.961189e-01	8.045192e-01	8.137053e-01	8.239218e-01	8.352915e-01	8.478806e-01	8.618228e-01	8.772362e-01	8.943342e-01	9.133166e-01	9.344819e-01	9.582670e-01	9.850582e-01	1.015393e+00	1.050035e+00	1.089581e+00	1.134861e+00	1.186674e+00	1.245057e+00	1.309372e+00	1.377182e+00	1.443418e+00	1.495269e+00	1.523657e+00	1.507278e+00	1.462231e+00	1.420678e+00	1.321138e+00	1.150011e+00	1.013077e+00	9.080211e-01	8.318157e-01	7.800793e-01	7.460954e-01	7.233778e-01	7.080872e-01	6.978354e-01	6.910801e-01	6.869669e-01	6.845243e-01	6.832585e-01	6.831277e-01	6.839969e-01	6.855602e-01	6.873789e-01	6.890440e-01	6.905665e-01	6.923555e-01	6.947631e-01	6.976257e-01	7.004091e-01	7.028132e-01	7.049454e-01	7.070050e-01	7.091182e-01	7.113830e-01	7.138641e-01	7.165479e-01	7.193361e-01	7.221056e-01	7.247943e-01	7.273743e-01	7.298290e-01	7.321105e-01	7.342266e-01	7.363261e-01	7.386790e-01	7.415050e-01	7.448711e-01	7.487339e-01	7.530913e-01	7.580091e-01	7.635176e-01	7.695593e-01	7.759380e-01	7.823913e-01	7.886797e-01	7.948787e-01	8.013806e-01	8.086393e-01	8.167385e-01	8.253757e-01	8.342480e-01	8.433743e-01	8.529717e-01	8.631165e-01	8.737377e-01	8.847250e-01	8.960126e-01	9.075875e-01	9.194118e-01	9.314677e-01	9.436912e-01	9.560476e-01	9.684615e-01	9.809052e-01	9.932732e-01	1.005461e+00	1.017360e+00	1.028854e+00	1.039870e+00	1.050377e+00	1.060442e+00	1.070317e+00	1.080391e+00	1.091215e+00	1.103237e+00	1.116586e+00	1.130708e+00	1.144312e+00	1.155535e+00	1.162401e+00	1.163339e+00	1.157886e+00	1.147240e+00	1.134591e+00	1.124439e+00	1.121050e+00	1.127004e+00	1.141986e+00	1.163395e+00	1.188652e+00	1.216111e+00	1.246307e+00	1.281863e+00	1.279256e+00	
SCALARS Temperature float 1
LOOKUP_TABLE default
1.075611e+00	1.069908e+00	1.065883e+00	1.063274e+00	1.061514e+00	1.059770e+00	1.057343e+00	1.053501e+00	1.047738e+00	1.039915e+00	1.030356e+00	1.020026e+00	1.010601e+00	1.003745e+00	1.000158e+00	9.992766e-01	9.998018e-01	1.000497e+00	1.000602e+00	9.998708e-01	9.983803e-01	9.963618e-01	9.940623e-01	9.916773e-01	9.893273e-01	9.870584e-01	9.848693e-01	9.827351e-01	9.806353e-01	9.785532e-01	9.764746e-01	9.743891e-01	9.722813e-01	9.701570e-01	9.680382e-01	9.659461e-01	9.638845e-01	9.618628e-01	9.598840e-01	9.579509e-01	9.560726e-01	9.542432e-01	9.524673e-01	9.507409e-01	9.490842e-01	9.475069e-01	9.460161e-01	9.445684e-01	9.431140e-01	9.416340e-01	9.402398e-01	9.390814e-01	9.382223e-01	9.375156e-01	9.366524e-01	9.352741e-01	9.331607e-01	9.303781e-01	9.273641e-01	9.246944e-01	9.227684e-01	9.216750e-01	9.212653e-01	9.213526e-01	9.217769e-01	9.224703e-01	9.233911e-01	9.245197e-01	9.257990e-01	9.271932e-01	9.286971e-01	9.303991e-01	9.323979e-01	9.347343e-01	9.373509e-01	9.402080e-01	9.432942e-01	9.466848e-01	9.504410e-01	9.545741e-01	9.590900e-01	9.640283e-01	9.694292e-01	9.753441e-01	9.818441e-01	9.890391e-01	9.970152e-01	1.005856e+00	1.015708e+00	1.026681e+00	1.038850e+00	1.052270e+00	1.066854e+00	1.082231e+00	1.097745e+00	1.111996e+00	1.122790e+00	1.127883e+00	1.125222e+00	1.117672e+00	1.106207e+00	1.081895e+00	1.045925e+00	1.011010e+00	9.805386e-01	9.557561e-01	9.372272e-01	9.241731e-01	9.151240e-01	9.088969e-01	9.046427e-01	9.018473e-01	9.001093e-01	8.990503e-01	8.984739e-01	8.983329e-01	8.986023e-01	8.991586e-01	8.998035e-01	9.003867e-01	9.009038e-01	9.015075e-01	9.023515e-01	9.033956e-01	9.044134e-01	9.052850e-01	9.060436e-01	9.067753e-01	9.075220e-01	9.083275e-01	9.092089e-01	9.101669e-01	9.111597e-01	9.121469e-01	9.131002e-01	9.140139e-01	9.148787e-01	9.156795e-01	9.164163e-01	9.171435e-01	9.179518e-01	9.189309e-01	9.201011e-01	9.214459e-01	9.229608e-01	9.246653e-01	9.265721e-01	9.286508e-01	9.308459e-01	9.330495e-01	9.351816e-01	9.372604e-01	9.394251e-01	9.418282e-01	9.445017e-01	9.473408e-01	9.502306e-01	9.531869e-01	9.562684e-01	9.595031e-01	9.628602e-01	9.663056e-01	9.698137e-01	9.733791e-01	9.769890e-01	9.806358e-01	9.843015e-01	9.879669e-01	9.916292e-01	9.952580e-01	9.988316e-01	1.002329e+00	1.005708e+00	1.008943e+00	1.012017e+00	1.014925e+00	1.017695e+00	1.020395e+00	1.023146e+00	1.026088e+00	1.029347e+00	1.032934e+00	1.036687e+00	1.040240e+00	1.043098e+00	1.044765e+00	1.044883e+00	1.043380e+00	1.040587e+00	1.037316e+00	1.034756e+00	1.034036e+00	1.035798e+00	1.039803e+00	1.045423e+00	1.051893e+00	1.058891e+00	1.066464e+00	1.074745e+00	1.083081e+00	
SCALARS Pressure_Coefficient float 1
LOOKUP_TABLE default
6.485490e-01	5.897507e-01	5.543349e-01	5.322341e-01	5.168258e-01	5.017495e-01	4.792416e-01	4.437164e-01	3.912322e-01	3.220735e-01	2.404265e-01	1.550433e-01	7.981512e-02	2.707806e-02	3.058568e-04	-6.253946e-03	-2.609072e-03	2.162808e-03	2.458094e-03	-3.614394e-03	-1.536956e-02	-3.102120e-02	-4.869341e-02	-6.689504e-02	-8.474469e-02	-1.019020e-01	-1.183946e-01	-1.343838e-01	-1.500586e-01	-1.655257e-01	-1.808510e-01	-1.961520e-01	-2.115344e-01	-2.269493e-01	-2.422397e-01	-2.572587e-01	-2.719605e-01	-2.863186e-01	-3.003051e-01	-3.138818e-01	-3.270343e-01	-3.397551e-01	-3.520756e-01	-3.639714e-01	-3.753737e-01	-3.861584e-01	-3.963377e-01	-4.061347e-01	-4.159574e-01	-4.258621e-01	-4.352101e-01	-4.429769e-01	-4.488117e-01	-4.536112e-01	-4.593700e-01	-4.683305e-01	-4.819279e-01	-4.996905e-01	-5.189389e-01	-5.360017e-01	-5.483479e-01	-5.554579e-01	-5.581891e-01	-5.577803e-01	-5.551598e-01	-5.508576e-01	-5.450463e-01	-5.379286e-01	-5.297807e-01	-5.208959e-01	-5.112391e-01	-5.003018e-01	-4.873753e-01	-4.722235e-01	-4.550918e-01	-4.363410e-01	-4.158363e-01	-3.930317e-01	-3.676529e-01	-3.395523e-01	-3.084313e-01	-2.740264e-01	-2.358612e-01	-1.934898e-01	-1.462457e-01	-9.315400e-02	-3.335229e-02	3.435901e-02	1.116860e-01	1.999569e-01	3.010281e-01	4.166837e-01	5.470016e-01	6.905631e-01	8.419240e-01	9.897723e-01	1.105511e+00	1.168877e+00	1.132317e+00	1.031766e+00	9.390136e-01	7.168253e-01	3.348452e-01	2.918931e-02	-2.053101e-01	-3.754114e-01	-4.908943e-01	-5.667512e-01	-6.174602e-01	-6.515910e-01	-6.744747e-01	-6.895535e-01	-6.987346e-01	-7.041869e-01	-7.070122e-01	-7.073042e-01	-7.053642e-01	-7.018745e-01	-6.978150e-01	-6.940983e-01	-6.906997e-01	-6.867066e-01	-6.813324e-01	-6.749427e-01	-6.687298e-01	-6.633634e-01	-6.586041e-01	-6.540066e-01	-6.492898e-01	-6.442343e-01	-6.386961e-01	-6.327055e-01	-6.264820e-01	-6.203000e-01	-6.142985e-01	-6.085394e-01	-6.030603e-01	-5.979677e-01	-5.932443e-01	-5.885577e-01	-5.833058e-01	-5.769979e-01	-5.694841e-01	-5.608619e-01	-5.511355e-01	-5.401583e-01	-5.278624e-01	-5.143766e-01	-5.001383e-01	-4.857336e-01	-4.716972e-01	-4.578601e-01	-4.433469e-01	-4.271445e-01	-4.090658e-01	-3.897863e-01	-3.699821e-01	-3.496110e-01	-3.281882e-01	-3.055434e-01	-2.818355e-01	-2.573102e-01	-2.321146e-01	-2.062779e-01	-1.798845e-01	-1.529739e-01	-1.256892e-01	-9.810800e-02	-7.039850e-02	-4.262240e-02	-1.501517e-02	1.218937e-02	3.875005e-02	6.440538e-02	8.899614e-02	1.124476e-01	1.349160e-01	1.569586e-01	1.794448e-01	2.036041e-01	2.304399e-01	2.602375e-01	2.917583e-01	3.221241e-01	3.471759e-01	3.625016e-01	3.645964e-01	3.524251e-01	3.286602e-01	3.004256e-01	2.777654e-01	2.702013e-01	2.834911e-01	3.169320e-01	3.647202e-01	4.210984e-01	4.823912e-01	5.497917e-01	6.291592e-01	6.233386e-01	
SCALARS Mach float 1
LOOKUP_TABLE default
4.935169e-01	5.210679e-01	5.398323e-01	5.517268e-01	5.596397e-01	5.673972e-01	5.780613e-01	5.946481e-01	6.189159e-01	6.508057e-01	6.883807e-01	7.275291e-01	7.621453e-01	7.867572e-01	7.994626e-01	8.025669e-01	8.007178e-01	7.982664e-01	7.978949e-01	8.004748e-01	8.057175e-01	8.127886e-01	8.208042e-01	8.290750e-01	8.371825e-01	8.449729e-01	8.524551e-01	8.597187e-01	8.668361e-01	8.738664e-01	8.808585e-01	8.878479e-01	8.948867e-01	9.019555e-01	9.089820e-01	9.158967e-01	9.226892e-01	9.293299e-01	9.358110e-01	9.421246e-01	9.482437e-01	9.541884e-01	9.599456e-01	9.655300e-01	9.708775e-01	9.759590e-01	9.807529e-01	9.854004e-01	9.900615e-01	9.947971e-01	9.992511e-01	1.002947e+00	1.005685e+00	1.007935e+00	1.010681e+00	1.015062e+00	1.021767e+00	1.030575e+00	1.040090e+00	1.048497e+00	1.054550e+00	1.057983e+00	1.059268e+00	1.058994e+00	1.057663e+00	1.055486e+00	1.052594e+00	1.049046e+00	1.045021e+00	1.040629e+00	1.035885e+00	1.030509e+00	1.024184e+00	1.016776e+00	1.008459e+00	9.993525e-01	9.894843e-01	9.786036e-01	9.664989e-01	9.531140e-01	9.384064e-01	9.222161e-01	9.043718e-01	8.846502e-01	8.627423e-01	8.381742e-01	8.105033e-01	7.792289e-01	7.435087e-01	7.024685e-01	6.550663e-01	5.998935e-01	5.353520e-01	4.598733e-01	3.712588e-01	2.683065e-01	1.524032e-01	2.332587e-02	1.112311e-01	2.150147e-01	3.138969e-01	4.616318e-01	6.264063e-01	7.606647e-01	8.671632e-01	9.492731e-01	1.008853e+00	1.050136e+00	1.078487e+00	1.097888e+00	1.111099e+00	1.119761e+00	1.125140e+00	1.128415e+00	1.130197e+00	1.130633e+00	1.129800e+00	1.128080e+00	1.126086e+00	1.124282e+00	1.122682e+00	1.120813e+00	1.118199e+00	1.114965e+00	1.111809e+00	1.109106e+00	1.106752e+00	1.104480e+00	1.102161e+00	1.099658e+00	1.096918e+00	1.093938e+00	1.090847e+00	1.087772e+00	1.084801e+00	1.081951e+00	1.079252e+00	1.076752e+00	1.074450e+00	1.072176e+00	1.069648e+00	1.066583e+00	1.062918e+00	1.058701e+00	1.053946e+00	1.048588e+00	1.042586e+00	1.036031e+00	1.029096e+00	1.022120e+00	1.015356e+00	1.008747e+00	1.001851e+00	9.941762e-01	9.856142e-01	9.764936e-01	9.671784e-01	9.576144e-01	9.476064e-01	9.370564e-01	9.260562e-01	9.147102e-01	9.030958e-01	8.912238e-01	8.791306e-01	8.668348e-01	8.543903e-01	8.418579e-01	8.292414e-01	8.166416e-01	8.041321e-01	7.917882e-01	7.797566e-01	7.681394e-01	7.570062e-01	7.463855e-01	7.361838e-01	7.261541e-01	7.158484e-01	7.047232e-01	6.922668e-01	6.783837e-01	6.636539e-01	6.495031e-01	6.379666e-01	6.311689e-01	6.306859e-01	6.368209e-01	6.481117e-01	6.611630e-01	6.712592e-01	6.740830e-01	6.671648e-01	6.512539e-01	6.284713e-01	6.014918e-01	5.712766e-01	5.371553e-01	4.977801e-01	4.554092e-01	