# vtk DataFile Version 3.0
vtk output
ASCII
DATASET UNSTRUCTURED_GRID
POINTS 5233 float
9.997500e-01	-3.633641e-05	0.0	9.990000e-01	-1.457236e-04	0.0	9.977600e-01	-3.302549e-04	0.0	9.960200e-01	-6.046871e-04	0.0	9.937800e-01	-1.000008e-03	0.0	9.910500e-01	-1.566667e-03	0.0	9.878400e-01	-2.368821e-03	0.0	9.841300e-01	-3.473358e-03	0.0	9.799500e-01	-4.897493e-03	0.0	9.752800e-01	-6.610149e-03	0.0	9.701500e-01	-8.490367e-03	0.0	9.645400e-01	-1.038417e-02	0.0	9.584700e-01	-1.211927e-02	0.0	9.519400e-01	-1.357993e-02	0.0	9.449600e-01	-1.473286e-02	0.0	9.375400e-01	-1.563324e-02	0.0	9.296900e-01	-1.639608e-02	0.0	9.214000e-01	-1.715477e-02	0.0	9.127000e-01	-1.801681e-02	0.0	9.035800e-01	-1.904806e-02	0.0	8.940600e-01	-2.026085e-02	0.0	8.841500e-01	-2.162668e-02	0.0	8.738500e-01	-2.309241e-02	0.0	8.631800e-01	-2.459193e-02	0.0	8.521600e-01	-2.606206e-02	0.0	8.407700e-01	-2.745591e-02	0.0	8.290500e-01	-2.873398e-02	0.0	8.170100e-01	-2.987663e-02	0.0	8.046400e-01	-3.087962e-02	0.0	7.919700e-01	-3.174616e-02	0.0	7.790100e-01	-3.248894e-02	0.0	7.657800e-01	-3.312432e-02	0.0	7.522800e-01	-3.367096e-02	0.0	7.385200e-01	-3.414604e-02	0.0	7.245300e-01	-3.456390e-02	0.0	7.103200e-01	-3.493666e-02	0.0	6.958900e-01	-3.527354e-02	0.0	6.812700e-01	-3.558031e-02	0.0	6.664700e-01	-3.586116e-02	0.0	6.515000e-01	-3.611898e-02	0.0	6.363800e-01	-3.635595e-02	0.0	6.211300e-01	-3.657442e-02	0.0	6.057600e-01	-3.677748e-02	0.0	5.902800e-01	-3.696907e-02	0.0	5.747100e-01	-3.715392e-02	0.0	5.590600e-01	-3.733765e-02	0.0	5.433600e-01	-3.752614e-02	0.0	5.276100e-01	-3.772573e-02	0.0	5.118400e-01	-3.794205e-02	0.0	4.960500e-01	-3.818039e-02	0.0	4.802700e-01	-3.844450e-02	0.0	4.645100e-01	-3.873697e-02	0.0	4.487800e-01	-3.905883e-02	0.0	4.331100e-01	-3.940891e-02	0.0	4.175000e-01	-3.978495e-02	0.0	4.019700e-01	-4.018255e-02	0.0	3.865400e-01	-4.059580e-02	0.0	3.712300e-01	-4.101742e-02	0.0	3.560400e-01	-4.143967e-02	0.0	3.409900e-01	-4.185344e-02	0.0	3.261100e-01	-4.224886e-02	0.0	3.114000e-01	-4.261660e-02	0.0	2.968700e-01	-4.294706e-02	0.0	2.825500e-01	-4.323036e-02	0.0	2.684500e-01	-4.345755e-02	0.0	2.545700e-01	-4.362022e-02	0.0	2.409400e-01	-4.371018e-02	0.0	2.275700e-01	-4.372029e-02	0.0	2.144700e-01	-4.364406e-02	0.0	2.016600e-01	-4.347585e-02	0.0	1.891400e-01	-4.321054e-02	0.0	1.769300e-01	-4.284406e-02	0.0	1.650400e-01	-4.237293e-02	0.0	1.534900e-01	-4.179494e-02	0.0	1.422900e-01	-4.110840e-02	0.0	1.314400e-01	-4.031157e-02	0.0	1.209500e-01	-3.940393e-02	0.0	1.108500e-01	-3.838794e-02	0.0	1.011300e-01	-3.726317e-02	0.0	9.181000e-02	-3.603315e-02	0.0	8.290000e-02	-3.470149e-02	0.0	7.440000e-02	-3.327117e-02	0.0	6.633000e-02	-3.174950e-02	0.0	5.869000e-02	-3.014144e-02	0.0	5.149000e-02	-2.845479e-02	0.0	4.474000e-02	-2.669858e-02	0.0	3.844000e-02	-2.488015e-02	0.0	3.260000e-02	-2.301019e-02	0.0	2.723000e-02	-2.110055e-02	0.0	2.232000e-02	-1.915581e-02	0.0	1.790000e-02	-1.719649e-02	0.0	1.395000e-02	-1.522160e-02	0.0	1.049000e-02	-1.324707e-02	0.0	7.520000e-03	-1.127782e-02	0.0	5.040000e-03	-9.314496e-03	0.0	3.050000e-03	-7.350420e-03	0.0	1.560000e-03	-5.380759e-03	0.0	5.600000e-04	-3.354116e-03	0.0	6.000000e-05	-1.187598e-03	0.0	0.000000e+00	0.000000e+00	0.0	6.000000e-05	1.145475e-03	0.0	5.600000e-04	3.137790e-03	0.0	1.560000e-03	4.912331e-03	0.0	3.050000e-03	6.568920e-03	0.0	5.040000e-03	8.167157e-03	0.0	7.520000e-03	9.723386e-03	0.0	1.049000e-02	1.125362e-02	0.0	1.395000e-02	1.276672e-02	0.0	1.790000e-02	1.426735e-02	0.0	2.232000e-02	1.575113e-02	0.0	2.723000e-02	1.722591e-02	0.0	3.260000e-02	1.868264e-02	0.0	3.844000e-02	2.012375e-02	0.0	4.474000e-02	2.154560e-02	0.0	5.149000e-02	2.294472e-02	0.0	5.869000e-02	2.431972e-02	0.0	6.633000e-02	2.566720e-02	0.0	7.440000e-02	2.698407e-02	0.0	8.290000e-02	2.826902e-02	0.0	9.181000e-02	2.951794e-02	0.0	1.011300e-01	3.072996e-02	0.0	1.108500e-01	3.190299e-02	0.0	1.209500e-01	3.303416e-02	0.0	1.314400e-01	3.412424e-02	0.0	1.422900e-01	3.516994e-02	0.0	1.534900e-01	3.617051e-02	0.0	1.650400e-01	3.712622e-02	0.0	1.769300e-01	3.803653e-02	0.0	1.891400e-01	3.890038e-02	0.0	2.016600e-01	3.971767e-02	0.0	2.144700e-01	4.048778e-02	0.0	2.275700e-01	4.121137e-02	0.0	2.409400e-01	4.188788e-02	0.0	2.545700e-01	4.251727e-02	0.0	2.684500e-01	4.309932e-02	0.0	2.825500e-01	4.363291e-02	0.0	2.968700e-01	4.411790e-02	0.0	3.114000e-01	4.455341e-02	0.0	3.261100e-01	4.493771e-02	0.0	3.409900e-01	4.526943e-02	0.0	3.560400e-01	4.554700e-02	0.0	3.712300e-01	4.576793e-02	0.0	3.865400e-01	4.592980e-02	0.0	4.019700e-01	4.603012e-02	0.0	4.175000e-01	4.606597e-02	0.0	4.331100e-01	4.603434e-02	0.0	4.487800e-01	4.593222e-02	0.0	4.645100e-01	4.575639e-02	0.0	4.802700e-01	4.550383e-02	0.0	4.960500e-01	4.517137e-02	0.0	5.118400e-01	4.475579e-02	0.0	5.276100e-01	4.425448e-02	0.0	5.433600e-01	4.366412e-02	0.0	5.590600e-01	4.298266e-02	0.0	5.747100e-01	4.220719e-02	0.0	5.902800e-01	4.133675e-02	0.0	6.057600e-01	4.037033e-02	0.0	6.211300e-01	3.930866e-02	0.0	6.363800e-01	3.815334e-02	0.0	6.515000e-01	3.690777e-02	0.0	6.664700e-01	3.557834e-02	0.0	6.812700e-01	3.417394e-02	0.0	6.958900e-01	3.270497e-02	0.0	7.103200e-01	3.118377e-02	0.0	7.245300e-01	2.962640e-02	0.0	7.385200e-01	2.804632e-02	0.0	7.522800e-01	2.645763e-02	0.0	7.657800e-01	2.487516e-02	0.0	7.790100e-01	2.330881e-02	0.0	7.919700e-01	2.176378e-02	0.0	8.046400e-01	2.024385e-02	0.0	8.170100e-01	1.874790e-02	0.0	8.290500e-01	1.727418e-02	0.0	8.407700e-01	1.581388e-02	0.0	8.521600e-01	1.435922e-02	0.0	8.631800e-01	1.290580e-02	0.0	8.738500e-01	1.144135e-02	0.0	8.841500e-01	9.959740e-03	0.0	8.940600e-01	8.458187e-03	0.0	9.035800e-01	6.938470e-03	0.0	9.127000e-01	5.418010e-03	0.0	9.214000e-01	3.937669e-03	0.0	9.296900e-01	2.559300e-03	0.0	9.375400e-01	1.373351e-03	0.0	9.449600e-01	4.695486e-04	0.0	9.519400e-01	-8.045639e-05	0.0	9.584700e-01	-2.567640e-04	0.0	9.645400e-01	-1.098048e-04	0.0	9.701500e-01	2.462028e-04	0.0	9.752800e-01	6.630127e-04	0.0	9.799500e-01	1.007044e-03	0.0	9.841300e-01	1.190295e-03	0.0	9.878400e-01	1.191927e-03	0.0	9.910500e-01	1.044878e-03	0.0	9.937800e-01	8.101748e-04	0.0	9.960200e-01	5.519494e-04	0.0	9.977600e-01	3.204640e-04	0.0	9.990000e-01	1.448296e-04	0.0	9.997500e-01	3.632224e-05	0.0	1.000000e+00	0.000000e+00	0.0	1.984229e+01	2.506660e+00	0.0	1.937166e+01	4.973800e+00	0.0	1.859553e+01	7.362490e+00	0.0	1.752613e+01	9.635070e+00	0.0	1.618034e+01	1.175571e+01	0.0	1.457937e+01	1.369094e+01	0.0	1.274848e+01	1.541027e+01	0.0	1.071654e+01	1.688656e+01	0.0	8.515590e+00	1.809654e+01	0.0	6.180340e+00	1.902113e+01	0.0	3.747630e+00	1.964575e+01	0.0	1.255810e+00	1.996053e+01	0.0	-1.255810e+00	1.996053e+01	0.0	-3.747630e+00	1.964574e+01	0.0	-6.180340e+00	1.902113e+01	0.0	-8.515590e+00	1.809654e+01	0.0	-1.071654e+01	1.688656e+01	0.0	-1.274848e+01	1.541026e+01	0.0	-1.457937e+01	1.369094e+01	0.0	-1.618034e+01	1.175570e+01	0.0	-1.752613e+01	9.635070e+00	0.0	-1.859553e+01	7.362490e+00	0.0	-1.937166e+01	4.973800e+00	0.0	-1.984229e+01	2.506660e+00	0.0	-2.000000e+01	0.000000e+00	0.0	-1.984229e+01	-2.506670e+00	0.0	-1.937166e+01	-4.973800e+00	0.0	-1.859553e+01	-7.362490e+00	0.0	-1.752613e+01	-9.635080e+00	0.0	-1.618034e+01	-1.175571e+01	0.0	-1.457937e+01	-1.369094e+01	0.0	-1.274848e+01	-1.541027e+01	0.0	-1.071653e+01	-1.688656e+01	0.0	-8.515580e+00	-1.809654e+01	0.0	-6.180340e+00	-1.902113e+01	0.0	-3.747620e+00	-1.964575e+01	0.0	-1.255810e+00	-1.996053e+01	0.0	1.255810e+00	-1.996053e+01	0.0	3.747630e+00	-1.964574e+01	0.0	6.180340e+00	-1.902113e+01	0.0	8.515590e+00	-1.809654e+01	0.0	1.071654e+01	-1.688656e+01	0.0	1.274848e+01	-1.541026e+01	0.0	1.457937e+01	-1.369094e+01	0.0	1.618034e+01	-1.175570e+01	0.0	1.752614e+01	-9.635070e+00	0.0	1.859553e+01	-7.362490e+00	0.0	1.937166e+01	-4.973790e+00	0.0	1.984229e+01	-2.506660e+00	0.0	2.000000e+01	0.000000e+00	0.0	6.108513e-02	-3.782387e-02	0.0	6.595856e-01	-4.977275e-02	0.0	4.255480e-01	6.025395e-02	0.0	6.897927e-01	4.666074e-02	0.0	3.792227e-01	-5.508496e-02	0.0	9.994688e-01	-7.275086e-04	0.0	9.985581e-01	-1.337115e-03	0.0	7.733799e-01	-4.473836e-02	0.0	6.892609e-01	-4.885715e-02	0.0	-8.015538e-04	4.849581e-03	0.0	7.462696e-01	-4.640949e-02	0.0	5.833565e-01	5.581609e-02	0.0	9.928496e-01	-3.874843e-03	0.0	9.899912e-01	-5.019901e-03	0.0	5.989361e-01	5.480953e-02	0.0	7.181974e-01	-4.775171e-02	0.0	-1.237509e-03	5.738208e-04	0.0	9.866560e-01	-6.400317e-03	0.0	9.828480e-01	-8.026005e-03	0.0	-8.878509e-04	-5.230491e-03	0.0	6.445109e-01	-5.017208e-02	0.0	8.242333e-01	-4.004543e-02	0.0	7.994007e-01	-4.265239e-02	0.0	3.484682e-01	5.916964e-02	0.0	8.477293e-01	-3.695097e-02	0.0	2.473351e-01	5.472149e-02	0.0	8.698225e-01	-3.351954e-02	0.0	1.068625e-02	1.525601e-02	0.0	8.904107e-01	-3.006679e-02	0.0	7.735273e-02	-4.164514e-02	0.0	9.094388e-01	-2.692392e-02	0.0	-1.446579e-03	-2.619526e-03	0.0	9.425619e-01	-2.143094e-02	0.0	9.268486e-01	-2.416864e-02	0.0	1.837968e-02	-2.220649e-02	0.0	4.257101e-01	-5.417520e-02	0.0	8.589604e-01	-3.525821e-02	0.0	9.564891e-01	-1.812257e-02	0.0	9.785548e-01	-9.907792e-03	0.0	9.685100e-01	-1.407651e-02	0.0	1.586109e-01	-5.259497e-02	0.0	9.001252e-01	-2.844253e-02	0.0	7.599553e-01	-4.562057e-02	0.0	9.971451e-01	-2.110044e-03	0.0	5.985196e-01	-5.117881e-02	0.0	4.413665e-01	-5.387286e-02	0.0	5.359501e-01	-5.223868e-02	0.0	4.728430e-01	-5.329292e-02	0.0	5.044056e-01	-5.275120e-02	0.0	4.886129e-01	-5.301639e-02	0.0	1.252832e-01	-4.935186e-02	0.0	2.824840e-02	-2.693590e-02	0.0	3.946263e-01	-5.478711e-02	0.0	4.658191e-02	-3.367180e-02	0.0	4.101234e-01	-5.448265e-02	0.0	3.189570e-01	-5.607106e-02	0.0	3.487896e-01	-5.563945e-02	0.0	3.389643e-02	-2.922439e-02	0.0	2.898037e-01	-5.632173e-02	0.0	9.349231e-01	-2.283468e-02	0.0	1.471472e-01	-5.162849e-02	0.0	1.950010e-01	-5.478839e-02	0.0	8.612412e-02	-4.340846e-02	0.0	1.049154e-01	-4.661547e-02	0.0	5.673630e-01	-5.173636e-02	0.0	1.704180e-01	-5.344470e-02	0.0	6.139698e-01	-5.086879e-02	0.0	8.803124e-01	-3.177404e-02	0.0	2.308659e-02	-2.459192e-02	0.0	9.952405e-01	-2.931529e-03	0.0	7.194822e-03	-1.499464e-02	0.0	1.866506e-02	1.916384e-02	0.0	9.183485e-01	-2.550997e-02	0.0	9.49
[...]
POINT_DATA 5233

SCALARS Conservative_1 float 1
LOOKUP_TABLE default
1.194412e+00	1.179872e+00	1.173676e+00	1.171813e+00	1.171085e+00	1.168542e+00	1.160123e+00	1.142811e+00	1.113737e+00	1.072137e+00	1.018153e+00	9.443235e-01	8.730993e-01	8.486378e-01	8.667720e-01	9.042400e-01	9.428453e-01	9.703643e-01	9.843546e-01	9.865089e-01	9.789513e-01	9.641986e-01	9.450007e-01	9.232219e-01	8.978975e-01	8.682755e-01	8.415039e-01	8.267904e-01	8.255303e-01	8.334294e-01	8.456221e-01	8.587614e-01	8.711457e-01	8.819858e-01	8.912552e-01	8.990779e-01	9.057112e-01	9.114399e-01	9.164734e-01	9.210670e-01	9.253533e-01	9.294732e-01	9.334529e-01	9.373126e-01	9.409879e-01	9.444207e-01	9.475060e-01	9.501617e-01	9.522829e-01	9.537940e-01	9.546105e-01	9.546872e-01	9.539787e-01	9.524693e-01	9.501430e-01	9.470091e-01	9.430733e-01	9.383666e-01	9.329485e-01	9.268956e-01	9.202628e-01	9.129276e-01	9.047764e-01	8.961070e-01	8.879298e-01	8.807029e-01	8.729384e-01	8.609509e-01	8.422473e-01	8.207138e-01	8.047537e-01	7.981409e-01	7.990229e-01	8.039314e-01	8.106150e-01	8.181643e-01	8.266660e-01	8.363802e-01	8.472985e-01	8.593652e-01	8.725990e-01	8.869549e-01	9.024833e-01	9.191700e-01	9.370579e-01	9.562311e-01	9.766992e-01	9.985695e-01	1.022027e+00	1.047115e+00	1.074169e+00	1.103667e+00	1.135983e+00	1.172091e+00	1.212733e+00	1.257639e+00	1.303085e+00	1.346735e+00	1.349306e+00	1.324721e+00	1.300200e+00	1.227321e+00	1.098893e+00	1.011732e+00	9.569996e-01	9.248623e-01	9.056024e-01	8.925518e-01	8.824387e-01	8.740776e-01	8.668525e-01	8.603042e-01	8.543161e-01	8.486905e-01	8.434043e-01	8.384989e-01	8.338645e-01	8.294100e-01	8.251687e-01	8.212022e-01	8.176250e-01	8.144395e-01	8.115169e-01	8.087591e-01	8.062431e-01	8.041499e-01	8.025497e-01	8.013406e-01	8.004645e-01	8.000110e-01	8.000914e-01	8.007039e-01	8.017455e-01	8.032038e-01	8.053237e-01	8.086321e-01	8.136617e-01	8.204184e-01	8.278852e-01	8.343143e-01	8.383140e-01	8.395040e-01	8.384120e-01	8.360474e-01	8.335056e-01	8.317112e-01	8.313508e-01	8.328972e-01	8.364167e-01	8.415182e-01	8.473271e-01	8.530914e-01	8.586378e-01	8.643443e-01	8.705839e-01	8.774827e-01	8.850078e-01	8.931790e-01	9.020671e-01	9.116281e-01	9.217069e-01	9.321215e-01	9.426655e-01	9.531536e-01	9.633606e-01	9.731163e-01	9.822246e-01	9.905812e-01	9.980856e-01	1.004806e+00	1.010810e+00	1.016271e+00	1.021430e+00	1.026561e+00	1.031980e+00	1.038041e+00	1.045147e+00	1.053812e+00	1.064563e+00	1.077910e+00	1.093920e+00	1.112001e+00	1.130603e+00	1.147657e+00	1.160781e+00	1.167657e+00	1.166274e+00	1.155337e+00	1.134700e+00	1.106691e+00	1.077495e+00	1.054939e+00	1.046522e+00	1.055433e+00	1.077393e+00	1.104449e+00	1.131407e+00	1.157742e+00	1.186225e+00	1.175266e+00	9.999816e-01	9.999859e-01	9.999797e-01	9.999673e-01	9.999554e-01	9.999414e-01	9.999188e-01	9.998848e-01	9.998448e-01	9.998091e-01	9.997836e-01	9.997878e-01	9.998223e-01	9.998945e-01	9.999573e-01	1.000007e+00	1.000034e+00	1.000050e+00	1.000058e+00	1.000061e+00	1.000062e+00	1.000061e+00	1.000061e+00	1.000062e+00	1.000062e+00	1.000064e+00	1.000067e+00	1.000072e+00	1.000079e+00	1.000088e+00	1.000097e+00	1.000111e+00	1.000123e+00	1.000137e+00	1.000143e+00	1.000139e+00	1.000124e+00	1.000102e+00	1.000086e+00	1.000076e+00	1.000075e+00	1.000072e+00	1.000068e+00	1.000060e+00	1.000050e+00	1.000037e+00	1.000029e+00	1.000024e+00	1.000001e+00	9.999773e-01	9.252657e-01	9.201341e-01	8.359901e-01	9.405484e-01	9.407571e-01	1.179519e+00	1.173131e+00	8.585381e-01	9.103860e-01	1.223162e+00	8.807384e-01	8.785481e-01	1.159707e+00	1.152641e+00	8.857515e-01	8.978138e-01	1.319057e+00	1.140210e+00	1.120043e+00	1.324922e+00	9.244126e-01	8.412521e-01	8.371701e-01	8.401848e-01	8.910920e-01	8.060808e-01	9.376908e-01	9.397845e-01	9.692000e-01	8.931319e-01	9.802745e-01	1.344475e+00	9.013168e-01	9.570584e-01	1.079745e+00	9.507142e-01	9.172775e-01	8.872638e-01	1.090925e+00	1.001871e+00	8.098224e-01	9.783807e-01	8.701636e-01	1.167136e+00	9.360562e-01	9.525251e-01	9.486352e-01	9.539168e-01	9.524861e-01	9.535383e-01	8.328612e-01	1.027705e+00	9.448223e-01	9.621437e-01	9.481441e-01	9.181518e-01	9.306053e-01	1.004351e+00	9.026712e-01	9.314461e-01	8.165267e-01	8.166052e-01	8.787856e-01	8.534259e-01	9.429463e-01	8.055411e-01	9.323305e-01	9.549119e-01	1.052756e+00	1.163787e+00	1.175793e+00	9.050758e-01	9.734162e-01	8.806319e-01	1.053346e+00	1.139609e+00	8.622698e-01	8.817387e-01	9.459830e-01	8.899272e-01	8.467861e-01	8.425160e-01	8.573308e-01	9.396177e-01	9.155204e-01	9.430922e-01	1.213705e+00	1.108980e+00	9.359892e-01	8.066957e-01	1.204358e+00	8.730095e-01	8.655532e-01	9.107971e-01	8.878162e-01	9.535905e-01	9.045706e-01	1.289335e+00	1.293395e+00	8.603212e-01	1.333211e+00	8.829240e-01	8.529942e-01	8.664061e-01	8.198894e-01	8.382907e-01	1.122841e+00	8.545399e-01	8.380858e-01	1.115083e+00	1.145744e+00	1.061392e+00	8.426672e-01	8.348522e-01	8.428628e-01	1.116687e+00	1.086273e+00	8.365568e-01	1.094269e+00	1.151326e+00	1.142865e+00	8.273449e-01	8.471408e-01	8.139885e-01	8.076371e-01	8.069418e-01	8.271836e-01	8.354498e-01	8.409363e-01	8.108496e-01	8.166009e-01	9.019404e-01	8.046619e-01	8.043670e-01	9.205604e-01	8.719396e-01	9.789616e-01	9.604669e-01	1.008331e+00	9.949953e-01	1.030771e+00	1.019729e+00	1.072874e+00	1.043736e+00	1.150064e+00	1.101214e+00	1.133264e+00	1.036855e+00	1.051792e+00	1.014188e+00	1.025165e+00	9.873286e-01	1.001988e+00	9.506010e-01	9.699659e-01	9.109849e-01	9.304737e-01	8.659579e-01	8.935271e-01	8.042284e-01	8.050140e-01	8.086641e-01	8.056057e-01	8.593707e-01	8.135473e-01	9.200747e-01	8.741971e-01	8.357334e-01	1.008070e+00	9.345057e-01	8.336523e-01	9.246741e-01	9.508325e-01	1.065936e+00	8.929918e-01	9.673213e-01	8.317427e-01	8.416858e-01	8.100755e-01	8.234229e-01	1.075999e+00	1.065786e+00	8.198194e-01	1.067542e+00	1.080525e+00	8.345919e-01	8.429063e-01	1.131166e+00	1.201971e+00	1.145877e+00	1.166353e+00	9.284495e-01	9.825384e-01	1.100531e+00	8.484672e-01	1.254185e+00	1.140935e+00	9.086137e-01	8.242855e-01	8.946195e-01	8.499844e-01	1.202472e+00	1.262572e+00	9.015096e-01	9.094141e-01	9.722896e-01	1.169396e+00	8.803095e-01	9.146085e-01	8.594445e-01	1.135159e+00	9.227108e-01	9.118298e-01	8.633457e-01	8.858116e-01	1.298770e+00	8.524646e-01	1.108388e+00	9.411353e-01	8.238434e-01	9.034552e-01	9.235551e-01	9.522313e-01	8.999916e-01	9.426461e-01	9.701046e-01	8.503036e-01	9.943920e-01	9.249430e-01	9.295332e-01	1.029348e+00	8.298770e-01	9.390952e-01	8.138942e-01	1.049836e+00	1.079784e+00	8.409340e-01	8.563145e-01	1.136840e+00	1.058493e+00	1.085566e+00	1.135249e+00	1.091098e+00	8.099703e-01	8.344958e-01	8.093507e-01	8.341419e-01	9.192951e-01	8.332393e-01	9.652462e-01	8.189312e-01	8.702842e-01	1.117838e+00	1.098309e+00	1.068429e+00	8.176583e-01	1.210118e+00	1.132957e+00	1.114690e+00	1.033024e+00	1.139566e+00	1.202602e+00	1.331477e+00	1.320939e+00	1.080816e+00	1.211737e+00	9.315493e-01	1.163441e+00	1.152816e+00	8.410371e-01	9.471466e-01	1.119590e+00	9.472478e-01	8.872135e-01	1.145812e+00	1.323302e+00	9.508728e-01	8.433069e-01	8.871890e-01	8.159068e-01	9.314817e-01	9.604629e-01	9.152285e-01	9.744049e-01	9.630721e-01	9.113478e-01	1.031156e+00	9.123098e-01	9.894208e-01	1.097456e+00	8.403271e-01	8.797504e-01	8.698000e-01	1.158171e+00	9.529032e-01	9.529188e-01	9.522913e-01	1.055258e+00	9.460852e-01	9.488334e-01	9.285142e-01	9.874896e-01	9.471595e-01	9.274053e-01	8.316546e-01	8.726787e-01	9.445275e-01	9.349474e-01	1.034117e+00	1.069046e+00	8.966570e-01	8.888089e-01	8.607353e-01	8.499597e-01	9.415899e-01	9.383647e-01	9.677008e-01	9.490642e-01	1.137785e+00	9.337827e-01	9.385302e-01	8.153850e-01	8.198822e-01	8.700899e-01	8.813788e-01	9.090984e-01	9.162977e-01	8.882733e-01	1.303869e+00	1.237320e+00	8.784390e-01	1.081744e+00	8.622140e-01	8.503329e-01	8.450345e-01	8.412465e-01	1.104315e+00	1.128714e+00	1.104410e+00	8.394744e-01	8.395460e-01	8.454541e-01	1.091848e+00	1.133695e+00	8.561787e-01	8.629088e-01	8.110604e-01	8.128838e-01	8.161703e-01	8.222674e-01	8.259543e-01	1.005745e+00	9.760424e-01	9.672692e-01	9.991752e-01	1.023532e+00	1.079614e+00	1.042240e+00	1.035497e+00	1.017827e+00	1.011960e+00	9.920197e-01	9.843050e-01	9.581083e-01	9.486654e-01	9.201408e-01	9.110928e-01	8.738623e-01	8.679261e-01	9.025601e-01	8.945980e-01	8.091899e-01	8.095677e-01	8.105280e-01	8.120171e-01	9.428719e-01	8.876692e-01	8.982478e-01	8.452324e-01	8.485585e-01	9.510938e-01	9.493466e-01	1.082598e+00	9.104362e-01	8.389064e-01	8.441995e-01	8.271758e-01	8.206740e-01	8.463800e-01	8.450431e-01	1.126532e+00	1.116366e+00	9.313288e-01	9.275601e-01	1.008572e+00	1.271129e+00	8.943924e-01	1.296677e+00	9.442056e-01	9.079980e-01	8.632902e-01	9.479558e-01	9.665289e-01	1.091354e+00	1.088547e+00	1.121768e+00	1.091884e+00	1.099778e+00	1.150666e+00	1.175895e+00	1.153339e+00	1.195357e+00	1.081873e+00	1.282688e+00	8.936931e-01	9.574765e-01	1.131817e+00	8.828142e-01	1.171105e+00	1.192114e+00	9.087079e-01	1.250618e+00	9.028529e-01	1.107253e+00	9.424358e-01	1.162719e+00	9.268099e-01	9.275962e-01	9.139403e-01	1.141148e+00	1.134465e+00	1.098181e+00	8.646081e-01	1.124204e+00	9.296331e-01	1.111843e+00	8.585491e-01	8.185329e-01	8.414307e-01	8.218575e-01	8.650349e-01	1.164396e+00	1.272698e+00	1.186178e+00	9.606963e-01	1.239865e+00	9.865610e-01	9.076562e-01	1.312810e+00	8.318876e-01	9.518517e-01	1.057757e+00	1.012881e+00	1.027890e+00	1.003562e+00	9.386794e-01	1.091161e+00	1.124767e+00	1.064259e+00	1.055479e+00	8.345443e-01	8.222548e-01	8.144593e-01	8.411783e-01	9.228711e-01	9.186081e-01	8.485903e-01	9.841648e-01	8.246290e-01	1.107058e+00	1.123932e+00	1.048777e+00	1.138895e+00	1.221780e+00	1.307831e+00	1.034686e+00	1.180507e+00	1.174355e+00	1.023721e+00	1.119627e+00	8.894760e-01	9.508918e-01	8.463697e-01	8.860428e-01	9.085162e-01	9.546114e-01	9.641775e-01	9.385817e-01	9.226379e-01	9.698792e-01	9.708264e-01	9.345446e-01	9.520146e-01	1.103158e+00	8.799775e-01	8.712757e-01	1.147009e+00	9.522026e-01	9.519257e-01	9.470838e-01	9.492952e-01	1.013214e+00	9.453507e-01	9.350664e-01	8.485311e-01	8.396713e-01	9.457522e-01	9.432145e-01	1.055019e+00	1.081380e+00	8.961405e-01	8.885043e-01	8.807749e-01	8.687406e-01	8.579912e-01	9.403565e-01	9.372740e-01	9.931391e-01	9.739153e-01	9.556394e-01	9.319197e-01	9.365921e-01	9.406904e-01	8.270044e-01	8.268203e-01	8.340167e-01	8.661878e-01	8.801563e-01	9.148600e-01	9.211330e-01	8.889503e-01	8.898036e-01	8.526672e-01	8.478922e-01	1.115522e+00	8.450122e-01	8.440412e-01	8.446725e-01	8.484589e-01	1.094545e+00	8.725503e-01	8.807731e-01	8.163094e-01	8.150610e-01	8.279369e-01	8.320802e-01	8.365905e-01	9.740421e-01	1.084143e+00	1.073820e+00	1.047577e+00	1.040477e+00	1.034054e+00	1.021898e+00	1.016004e+00	1.009929e+00	9.969008e-01	9.897571e-01	9.821132e-01	9.655754e-01	9.567784e-01	9.477898e-01	9.207334e-01	8.763780e-01	8.705256e-01	9.122245e-01	9.041444e-01	8.965673e-01	8.143489e-01	8.147141e-01	8.156602e-01	8.172226e-01	8.193688e-01	8.999892e-01	9.118586e-01	8.577349e-01	8.581247e-01	8.673475e-01	9.511152e-01	9.497458e-01	9.255946e-01	9.414896e-01	8.461769e-01	8.518814e-01	8.581669e-01	8.277052e-01	8.499398e-01	8.496570e-01	8.467970e-01	1.120255e+00	1.113470e+00	1.104650e+00	9.339678e-01	9.304906e-01	9.267926e-01	8.950612e-01	9.012488e-01	1.271690e+00	9.021431e-01	1.118537e+00	1.096453e+00	9.467799e-01	1.256433e+00	1.158030e+00	9.640175e-01	9.578236e-01	1.037574e+00	1.100872e+00	8.618235e-01	1.249332e+00	1.000009e+00	1.179873e+00	1.113992e+00	1.108880e+00	1.172022e+00	9.299089e-01	1.134381e+00	1.180918e+00	1.181417e+00	8.690684e-01	8.424182e-01	1.082053e+00	9.454199e-01	9.158735e-01	9.506500e-01	9.140668e-01	1.094316e+00	8.855926e-01	1.114616e+00	1.112801e+00	1.001877e+00	8.312890e-01	8.225710e-01	1.118561e+00	8.820853e-01	9.399694e-01	1.136692e+00	1.095635e+00	1.143266e+00	1.045107e+00	1.104980e+00	9.134727e-01	1.205529e+00	9.087414e-01	9.025098e-01	1.129543e+00	1.128651e+00	1.154696e+00	1.026119e+00	8.665374e-01	8.355184e-01	1.216146e+00	1.027428e+00	9.392052e-01	1.060803e+00	8.420935e-01	8.296840e-01	8.253504e-01	9.222944e-01	9.184051e-01	1.101004e+00	1.059084e+00	1.095778e+00	1.229993e+00	1.283768e+00	1.059305e+00	1.018804e+00	1.105329e+00	8.929738e-01	9.084945e-01	9.259752e-01	9.511224e-01	9.601242e-01	9.458611e-01	9.304246e-01	9.662873e-01	9.691111e-01	9.682439e-01	9.662799e-01	9.903109e-01	8.812607e-01	8.760876e-01	1.136831e+00	9.512881e-01	9.513487e-01	9.477356e-01	9.494687e-01	9.526506e-01	9.537583e-01	8.580614e-01	8.487791e-01	9.446224e-01	1.068316e+00	1.088644e+00	8.967600e-01	8.888163e-01	8.893041e-01	8.776838e-01	8.675945e-01	9.421000e-01	9.394303e-01	1.017920e+00	9.985916e-01	9.797022e-01	9.620871e-01	9.304506e-01	9.349712e-01	9.389512e-01	9.424668e-01	8.393523e-01	8.413762e-01	8.498525e-01	8.637037e-01	8.780525e-01	9.255295e-01	9.200080e-01	8.889822e-01	8.559936e-01	1.106344e+00	1.111035e+00	8.520929e-01	8.499939e-01	8.495706e-01	8.504291e-01	8.519863e-01	8.912916e-01	9.014993e-01	8.210130e-01	8.203434e-01	8.346733e-01	8.385835e-01	8.435325e-01	8.488157e-01	1.086574e+00	1.077802e+00	1.069182e+00	1.052954e+00	1.045791e+00	1.039198e+00	1.032195e+00	1.020923e+00	1.014196e+00	1.008128e+00	9.949734e-01	9.880864e-01	9.803760e-01	9.728414e-01	9.643115e-01	9.563456e-01	9.472532e-01	8.734775e-01	8.786708e-01	9.221925e-01	9.132539e-01	9.063656e-01	8.983044e-01	8.202481e-01	8.206977e-01	8.215089e-01	8.229513e-01	8.250498e-01	8.278544e-01	9.124226e-01	9.249606e-01	8.700989e-01	8.756172e-01	8.893528e-01	9.508625e-01	9.500372e-01	9.485421e-01	9.399415e-01	9.569782e-01	9.764927e-01	8.541610e-01	8.599281e-01	8.667251e-01	8.741127e-01	8.535568e-01	8.540529e-01	8.523893e-01	8.480710e-01	1.094950e+00	1.108572e+00	1.102602e+00	9.363453e-01	9.333257e-01	9.297755e-01	9.264027e-01	8.961308e-01	9.020693e-01	9.078721e-01	1.124508e+00	1.115330e+00	1.039988e+00	1.171680e+00	1.146935e+00	9.065146e-01	9.112859e-01	1.168842e+00	1.098154e+00	1.211687e+00	1.060348e+00	8.555423e-01	8.425011e-01	1.038587e+00	1.129597e+00	1.227563e+00	1.288644e+00	1.289939e+00	1.274908e+00	1.228852e+00	1.137529e+00	8.430348e-01	1.059611e+00	1.117550e+00	9.666593e-01	8.814536e-01	9.464520e-01	1.106680e+00	1.087695e+00	1.102889e+00	8.845903e-01	8.731906e-01	9.351041e-01	9.967392e-01	8.650515e-01	9.466771e-01	8.486297e-01	1.101346e+00	9.246949e-01	1.157799e+00	1.097006e+00	1.284116e+00	1.177035e+00	1.169551e+00	9.661367e-01	1.041053e+00	1.246978e+00	1.013005e+00	1.190703e+00	1.106199e+00	1.160772e+00	1.172019e+00	1.171979e+00	1.102849e+00	9.242586e-01	9.193664e-01	1.097943e+00	8.957091e-01	1.105527e+00	1.106456e+00	9.160455e-01	1.195480e+00	8.366609e-01	8.327901e-01	8.287035e-01	9.241433e-01	1.066494e+00	1.097275e+00	1.258548e+00	1.082011e+00	9.274257e-01	9.387535e-01	9.495789e-01	9.580023e-01	9.387092e-01	9.540934e-01	9.646113e-01	9.684733e-01	9.698419e-01	9.691582e-01	9.973090e-01	1.018831e+00	8.880947e-01	1.126271e+00	9.503760e-01	9.506485e-01	9.481433e-01	9.493288e-01	9.693588e-01	9.794289e-01	8.677878e-01	8.580211e-01	1.077572e+00	1.093286e+00	8.974195e-01	8.984466e-01	8.862442e-01	8.791212e-01	9.424847e-01	1.022503e+00	1.003951e+00	9.859008e-01	9.698652e-01	9.291273e-01	9.334587e-01	9.373931e-01	9.409157e-01	9.437980e-01	8.514671e-01	8.563363e-01	8.628268e-01	8.752381e-01	8.867913e-01	1.100565e+00	1.103264e+00	1.105353e+00	8.591602e-01	8.571953e-01	8.548865e-01	8.558930e-01	8.558942e-01	9.023522e-01	9.134323e-01	8.277693e-01	8.259821e-01	8.447636e-01	8.507524e-01	8.568816e-01	1.079655e+00	1.072659e+00	1.064741e+00	1.057545e+00	1.050341e+00	1.043737e+00	1.036895e+00	1.027591e+00	1.019301e+00	1.009244e+00	9.828156e-01	9.676797e-01	9.516319e-01	9.189629e-01	9.051797e-01	8.269118e-01	8.264258e-01	8.285019e-01	8.287358e-01	8.319693e-01	8.347140e-01	8.382419e-01	9.254338e-01	9.383301e-01	8.850718e-01	8.927558e-01	9.100776e-01	9.504643e-01	9.493718e-01	9.534527e-01	9.713885e-01	9.907822e-01	8.629743e-01	8.692160e-01	8.761892e-01	8.847442e-01	8.933888e-01	8.578893e-01	8.579934e-01	8.578800e-01	8.541901e-01	1.099165e+00	1.092736e+00	9.372081e-01	9.311174e-01	8.961188e-01	9.028497e-01	9.088909e-01	9.137711e-01	1.164194e+00	1.144862e+00	1.158067e+00	1.246131e+00	1.174499e+00	1.069545e+00	1.100952e+00	1.177800e+00	1.099263e+00	1.139311e+00	1.096260e+00	1.236667e+00	1.061463e+00	1.138757e+00	8.518761e-01	1.172785e+00	1.071206e+00	1.150031e+00	1.119171e+00	1.054281e+00	9.478738e-01	1.098328e+00	9.258121e-01	9.815480e-01	9.748689e-01	9.352610e-01	9.205027e-01	8.662765e-01	1.209476e+00	9.476691e-01	9.484994e-01	9.347677e-01	8.556530e-01	1.097270e+00	1.082477e+00	1.204300e+00	1.046628e+00	1.038130e+00	1.164303e+00	1.097151e+00	1.285568e+00	1.224602e+00	1.107312e+00	9.063468e-01	8.749461e-01	8.655780e-01	1.105136e+00	1.168223e+00	1.120427e+00	1.261839e+00	1.172059e+00	1.044228e+00	1.194319e+00	1.176755e+00	8.961973e-01	1.080623e+00	1.099020e+00	1.096562e+00	8.852370e-01	8.416196e-01	8.348968e-01	9.144952e-01	1.097224e+00	1.123959e+00	1.100510e+00	9.447566e-01	9.604730e-01	9.622087e-01	9.705496e-01	9.739451e-01	1.021252e+00	1.116714e+00	9.495950e-01	9.909713e-01	1.004720e+00	8.739713e-01	1.083582e+00	8.986892e-01	8.932031e-01	9.028024e-01	8.888403e-01	9.448417e-01	1.026871e+00	1.008422e+00	9.914319e-01	9.795303e-01	9.339960e-01	9.407977e-01	9.451324e-01	8.712008e-01	8.887562e-01	1.098068e+00	1.098934e+00	8.614115e-01	8.616846e-01	9.252020e-01	8.327827e-01	8.650098e-01	1.015571e+00	1.070395e+00	1.057011e+00	1.044244e+00	1.033554e+00	1.024690e+00	1.004496e+00	9.918224e-01	9.780011e-01	9.633043e-01	9.478172e-01	9.320524e-01	9.178420e-01	9.065882e-01	8.339787e-01	8.372956e-01	8.424553e-01	8.444268e-01	8.500472e-01	9.385903e-01	9.519079e-01	8.942645e-01	9.057768e-01	9.279863e-01	9.501223e-01	9.495188e-01	9.665633e-01	9.841508e-01	1.003474e+00	1.023823e+00	8.724554e-01	8.791745e-01	8.863803e-01	8.951969e-01	9.061552e-01	9.127847e-01	8.623278e-01	8.601216e-01	1.095492e+00	1.090551e+00	9.405087e-01	9.292572e-01	9.223818e-01	9.058821e-01	9.169578e-01	1.109781e+00	1.162919e+00	1.158923e+00	1.127146e+00	1.006075e+00	1.103022e+00	1.169043e+00	1.133373e+00	1.163850e+00	1.114173e+00	1.146116e+00	1.123653e+00	1.096040e+00	1.184500e+00	1.216175e+00	1.094457e+00	9.079455e-01	8.602919e-01	1.116554e+00	9.772786e-01	1.079367e+00	9.310416e-01	1.074193e+00	1.147896e+00	9.463617e-01	9.994198e-01	9.336514e-01	9.465003e-01	1.064256e+00	1.076351e+00	1.062509e+00	1.047597e+00	1.165568e+00	1.097112e+00	1.099413e+00	1.093512e+00	8.437028e-01	9.075079e-01	9.212191e-01	9.696822e-01	1.141694e+00	1.149374e+00	1.261508e+00	1.051320e+00	1.094015e+00	1.169188e+00	1.087752e+00	1.162689e+00	1.130894e+00	9.485491e-01	1.204560e+00	9.595217e-01	9.434972e-01	1.095666e+00	1.222777e+00	1.038004e+00	1.098171e+00	9.142998e-01	1.238240e+00	1.170844e+00	9.857451e-01	1.191971e+00	1.178580e+00	8.862404e-01	1.097039e+00	1.091643e+00	8.969539e-01	8.513684e-01	9.182131e-01	1.118218e+00	1.140111e+00	9.581773e-01	9.696708e-01	9.817373e-01	9.885754e-01	1.108335e+00	9.483948e-01	1.011439e+00	1.024447e+00	9.431995e-01	9.116908e-01	9.277471e-01	9.035515e-01	9.277947e-01	9.117747e-01	8.969297e-01	1.029832e+00	9.314240e-01	9.381114e-01	8.846308e-01	8.796810e-01	9.277913e-01	1.094878e+00	8.761739e-01	8.694252e-01	8.729132e-01	1.073188e+00	1.061906e+00	1.021158e+00	1.050113e+00	1.039335e+00	1.030003e+00	1.011318e+00	9.998908e-01	9.872555e-01	9.737974e-01	9.595659e-01	9.446854e-01	9.304019e-01	8.402116e-01	8.407500e-01	8.441067e-01	8.493713e-01	8.548696e-01	8.639292e-01	9.506177e-01	9.651941e-01	9.037586e-01	9.444759e-01	9.495478e-01	9.495384e-01	9.792200e-01	9.954762e-01	1.014082e+00	1.032881e+00	1.052878e+00	8.826186e-01	8.908831e-01	8.977855e-01	9.059964e-01	9.168986e-01	8.673693e-01	8.674675e-01	8.659883e-01	1.088752e+00	1.082231e+00	9.431966e-01	9.388092e-01	8.864313e-01	9.012841e-01	9.148317e-01	9.239971e-01	1.144516e+00	1.151616e+00	1.149218e+00	1.112208e+00	1.149223e+00	1.130603e+00	1.112348e+00	1.016371e+00	1.166639e+00	1.116332e+00	1.113000e+00	1.049285e+00	1.159554e+00	1.090133e+00	8.487349e-01	1.135010e+00	1.139070e+00	1.108511e+00	1.164457e+00	1.076001e+00	9.065817e-01	1.008508e+00	9.859465e-01	9.131814e-01	1.130767e+00	1.123923e+00	1.120210e+00	1.167245e+00	1.151666e+00	9.089602e-01	9.