# vtk DataFile Version 3.0
vtk output
ASCII
DATASET UNSTRUCTURED_GRID
POINTS 200 float
9.997500e-01	-3.633641e-05	0.0	9.990000e-01	-1.457236e-04	0.0	9.977600e-01	-3.302549e-04	0.0	9.960200e-01	-6.046871e-04	0.0	9.937800e-01	-1.000008e-03	0.0	9.910500e-01	-1.566667e-03	0.0	9.878400e-01	-2.368821e-03	0.0	9.841300e-01	-3.473358e-03	0.0	9.799500e-01	-4.897493e-03	0.0	9.752800e-01	-6.610149e-03	0.0	9.701500e-01	-8.490367e-03	0.0	9.645400e-01	-1.038417e-02	0.0	9.584700e-01	-1.211927e-02	0.0	9.519400e-01	-1.357993e-02	0.0	9.449600e-01	-1.473286e-02	0.0	9.375400e-01	-1.563324e-02	0.0	9.296900e-01	-1.639608e-02	0.0	9.214000e-01	-1.715477e-02	0.0	9.127000e-01	-1.801681e-02	0.0	9.035800e-01	-1.904806e-02	0.0	8.940600e-01	-2.026085e-02	0.0	8.841500e-01	-2.162668e-02	0.0	8.738500e-01	-2.309241e-02	0.0	8.631800e-01	-2.459193e-02	0.0	8.521600e-01	-2.606206e-02	0.0	8.407700e-01	-2.745591e-02	0.0	8.290500e-01	-2.873398e-02	0.0	8.170100e-01	-2.987663e-02	0.0	8.046400e-01	-3.087962e-02	0.0	7.919700e-01	-3.174616e-02	0.0	7.790100e-01	-3.248894e-02	0.0	7.657800e-01	-3.312432e-02	0.0	7.522800e-01	-3.367096e-02	0.0	7.385200e-01	-3.414604e-02	0.0	7.245300e-01	-3.456390e-02	0.0	7.103200e-01	-3.493666e-02	0.0	6.958900e-01	-3.527354e-02	0.0	6.812700e-01	-3.558031e-02	0.0	6.664700e-01	-3.586116e-02	0.0	6.515000e-01	-3.611898e-02	0.0	6.363800e-01	-3.635595e-02	0.0	6.211300e-01	-3.657442e-02	0.0	6.057600e-01	-3.677748e-02	0.0	5.902800e-01	-3.696907e-02	0.0	5.747100e-01	-3.715392e-02	0.0	5.590600e-01	-3.733765e-02	0.0	5.433600e-01	-3.752614e-02	0.0	5.276100e-01	-3.772573e-02	0.0	5.118400e-01	-3.794205e-02	0.0	4.960500e-01	-3.818039e-02	0.0	4.802700e-01	-3.844450e-02	0.0	4.645100e-01	-3.873697e-02	0.0	4.487800e-01	-3.905883e-02	0.0	4.331100e-01	-3.940891e-02	0.0	4.175000e-01	-3.978495e-02	0.0	4.019700e-01	-4.018255e-02	0.0	3.865400e-01	-4.059580e-02	0.0	3.712300e-01	-4.101742e-02	0.0	3.560400e-01	-4.143967e-02	0.0	3.409900e-01	-4.185344e-02	0.0	3.261100e-01	-4.224886e-02	0.0	3.114000e-01	-4.261660e-02	0.0	2.968700e-01	-4.294706e-02	0.0	2.825500e-01	-4.323036e-02	0.0	2.684500e-01	-4.345755e-02	0.0	2.545700e-01	-4.362022e-02	0.0	2.409400e-01	-4.371018e-02	0.0	2.275700e-01	-4.372029e-02	0.0	2.144700e-01	-4.364406e-02	0.0	2.016600e-01	-4.347585e-02	0.0	1.891400e-01	-4.321054e-02	0.0	1.769300e-01	-4.284406e-02	0.0	1.650400e-01	-4.237293e-02	0.0	1.534900e-01	-4.179494e-02	0.0	1.422900e-01	-4.110840e-02	0.0	1.314400e-01	-4.031157e-02	0.0	1.209500e-01	-3.940393e-02	0.0	1.108500e-01	-3.838794e-02	0.0	1.011300e-01	-3.726317e-02	0.0	9.181000e-02	-3.603315e-02	0.0	8.290000e-02	-3.470149e-02	0.0	7.440000e-02	-3.327117e-02	0.0	6.633000e-02	-3.174950e-02	0.0	5.869000e-02	-3.014144e-02	0.0	5.149000e-02	-2.845479e-02	0.0	4.474000e-02	-2.669858e-02	0.0	3.844000e-02	-2.488015e-02	0.0	3.260000e-02	-2.301019e-02	0.0	2.723000e-02	-2.110055e-02	0.0	2.232000e-02	-1.915581e-02	0.0	1.790000e-02	-1.719649e-02	0.0	1.395000e-02	-1.522160e-02	0.0	1.049000e-02	-1.324707e-02	0.0	7.520000e-03	-1.127782e-02	0.0	5.040000e-03	-9.314496e-03	0.0	3.050000e-03	-7.350420e-03	0.0	1.560000e-03	-5.380759e-03	0.0	5.600000e-04	-3.354116e-03	0.0	6.000000e-05	-1.187598e-03	0.0	0.000000e+00	0.000000e+00	0.0	6.000000e-05	1.145475e-03	0.0	5.600000e-04	3.137790e-03	0.0	1.560000e-03	4.912331e-03	0.0	3.050000e-03	6.568920e-03	0.0	5.040000e-03	8.167157e-03	0.0	7.520000e-03	9.723386e-03	0.0	1.049000e-02	1.125362e-02	0.0	1.395000e-02	1.276672e-02	0.0	1.790000e-02	1.426735e-02	0.0	2.232000e-02	1.575113e-02	0.0	2.723000e-02	1.722591e-02	0.0	3.260000e-02	1.868264e-02	0.0	3.844000e-02	2.012375e-02	0.0	4.474000e-02	2.154560e-02	0.0	5.149000e-02	2.294472e-02	0.0	5.869000e-02	2.431972e-02	0.0	6.633000e-02	2.566720e-02	0.0	7.440000e-02	2.698407e-02	0.0	8.290000e-02	2.826902e-02	0.0	9.181000e-02	2.951794e-02	0.0	1.011300e-01	3.072996e-02	0.0	1.108500e-01	3.190299e-02	0.0	1.209500e-01	3.303416e-02	0.0	1.314400e-01	3.412424e-02	0.0	1.422900e-01	3.516994e-02	0.0	1.534900e-01	3.617051e-02	0.0	1.650400e-01	3.712622e-02	0.0	1.769300e-01	3.803653e-02	0.0	1.891400e-01	3.890038e-02	0.0	2.016600e-01	3.971767e-02	0.0	2.144700e-01	4.048778e-02	0.0	2.275700e-01	4.121137e-02	0.0	2.409400e-01	4.188788e-02	0.0	2.545700e-01	4.251727e-02	0.0	2.684500e-01	4.309932e-02	0.0	2.825500e-01	4.363291e-02	0.0	2.968700e-01	4.411790e-02	0.0	3.114000e-01	4.455341e-02	0.0	3.261100e-01	4.493771e-02	0.0	3.409900e-01	4.526943e-02	0.0	3.560400e-01	4.554700e-02	0.0	3.712300e-01	4.576793e-02	0.0	3.865400e-01	4.592980e-02	0.0	4.019700e-01	4.603012e-02	0.0	4.175000e-01	4.606597e-02	0.0	4.331100e-01	4.603434e-02	0.0	4.487800e-01	4.593222e-02	0.0	4.645100e-01	4.575639e-02	0.0	4.802700e-01	4.550383e-02	0.0	4.960500e-01	4.517137e-02	0.0	5.118400e-01	4.475579e-02	0.0	5.276100e-01	4.425448e-02	0.0	5.433600e-01	4.366412e-02	0.0	5.590600e-01	4.298266e-02	0.0	5.747100e-01	4.220719e-02	0.0	5.902800e-01	4.133675e-02	0.0	6.057600e-01	4.037033e-02	0.0	6.211300e-01	3.930866e-02	0.0	6.363800e-01	3.815334e-02	0.0	6.515000e-01	3.690777e-02	0.0	6.664700e-01	3.557834e-02	0.0	6.812700e-01	3.417394e-02	0.0	6.958900e-01	3.270497e-02	0.0	7.103200e-01	3.118377e-02	0.0	7.245300e-01	2.962640e-02	0.0	7.385200e-01	2.804632e-02	0.0	7.522800e-01	2.645763e-02	0.0	7.657800e-01	2.487516e-02	0.0	7.790100e-01	2.330881e-02	0.0	7.919700e-01	2.176378e-02	0.0	8.046400e-01	2.024385e-02	0.0	8.170100e-01	1.874790e-02	0.0	8.290500e-01	1.727418e-02	0.0	8.407700e-01	1.581388e-02	0.0	8.521600e-01	1.435922e-02	0.0	8.631800e-01	1.290580e-02	0.0	8.738500e-01	1.144135e-02	0.0	8.841500e-01	9.959740e-03	0.0	8.940600e-01	8.458187e-03	0.0	9.035800e-01	6.938470e-03	0.0	9.127000e-01	5.418010e-03	0.0	9.214000e-01	3.937669e-03	0.0	9.296900e-01	2.559300e-03	0.0	9.375400e-01	1.373351e-03	0.0	9.449600e-01	4.695486e-04	0.0	9.519400e-01	-8.045639e-05	0.0	9.584700e-01	-2.567640e-04	0.0	9.645400e-01	-1.098048e-04	0.0	9.701500e-01	2.462028e-04	0.0	9.752800e-01	6.630127e-04	0.0	9.799500e-01	1.007044e-03	0.0	9.841300e-01	1.190295e-03	0.0	9.878400e-01	1.191927e-03	0.0	9.910500e-01	1.044878e-03	0.0	9.937800e-01	8.101748e-04	0.0	9.960200e-01	5.519494e-04	0.0	9.977600e-01	3.204640e-04	0.0	9.990000e-01	1.448296e-04	0.0	9.997500e-01	3.632224e-05	0.0	1.000000e+00	0.000000e+00	0.0	
CELLS 200	600
2	199	0	2	0	1	2	1	2	2	2	3	2	3	4	2	4	5	2	5	6	2	6	7	2	7	8	2	8	9	2	9	10	2	10	11	2	11	12	2	12	13	2	13	14	2	14	15	2	15	16	2	16	17	2	17	18	2	18	19	2	19	20	2	20	21	2	21	22	2	22	23	2	23	24	2	24	25	2	25	26	2	26	27	2	27	28	2	28	29	2	29	30	2	30	31	2	31	32	2	32	33	2	33	34	2	34	35	2	35	36	2	36	37	2	37	38	2	38	39	2	39	40	2	40	41	2	41	42	2	42	43	2	43	44	2	44	45	2	45	46	2	46	47	2	47	48	2	48	49	2	49	50	2	50	51	2	51	52	2	52	53	2	53	54	2	54	55	2	55	56	2	56	57	2	57	58	2	58	59	2	59	60	2	60	61	2	61	62	2	62	63	2	63	64	2	64	65	2	65	66	2	66	67	2	67	68	2	68	69	2	69	70	2	70	71	2	71	72	2	72	73	2	73	74	2	74	75	2	75	76	2	76	77	2	77	78	2	78	79	2	79	80	2	80	81	2	81	82	2	82	83	2	83	84	2	84	85	2	85	86	2	86	87	2	87	88	2	88	89	2	89	90	2	90	91	2	91	92	2	92	93	2	93	94	2	94	95	2	95	96	2	96	97	2	97	98	2	98	99	2	99	100	2	100	101	2	101	102	2	102	103	2	103	104	2	104	105	2	105	106	2	106	107	2	107	108	2	108	109	2	109	110	2	110	111	2	111	112	2	112	113	2	113	114	2	114	115	2	115	116	2	116	117	2	117	118	2	118	119	2	119	120	2	120	121	2	121	122	2	122	123	2	123	124	2	124	125	2	125	126	2	126	127	2	127	128	2	128	129	2	129	130	2	130	131	2	131	132	2	132	133	2	133	134	2	134	135	2	135	136	2	136	137	2	137	138	2	138	139	2	139	140	2	140	141	2	141	142	2	142	143	2	143	144	2	144	145	2	145	146	2	146	147	2	147	148	2	148	149	2	149	150	2	150	151	2	151	152	2	152	153	2	153	154	2	154	155	2	155	156	2	156	157	2	157	158	2	158	159	2	159	160	2	160	161	2	161	162	2	162	163	2	163	164	2	164	165	2	165	166	2	166	167	2	167	168	2	168	169	2	169	170	2	170	171	2	171	172	2	172	173	2	173	174	2	174	175	2	175	176	2	176	177	2	177	178	2	178	179	2	179	180	2	180	181	2	181	182	2	182	183	2	183	184	2	184	185	2	185	186	2	186	187	2	187	188	2	188	189	2	189	190	2	190	191	2	191	192	2	192	193	2	193	194	2	194	195	2	195	196	2	196	197	2	197	198	2	198	199	
CELL_TYPES 200
3	3	3	3	3	3	3	3	3	3	3	3	3	3	3	3	3	3	3	3	3	3	3	3	3	3	3	3	3	3	3	3	3	3	3	3	3	3	3	3	3	3	3	3	3	3	3	3	3	3	3	3	3	3	3	3	3	3	3	3	3	3	3	3	3	3	3	3	3	3	3	3	3	3	3	3	3	3	3	3	3	3	3	3	3	3	3	3	3	3	3	3	3	3	3	3	3	3	3	3	3	3	3	3	3	3	3	3	3	3	3	3	3	3	3	3	3	3	3	3	3	3	3	3	3	3	3	3	3	3	3	3	3	3	3	3	3	3	3	3	3	3	3	3	3	3	3	3	3	3	3	3	3	3	3	3	3	3	3	3	3	3	3	3	3	3	3	3	3	3	3	3	3	3	3	3	3	3	3	3	3	3	3	3	3	3	3	3	3	3	3	3	3	3	3	3	3	3	3	3	
POINT_DATA 200

SCALARS Conservative_1 float 1
LOOKUP_TABLE default
1.194412e+00	1.179872e+00	1.173676e+00	1.171813e+00	1.171085e+00	1.168542e+00	1.160123e+00	1.142811e+00	1.113737e+00	1.072137e+00	1.018153e+00	9.443235e-01	8.730993e-01	8.486378e-01	8.667720e-01	9.042400e-01	9.428453e-01	9.703643e-01	9.843546e-01	9.865089e-01	9.789513e-01	9.641986e-01	9.450007e-01	9.232219e-01	8.978975e-01	8.682755e-01	8.415039e-01	8.267904e-01	8.255303e-01	8.334294e-01	8.456221e-01	8.587614e-01	8.711457e-01	8.819858e-01	8.912552e-01	8.990779e-01	9.057112e-01	9.114399e-01	9.164734e-01	9.210670e-01	9.253533e-01	9.294732e-01	9.334529e-01	9.373126e-01	9.409879e-01	9.444207e-01	9.475060e-01	9.501617e-01	9.522829e-01	9.537940e-01	9.546105e-01	9.546872e-01	9.539787e-01	9.524693e-01	9.501430e-01	9.470091e-01	9.430733e-01	9.383666e-01	9.329485e-01	9.268956e-01	9.202628e-01	9.129276e-01	9.047764e-01	8.961070e-01	8.879298e-01	8.807029e-01	8.729384e-01	8.609509e-01	8.422473e-01	8.207138e-01	8.047537e-01	7.981409e-01	7.990229e-01	8.039314e-01	8.106150e-01	8.181643e-01	8.266660e-01	8.363802e-01	8.472985e-01	8.593652e-01	8.725990e-01	8.869549e-01	9.024833e-01	9.191700e-01	9.370579e-01	9.562311e-01	9.766992e-01	9.985695e-01	1.022027e+00	1.047115e+00	1.074169e+00	1.103667e+00	1.135983e+00	1.172091e+00	1.212733e+00	1.257639e+00	1.303085e+00	1.346735e+00	1.349306e+00	1.324721e+00	1.300200e+00	1.227321e+00	1.098893e+00	1.011732e+00	9.569996e-01	9.248623e-01	9.056024e-01	8.925518e-01	8.824387e-01	8.740776e-01	8.668525e-01	8.603042e-01	8.543161e-01	8.486905e-01	8.434043e-01	8.384989e-01	8.338645e-01	8.294100e-01	8.251687e-01	8.212022e-01	8.176250e-01	8.144395e-01	8.115169e-01	8.087591e-01	8.062431e-01	8.041499e-01	8.025497e-01	8.013406e-01	8.004645e-01	8.000110e-01	8.000914e-01	8.007039e-01	8.017455e-01	8.032038e-01	8.053237e-01	8.086321e-01	8.136617e-01	8.204184e-01	8.278852e-01	8.343143e-01	8.383140e-01	8.395040e-01	8.384120e-01	8.360474e-01	8.335056e-01	8.317112e-01	8.313508e-01	8.328972e-01	8.364167e-01	8.415182e-01	8.473271e-01	8.530914e-01	8.586378e-01	8.643443e-01	8.705839e-01	8.774827e-01	8.850078e-01	8.931790e-01	9.020671e-01	9.116281e-01	9.217069e-01	9.321215e-01	9.426655e-01	9.531536e-01	9.633606e-01	9.731163e-01	9.822246e-01	9.905812e-01	9.980856e-01	1.004806e+00	1.010810e+00	1.016271e+00	1.021430e+00	1.026561e+00	1.031980e+00	1.038041e+00	1.045147e+00	1.053812e+00	1.064563e+00	1.077910e+00	1.093920e+00	1.112001e+00	1.130603e+00	1.147657e+00	1.160781e+00	1.167657e+00	1.166274e+00	1.155337e+00	1.134700e+00	1.106691e+00	1.077495e+00	1.054939e+00	1.046522e+00	1.055433e+00	1.077393e+00	1.104449e+00	1.131407e+00	1.157742e+00	1.186225e+00	1.175266e+00	
SCALARS Conservative_2 float 1
LOOKUP_TABLE default
7.027476e-01	7.246239e-01	7.364720e-01	7.398785e-01	7.383367e-01	7.375188e-01	7.411667e-01	7.539478e-01	7.786543e-01	8.151378e-01	8.598171e-01	9.056348e-01	9.389756e-01	9.618318e-01	9.745400e-01	9.732965e-01	9.647628e-01	9.546231e-01	9.463817e-01	9.429401e-01	9.444105e-01	9.495189e-01	9.563392e-01	9.634495e-01	9.700404e-01	9.748710e-01	9.767236e-01	9.772639e-01	9.779117e-01	9.786807e-01	9.792807e-01	9.794603e-01	9.792896e-01	9.786408e-01	9.777920e-01	9.767867e-01	9.757605e-01	9.747785e-01	9.737631e-01	9.727856e-01	9.717628e-01	9.707394e-01	9.696592e-01	9.685749e-01	9.674669e-01	9.664030e-01	9.653895e-01	9.645017e-01	9.637564e-01	9.632178e-01	9.628975e-01	9.628519e-01	9.630732e-01	9.635810e-01	9.643555e-01	9.653968e-01	9.666594e-01	9.681139e-01	9.696964e-01	9.713371e-01	9.730261e-01	9.747158e-01	9.764016e-01	9.778472e-01	9.788932e-01	9.794891e-01	9.800734e-01	9.809102e-01	9.815666e-01	9.806319e-01	9.785413e-01	9.769406e-01	9.763854e-01	9.762982e-01	9.764063e-01	9.762790e-01	9.758977e-01	9.751196e-01	9.736447e-01	9.713183e-01	9.680390e-01	9.634941e-01	9.574759e-01	9.496351e-01	9.396021e-01	9.268814e-01	9.109010e-01	8.910784e-01	8.664965e-01	8.358543e-01	7.976025e-01	7.494122e-01	6.876163e-01	6.078172e-01	5.034887e-01	3.691926e-01	2.120600e-01	6.261702e-02	-7.751293e-03	7.373434e-03	7.800971e-02	2.446146e-01	4.732020e-01	6.442523e-01	7.545059e-01	8.236393e-01	8.667513e-01	8.948531e-01	9.137964e-01	9.272743e-01	9.372252e-01	9.446990e-01	9.505210e-01	9.551242e-01	9.587815e-01	9.617323e-01	9.640898e-01	9.659637e-01	9.675182e-01	9.687770e-01	9.698103e-01	9.706730e-01	9.713527e-01	9.718451e-01	9.722609e-01	9.726465e-01	9.730182e-01	9.733389e-01	9.736389e-01	9.739554e-01	9.743216e-01	9.747401e-01	9.751962e-01	9.757150e-01	9.763293e-01	9.771062e-01	9.780069e-01	9.788969e-01	9.795296e-01	9.798230e-01	9.799129e-01	9.799351e-01	9.799525e-01	9.799777e-01	9.800149e-01	9.800839e-01	9.801995e-01	9.804145e-01	9.806205e-01	9.807929e-01	9.808229e-01	9.807241e-01	9.805185e-01	9.802102e-01	9.797172e-01	9.789907e-01	9.779957e-01	9.766463e-01	9.748986e-01	9.727026e-01	9.700341e-01	9.669080e-01	9.633535e-01	9.594439e-01	9.552794e-01	9.509881e-01	9.466977e-01	9.425568e-01	9.385736e-01	9.348727e-01	9.313866e-01	9.280122e-01	9.246384e-01	9.210673e-01	9.170408e-01	9.122587e-01	9.062778e-01	8.985726e-01	8.883823e-01	8.750750e-01	8.582176e-01	8.382724e-01	8.168896e-01	7.971758e-01	7.828744e-01	7.775258e-01	7.835654e-01	8.015206e-01	8.291338e-01	8.614937e-01	8.908946e-01	9.090014e-01	9.115069e-01	8.998302e-01	8.770663e-01	8.473881e-01	8.133133e-01	7.751851e-01	7.322306e-01	6.591773e-01	
SCALARS Conservative_3 float 1
LOOKUP_TABLE default
1.002476e-01	1.047416e-01	1.124441e-01	1.235842e-01	1.421019e-01	1.691550e-01	2.034215e-01	2.408237e-01	2.751327e-01	2.974508e-01	2.995645e-01	2.822952e-01	2.396469e-01	1.853661e-01	1.382185e-01	1.046646e-01	8.948934e-02	9.022094e-02	1.000304e-01	1.131162e-01	1.250207e-01	1.328446e-01	1.349940e-01	1.313070e-01	1.234702e-01	1.134795e-01	1.011195e-01	8.729993e-02	7.383547e-02	6.174020e-02	5.146615e-02	4.305023e-02	3.640970e-02	3.124042e-02	2.721543e-02	2.405560e-02	2.151316e-02	1.939376e-02	1.756915e-02	1.595927e-02	1.454177e-02	1.333177e-02	1.236741e-02	1.169669e-02	1.136739e-02	1.141098e-02	1.184321e-02	1.265126e-02	1.380792e-02	1.525244e-02	1.691819e-02	1.871186e-02	2.054274e-02	2.230574e-02	2.390145e-02	2.523209e-02	2.621063e-02	2.675398e-02	2.679245e-02	2.624567e-02	2.505587e-02	2.322922e-02	2.082254e-02	1.778966e-02	1.389164e-02	8.887150e-03	2.873985e-03	-3.421403e-03	-9.294253e-03	-1.557282e-02	-2.356597e-02	-3.290238e-02	-4.308478e-02	-5.390094e-02	-6.541750e-02	-7.772231e-02	-9.095673e-02	-1.051408e-01	-1.202770e-01	-1.364134e-01	-1.535615e-01	-1.717129e-01	-1.908913e-01	-2.110707e-01	-2.322155e-01	-2.543016e-01	-2.773051e-01	-3.011712e-01	-3.257396e-01	-3.508867e-01	-3.763347e-01	-4.012522e-01	-4.242165e-01	-4.417896e-01	-4.459090e-01	-4.208647e-01	-3.395235e-01	-1.700593e-01	7.163250e-02	2.704292e-01	4.554148e-01	6.427752e-01	6.806301e-01	6.199207e-01	5.390175e-01	4.671499e-01	4.093149e-01	3.628349e-01	3.249562e-01	2.933434e-01	2.666882e-01	2.437602e-01	2.237644e-01	2.061083e-01	1.903426e-01	1.761412e-01	1.632522e-01	1.514433e-01	1.405856e-01	1.305482e-01	1.212456e-01	1.126271e-01	1.046068e-01	9.709048e-02	9.003941e-02	8.342860e-02	7.726327e-02	7.147570e-02	6.601923e-02	6.085797e-02	5.598360e-02	5.138541e-02	4.700710e-02	4.279478e-02	3.869489e-02	3.471187e-02	3.087440e-02	2.723798e-02	2.376368e-02	2.025627e-02	1.655214e-02	1.263184e-02	8.541096e-03	4.317123e-03	-4.995871e-06	-4.431401e-03	-8.984854e-03	-1.366725e-02	-1.847789e-02	-2.342124e-02	-2.855329e-02	-3.397631e-02	-3.969883e-02	-4.567250e-02	-5.180548e-02	-5.806979e-02	-6.444257e-02	-7.086321e-02	-7.721791e-02	-8.338015e-02	-8.919489e-02	-9.453807e-02	-9.923556e-02	-1.031953e-01	-1.063161e-01	-1.086195e-01	-1.101387e-01	-1.110326e-01	-1.114982e-01	-1.117915e-01	-1.121787e-01	-1.129102e-01	-1.142037e-01	-1.162135e-01	-1.190426e-01	-1.227597e-01	-1.273430e-01	-1.326149e-01	-1.380574e-01	-1.425602e-01	-1.442610e-01	-1.406960e-01	-1.293541e-01	-1.086884e-01	-7.872539e-02	-4.163007e-02	-1.809754e-03	3.440526e-02	5.951132e-02	6.670083e-02	5.272694e-02	2.107751e-02	-1.935894e-02	-5.805223e-02	-8.684335e-02	-1.030463e-01	-1.091357e-01	-1.070336e-01	-1.001758e-01	3.423882e-03	
SCALARS Conservative_4 float 1
LOOKUP_TABLE default
3.428527e+00	3.392157e+00	3.377338e+00	3.373126e+00	3.371437e+00	3.365297e+00	3.344301e+00	3.301049e+00	3.228233e+00	3.123764e+00	2.987523e+00	2.799135e+00	2.615808e+00	2.554685e+00	2.603986e+00	2.701360e+00	2.801076e+00	2.871800e+00	2.907326e+00	2.912577e+00	2.893091e+00	2.855247e+00	2.805928e+00	2.749798e+00	2.684219e+00	2.607031e+00	2.536741e+00	2.497894e+00	2.494438e+00	2.515113e+00	2.547122e+00	2.581615e+00	2.614125e+00	2.642496e+00	2.666717e+00	2.687105e+00	2.704365e+00	2.719262e+00	2.732319e+00	2.744232e+00	2.755326e+00	2.765987e+00	2.776268e+00	2.786237e+00	2.795716e+00	2.804569e+00	2.812516e+00	2.819357e+00	2.824817e+00	2.828708e+00	2.830807e+00	2.831009e+00	2.829189e+00	2.825310e+00	2.819327e+00	2.811265e+00	2.801130e+00	2.789001e+00	2.775021e+00	2.759379e+00	2.742224e+00	2.723221e+00	2.702077e+00	2.679518e+00	2.658172e+00	2.639228e+00	2.618892e+00	2.587549e+00	2.538581e+00	2.481853e+00	2.439494e+00	2.421789e+00	2.424032e+00	2.436987e+00	2.454714e+00	2.474710e+00	2.497219e+00	2.522901e+00	2.551665e+00	2.583351e+00	2.618017e+00	2.655493e+00	2.695899e+00	2.739153e+00	2.785329e+00	2.834593e+00	2.886914e+00	2.942549e+00	3.001907e+00	3.064990e+00	3.132612e+00	3.205891e+00	3.285576e+00	3.374130e+00	3.473205e+00	3.582161e+00	3.692283e+00	3.801292e+00	3.805608e+00	3.743621e+00	3.690038e+00	3.516116e+00	3.188224e+00	2.965968e+00	2.827101e+00	2.746616e+00	2.698749e+00	2.666244e+00	2.640764e+00	2.619503e+00	2.601014e+00	2.584131e+00	2.568635e+00	2.554026e+00	2.540253e+00	2.527446e+00	2.515310e+00	2.503611e+00	2.492468e+00	2.482033e+00	2.472613e+00	2.464223e+00	2.456510e+00	2.449207e+00	2.442547e+00	2.437013e+00	2.432791e+00	2.429595e+00	2.427280e+00	2.426091e+00	2.426326e+00	2.427981e+00	2.430779e+00	2.434696e+00	2.440381e+00	2.449234e+00	2.462639e+00	2.480575e+00	2.500308e+00	2.517234e+00	2.527735e+00	2.530847e+00	2.527972e+00	2.521765e+00	2.515107e+00	2.510429e+00	2.509533e+00	2.513678e+00	2.523005e+00	2.536487e+00	2.551803e+00	2.566986e+00	2.581589e+00	2.596608e+00	2.613002e+00	2.631096e+00	2.650797e+00	2.672138e+00	2.695301e+00	2.720159e+00	2.746300e+00	2.773249e+00	2.800463e+00	2.827469e+00	2.853689e+00	2.878698e+00	2.902001e+00	2.923352e+00	2.942480e+00	2.959600e+00	2.974877e+00	2.988748e+00	3.001844e+00	3.014853e+00	3.028573e+00	3.043894e+00	3.061809e+00	3.083605e+00	3.110547e+00	3.143900e+00	3.183771e+00	3.228675e+00	3.274746e+00	3.316983e+00	3.349608e+00	3.366982e+00	3.364113e+00	3.337647e+00	3.286866e+00	3.217259e+00	3.144149e+00	3.086895e+00	3.064671e+00	3.086385e+00	3.141259e+00	3.208813e+00	3.275607e+00	3.340408e+00	3.410947e+00	3.367084e+00	
SCALARS Pressure float 1
LOOKUP_TABLE default
1.287034e+00	1.265997e+00	1.256355e+00	1.253212e+00	1.252026e+00	1.248125e+00	1.235885e+00	1.210789e+00	1.168822e+00	1.109052e+00	1.032161e+00	9.290701e-01	8.312032e-01	7.957515e-01	8.180448e-01	8.685956e-01	9.212937e-01	9.592150e-01	9.789228e-01	9.821775e-01	9.718256e-01	9.514257e-01	9.249516e-01	8.950982e-01	8.606960e-01	8.209357e-01	7.855317e-01	7.662893e-01	7.647702e-01	7.752811e-01	7.914091e-01	8.087898e-01	8.251738e-01	8.395994e-01	8.519743e-01	8.624707e-01	8.713984e-01	8.791186e-01	8.859336e-01	8.921560e-01	8.979848e-01	9.035891e-01	9.090204e-01	9.142896e-01	9.193207e-01	9.240206e-01	9.282545e-01	9.318976e-01	9.348130e-01	9.368874e-01	9.380117e-01	9.381129e-01	9.371361e-01	9.350552e-01	9.318543e-01	9.275433e-01	9.221394e-01	9.156869e-01	9.082761e-01	9.000210e-01	8.909901e-01	8.810330e-01	8.699957e-01	8.583279e-01	8.473902e-01	8.378021e-01	8.274837e-01	8.115001e-01	7.866258e-01	7.583399e-01	7.376878e-01	7.292853e-01	7.305245e-01	7.369479e-01	7.456084e-01	7.554172e-01	7.664723e-01	7.791424e-01	7.934848e-01	8.094383e-01	8.270187e-01	8.462207e-01	8.671205e-01	8.897456e-01	9.141918e-01	9.406246e-01	9.691119e-01	9.998210e-01	1.033072e+00	1.069037e+00	1.108226e+00	1.151407e+00	1.199303e+00	1.253308e+00	1.314684e+00	1.383020e+00	1.452318e+00	1.515640e+00	1.521474e+00	1.486399e+00	1.443176e+00	1.329369e+00	1.150222e+00	1.028369e+00	9.511498e-01	9.047559e-01	8.765855e-01	8.575660e-01	8.431192e-01	8.313703e-01	8.213342e-01	8.123645e-01	8.042202e-01	7.966186e-01	7.895214e-01	7.829626e-01	7.768014e-01	7.709140e-01	7.653120e-01	7.600880e-01	7.553849e-01	7.511987e-01	7.473731e-01	7.437882e-01	7.405149e-01	7.377844e-01	7.356894e-01	7.341119e-01	7.329675e-01	7.323664e-01	7.324485e-01	7.332121e-01	7.345261e-01	7.363668e-01	7.390511e-01	7.432594e-01	7.497118e-01	7.584513e-01	7.681967e-01	7.766534e-01	7.819430e-01	7.835293e-01	7.820937e-01	7.789644e-01	7.755875e-01	7.731817e-01	7.726542e-01	7.746145e-01	7.791830e-01	7.858410e-01	7.934588e-01	8.010335e-01	8.083284e-01	8.158388e-01	8.240781e-01	8.332214e-01	8.432295e-01	8.541481e-01	8.660761e-01	8.789646e-01	8.926147e-01	9.067832e-01	9.211968e-01	9.355979e-01	9.496758e-01	9.631819e-01	9.758391e-01	9.874797e-01	9.979790e-01	1.007391e+00	1.015820e+00	1.023507e+00	1.030780e+00	1.038027e+00	1.045702e+00	1.054310e+00	1.064448e+00	1.076864e+00	1.092366e+00	1.111707e+00	1.135043e+00	1.161525e+00	1.188894e+00	1.213989e+00	1.233175e+00	1.242947e+00	1.240357e+00	1.223642e+00	1.192951e+00	1.151975e+00	1.109822e+00	1.078023e+00	1.067015e+00	1.080482e+00	1.112306e+00	1.151571e+00	1.191207e+00	1.230376e+00	1.272289e+00	1.272888e+00	
SCALARS Temperature float 1
LOOKUP_TABLE default
1.077546e+00	1.072995e+00	1.070444e+00	1.069464e+00	1.069116e+00	1.068105e+00	1.065305e+00	1.059483e+00	1.049460e+00	1.034431e+00	1.013758e+00	9.838473e-01	9.520145e-01	9.376809e-01	9.437832e-01	9.605808e-01	9.771419e-01	9.885101e-01	9.944818e-01	9.956094e-01	9.927211e-01	9.867528e-01	9.787840e-01	9.695374e-01	9.585682e-01	9.454783e-01	9.334855e-01	9.268241e-01	9.263987e-01	9.302300e-01	9.358898e-01	9.418097e-01	9.472282e-01	9.519421e-01	9.559263e-01	9.592836e-01	9.621151e-01	9.645382e-01	9.666768e-01	9.686115e-01	9.704237e-01	9.721519e-01	9.738257e-01	9.754372e-01	9.769740e-01	9.783993e-01	9.796820e-01	9.807779e-01	9.816547e-01	9.822744e-01	9.826119e-01	9.826390e-01	9.823448e-01	9.817169e-01	9.807517e-01	9.794450e-01	9.778025e-01	9.758307e-01	9.735544e-01	9.710058e-01	9.681909e-01	9.650634e-01	9.615588e-01	9.578409e-01	9.543438e-01	9.512881e-01	9.479290e-01	9.425626e-01	9.339606e-01	9.240004e-01	9.166628e-01	9.137300e-01	9.142723e-01	9.166801e-01	9.198058e-01	9.233074e-01	9.271850e-01	9.315649e-01	9.364879e-01	9.419025e-01	9.477648e-01	9.540741e-01	9.608161e-01	9.679882e-01	9.755980e-01	9.836791e-01	9.922316e-01	1.001253e+00	1.010807e+00	1.020935e+00	1.031706e+00	1.043256e+00	1.055741e+00	1.069292e+00	1.084068e+00	1.099696e+00	1.114523e+00	1.125418e+00	1.127598e+00	1.122047e+00	1.109964e+00	1.083147e+00	1.046711e+00	1.016443e+00	9.938875e-01	9.782602e-01	9.679585e-01	9.608025e-01	9.554422e-01	9.511401e-01	9.474902e-01	9.442759e-01	9.413614e-01	9.386443e-01	9.361127e-01	9.337669e-01	9.315679e-01	9.294728e-01	9.274613e-01	9.255796e-01	9.238769e-01	9.223505e-01	9.209582e-01	9.196659e-01	9.184759e-01	9.174713e-01	9.166902e-01	9.161047e-01	9.156777e-01	9.154455e-01	9.154560e-01	9.157094e-01	9.161587e-01	9.167869e-01	9.177069e-01	9.191565e-01	9.214048e-01	9.244690e-01	9.279025e-01	9.308882e-01	9.327567e-01	9.333241e-01	9.328273e-01	9.317228e-01	9.305126e-01	9.296275e-01	9.293960e-01	9.300241e-01	9.315728e-01	9.338372e-01	9.364256e-01	9.389773e-01	9.414079e-01	9.438817e-01	9.465809e-01	9.495588e-01	9.527933e-01	9.563012e-01	9.601017e-01	9.641702e-01	9.684366e-01	9.728166e-01	9.772255e-01	9.815815e-01	9.857946e-01	9.897911e-01	9.934990e-01	9.968690e-01	9.998932e-01	1.002573e+00	1.004956e+00	1.007120e+00	1.009154e+00	1.011170e+00	1.013297e+00	1.015673e+00	1.018468e+00	1.021875e+00	1.026117e+00	1.031355e+00	1.037593e+00	1.044536e+00	1.051557e+00	1.057797e+00	1.062367e+00	1.064480e+00	1.063521e+00	1.059122e+00	1.051336e+00	1.040919e+00	1.030001e+00	1.021882e+00	1.019582e+00	1.023733e+00	1.032405e+00	1.042665e+00	1.052855e+00	1.062738e+00	1.072553e+00	1.083064e+00	
SCALARS Pressure_Coefficient float 1
LOOKUP_TABLE default
6.407004e-01	5.937429e-01	5.722199e-01	5.652062e-01	5.625578e-01	5.538514e-01	5.265287e-01	4.705122e-01	3.768358e-01	2.434202e-01	7.178716e-02	-1.583256e-01	-3.767786e-01	-4.559119e-01	-4.061500e-01	-2.933134e-01	-1.756837e-01	-9.103797e-02	-4.704738e-02	-3.978234e-02	-6.288923e-02	-1.084248e-01	-1.675189e-01	-2.341559e-01	-3.109465e-01	-3.996972e-01	-4.787239e-01	-5.216757e-01	-5.250665e-01	-5.016048e-01	-4.656047e-01	-4.268085e-01	-3.902371e-01	-3.580370e-01	-3.304145e-01	-3.069850e-01	-2.870572e-01	-2.698246e-01	-2.546125e-01	-2.407231e-01	-2.277124e-01	-2.152028e-01	-2.030795e-01	-1.913179e-01	-1.800878e-01	-1.695968e-01	-1.601461e-01	-1.520142e-01	-1.455067e-01	-1.408762e-01	-1.383668e-01	-1.381409e-01	-1.403213e-01	-1.449661e-01	-1.521109e-01	-1.617338e-01	-1.737959e-01	-1.881988e-01	-2.047409e-01	-2.231675e-01	-2.433257e-01	-2.655513e-01	-2.901882e-01	-3.162324e-01	-3.406468e-01	-3.620488e-01	-3.850811e-01	-4.207587e-01	-4.762817e-01	-5.394200e-01	-5.855184e-01	-6.042739e-01	-6.015079e-01	-5.871698e-01	-5.678383e-01	-5.459438e-01	-5.212671e-01	-4.929858e-01	-4.609714e-01	-4.253610e-01	-3.861191e-01	-3.432574e-01	-2.966060e-01	-2.461035e-01	-1.915363e-01	-1.325343e-01	-6.894671e-02	-3.994653e-04	7.382100e-02	1.540994e-01	2.415764e-01	3.379625e-01	4.448734e-01	5.654194e-01	7.024205e-01	8.549554e-01	1.009639e+00	1.150981e+00	1.164004e+00	1.085712e+00	9.892319e-01	7.351980e-01	3.353179e-01	6.332313e-02	-1.090405e-01	-2.125984e-01	-2.754787e-01	-3.179331e-01	-3.501805e-01	-3.764056e-01	-3.988076e-01	-4.188293e-01	-4.370085e-01	-4.539764e-01	-4.698182e-01	-4.844585e-01	-4.982112e-01	-5.113527e-01	-5.238570e-01	-5.355178e-01	-5.460159e-01	-5.553600e-01	-5.638993e-01	-5.719013e-01	-5.792078e-01	-5.853026e-01	-5.899790e-01	-5.935002e-01	-5.960547e-01	-5.973964e-01	-5.972132e-01	-5.955088e-01	-5.925757e-01	-5.884670e-01	-5.824752e-01	-5.730816e-01	-5.586789e-01	-5.391712e-01	-5.174180e-01	-4.985416e-01	-4.867344e-01	-4.831935e-01	-4.863980e-01	-4.933830e-01	-5.009208e-01	-5.062909e-01	-5.074684e-01	-5.030927e-01	-4.928950e-01	-4.780335e-01	-4.610296e-01	-4.441216e-01	-4.278383e-01	-4.110741e-01	-3.926828e-01	-3.722737e-01	-3.499341e-01	-3.255622e-01	-2.989372e-01	-2.701683e-01	-2.396993e-01	-2.080732e-01	-1.759000e-01	-1.437547e-01	-1.123309e-01	-8.218322e-02	-5.393050e-02	-2.794708e-02	-4.511100e-03	1.649825e-02	3.531292e-02	5.247029e-02	6.870591e-02	8.488159e-02	1.020140e-01	1.212286e-01	1.438582e-01	1.715715e-01	2.061751e-01	2.493467e-01	3.014361e-01	3.605462e-01	4.216380e-01	4.776539e-01	5.204807e-01	5.422932e-01	5.365102e-01	4.992013e-01	4.306946e-01	3.392300e-01	2.451374e-01	1.741588e-01	1.495864e-01	1.796472e-01	2.506834e-01	3.383271e-01	4.268018e-01	5.142333e-01	6.077875e-01	6.091259e-01	
SCALARS Mach float 1
LOOKUP_TABLE default
4.838800e-01	5.062968e-01	5.185204e-01	5.231549e-01	5.247927e-01	5.295299e-01	5.424773e-01	5.686589e-01	6.117340e-01	6.725291e-01	7.506535e-01	8.559335e-01	9.614082e-01	1.007405e+00	9.879146e-01	9.335276e-01	8.786130e-01	8.399888e-01	8.193413e-01	8.154122e-01	8.254570e-01	8.460155e-01	8.730851e-01	9.040094e-01	9.401071e-01	9.824770e-01	1.020734e+00	1.041789e+00	1.043129e+00	1.031040e+00	1.013103e+00	9.942322e-01	9.768525e-01	9.616424e-01	9.487162e-01	9.377705e-01	9.284991e-01	9.205346e-01	9.134809e-01	9.070798e-01	9.010660e-01	8.953146e-01	8.897283e-01	8.843348e-01	8.791774e-01	8.743815e-01	8.700550e-01	8.663502e-01	8.633810e-01	8.612791e-01	8.601335e-01	8.600415e-01	8.610401e-01	8.631701e-01	8.664390e-01	8.708552e-01	8.763912e-01	8.830157e-01	8.906349e-01	8.991305e-01	9.084730e-01	9.188044e-01	9.303235e-01	9.424803e-01	9.538586e-01	9.637581e-01	9.745967e-01	9.918235e-01	1.019228e+00	1.050676e+00	1.073676e+00	1.082834e+00	1.081142e+00	1.073622e+00	1.063840e+00	1.052854e+00	1.040651e+00	1.026818e+00	1.011201e+00	9.939352e-01	9.751254e-01	9.547337e-01	9.327572e-01	9.091442e-01	8.837960e-01	8.565058e-01	8.271528e-01	7.955909e-01	7.613957e-01	7.241337e-01	6.831542e-01	6.373206e-01	5.850159e-01	5.239676e-01	4.501665e-01	3.587684e-01	2.459302e-01	1.072026e-01	4.249977e-02	1.629375e-01	2.850743e-01	4.550541e-01	6.231634e-01	7.407995e-01	8.214084e-01	8.748502e-01	9.092425e-01	9.328016e-01	9.502906e-01	9.642365e-01	9.760095e-01	9.863352e-01	9.956653e-01	1.004337e+00	1.012394e+00	1.019842e+00	1.026809e+00	1.033432e+00	1.039780e+00	1.045709e+00	1.051064e+00	1.055859e+00	1.060228e+00	1.064279e+00	1.068005e+00	1.071148e+00	1.073590e+00	1.075420e+00	1.076754e+00	1.077480e+00	1.077447e+00	1.076655e+00	1.075252e+00	1.073288e+00	1.070411e+00	1.065874e+00	1.058827e+00	1.049203e+00	1.038389e+00	1.028959e+00	1.023044e+00	1.021246e+00	1.022820e+00	1.026318e+00	1.030147e+00	1.032944e+00	1.033675e+00	1.031690e+00	1.026793e+00	1.019619e+00	1.011400e+00	1.003275e+00	9.955166e-01	9.875988e-01	9.789343e-01	9.693436e-01	9.588866e-01	9.474965e-01	9.350956e-01	9.217460e-01	9.076591e-01	8.930981e-01	8.783319e-01	8.636290e-01	8.492926e-01	8.355819e-01	8.227581e-01	8.110114e-01	8.003920e-01	7.909178e-01	7.824383e-01	7.746946e-01	7.673758e-01	7.600819e-01	7.523391e-01	7.436344e-01	7.333172e-01	7.206195e-01	7.046084e-01	6.845147e-01	6.600623e-01	6.321016e-01	6.029072e-01	5.760711e-01	5.558087e-01	5.462462e-01	5.506033e-01	5.702548e-01	6.038436e-01	6.467721e-01	6.897431e-01	7.205922e-01	7.291796e-01	7.136321e-01	6.804367e-01	6.397170e-01	5.974010e-01	5.541374e-01	5.084336e-01	4.554920e-01	