# vtk DataFile Version 3.0
vtk output
ASCII
DATASET UNSTRUCTURED_GRID
POINTS 5233 float
9.997500e-01	-3.632545e-05	0.0	9.990000e-01	-1.450316e-04	0.0	9.977600e-01	-3.226727e-04	0.0	9.960200e-01	-5.638106e-04	0.0	9.937800e-01	-8.526725e-04	0.0	9.910500e-01	-1.160899e-03	0.0	9.878400e-01	-1.451113e-03	0.0	9.841300e-01	-1.686459e-03	0.0	9.799500e-01	-1.837566e-03	0.0	9.752800e-01	-1.902869e-03	0.0	9.701500e-01	-1.913092e-03	0.0	9.645400e-01	-1.931254e-03	0.0	9.584700e-01	-2.039795e-03	0.0	9.519400e-01	-2.323733e-03	0.0	9.449600e-01	-2.855442e-03	0.0	9.375400e-01	-3.686673e-03	0.0	9.296900e-01	-4.847795e-03	0.0	9.214000e-01	-6.354469e-03	0.0	9.127000e-01	-8.199287e-03	0.0	9.035800e-01	-1.036660e-02	0.0	8.940600e-01	-1.281828e-02	0.0	8.841500e-01	-1.550322e-02	0.0	8.738500e-01	-1.836234e-02	0.0	8.631800e-01	-2.132686e-02	0.0	8.521600e-01	-2.433194e-02	0.0	8.407700e-01	-2.733442e-02	0.0	8.290500e-01	-3.029058e-02	0.0	8.170100e-01	-3.318184e-02	0.0	8.046400e-01	-3.600920e-02	0.0	7.919700e-01	-3.877543e-02	0.0	7.790100e-01	-4.149438e-02	0.0	7.657800e-01	-4.417917e-02	0.0	7.522800e-01	-4.684423e-02	0.0	7.385200e-01	-4.949643e-02	0.0	7.245300e-01	-5.213213e-02	0.0	7.103200e-01	-5.474485e-02	0.0	6.958900e-01	-5.732400e-02	0.0	6.812700e-01	-5.984927e-02	0.0	6.664700e-01	-6.230152e-02	0.0	6.515000e-01	-6.466082e-02	0.0	6.363800e-01	-6.690653e-02	0.0	6.211300e-01	-6.902044e-02	0.0	6.057600e-01	-7.098889e-02	0.0	5.902800e-01	-7.280171e-02	0.0	5.747100e-01	-7.445143e-02	0.0	5.590600e-01	-7.593558e-02	0.0	5.433600e-01	-7.725351e-02	0.0	5.276100e-01	-7.841048e-02	0.0	5.118400e-01	-7.941210e-02	0.0	4.960500e-01	-8.026814e-02	0.0	4.802700e-01	-8.098814e-02	0.0	4.645100e-01	-8.158373e-02	0.0	4.487800e-01	-8.206677e-02	0.0	4.331100e-01	-8.244838e-02	0.0	4.175000e-01	-8.273989e-02	0.0	4.019700e-01	-8.295107e-02	0.0	3.865400e-01	-8.309039e-02	0.0	3.712300e-01	-8.316479e-02	0.0	3.560400e-01	-8.317944e-02	0.0	3.409900e-01	-8.313740e-02	0.0	3.261100e-01	-8.303995e-02	0.0	3.114000e-01	-8.288620e-02	0.0	2.968700e-01	-8.267337e-02	0.0	2.825500e-01	-8.239724e-02	0.0	2.684500e-01	-8.205183e-02	0.0	2.545700e-01	-8.162944e-02	0.0	2.409400e-01	-8.112217e-02	0.0	2.275700e-01	-8.052089e-02	0.0	2.144700e-01	-7.981591e-02	0.0	2.016600e-01	-7.899803e-02	0.0	1.891400e-01	-7.805691e-02	0.0	1.769300e-01	-7.698399e-02	0.0	1.650400e-01	-7.577076e-02	0.0	1.534900e-01	-7.441086e-02	0.0	1.422900e-01	-7.289831e-02	0.0	1.314400e-01	-7.122686e-02	0.0	1.209500e-01	-6.939280e-02	0.0	1.108500e-01	-6.739812e-02	0.0	1.011300e-01	-6.523912e-02	0.0	9.181000e-02	-6.291969e-02	0.0	8.290000e-02	-6.044376e-02	0.0	7.440000e-02	-5.781392e-02	0.0	6.633000e-02	-5.504053e-02	0.0	5.869000e-02	-5.212934e-02	0.0	5.149000e-02	-4.909091e-02	0.0	4.474000e-02	-4.593775e-02	0.0	3.844000e-02	-4.267902e-02	0.0	3.260000e-02	-3.932988e-02	0.0	2.723000e-02	-3.590769e-02	0.0	2.232000e-02	-3.241743e-02	0.0	1.790000e-02	-2.889385e-02	0.0	1.395000e-02	-2.533527e-02	0.0	1.049000e-02	-2.177376e-02	0.0	7.520000e-03	-1.822686e-02	0.0	5.040000e-03	-1.471238e-02	0.0	3.050000e-03	-1.124773e-02	0.0	1.560000e-03	-7.873831e-03	0.0	5.600000e-04	-4.590388e-03	0.0	6.000000e-05	-1.445068e-03	0.0	0.000000e+00	0.000000e+00	0.0	6.000000e-05	1.633765e-03	0.0	5.600000e-04	5.269891e-03	0.0	1.560000e-03	8.939909e-03	0.0	3.050000e-03	1.252730e-02	0.0	5.040000e-03	1.601394e-02	0.0	7.520000e-03	1.935558e-02	0.0	1.049000e-02	2.254153e-02	0.0	1.395000e-02	2.556552e-02	0.0	1.790000e-02	2.842470e-02	0.0	2.232000e-02	3.110773e-02	0.0	2.723000e-02	3.363099e-02	0.0	3.260000e-02	3.598494e-02	0.0	3.844000e-02	3.818243e-02	0.0	4.474000e-02	4.022800e-02	0.0	5.149000e-02	4.212813e-02	0.0	5.869000e-02	4.389295e-02	0.0	6.633000e-02	4.553034e-02	0.0	7.440000e-02	4.704899e-02	0.0	8.290000e-02	4.845961e-02	0.0	9.181000e-02	4.976962e-02	0.0	1.011300e-01	5.098960e-02	0.0	1.108500e-01	5.212825e-02	0.0	1.209500e-01	5.319293e-02	0.0	1.314400e-01	5.419357e-02	0.0	1.422900e-01	5.513544e-02	0.0	1.534900e-01	5.602515e-02	0.0	1.650400e-01	5.686908e-02	0.0	1.769300e-01	5.767181e-02	0.0	1.891400e-01	5.843634e-02	0.0	2.016600e-01	5.916544e-02	0.0	2.144700e-01	5.986041e-02	0.0	2.275700e-01	6.052276e-02	0.0	2.409400e-01	6.115215e-02	0.0	2.545700e-01	6.174808e-02	0.0	2.684500e-01	6.230952e-02	0.0	2.825500e-01	6.283426e-02	0.0	2.968700e-01	6.332110e-02	0.0	3.114000e-01	6.376826e-02	0.0	3.261100e-01	6.417348e-02	0.0	3.409900e-01	6.453534e-02	0.0	3.560400e-01	6.485283e-02	0.0	3.712300e-01	6.512460e-02	0.0	3.865400e-01	6.534993e-02	0.0	4.019700e-01	6.552866e-02	0.0	4.175000e-01	6.566043e-02	0.0	4.331100e-01	6.574498e-02	0.0	4.487800e-01	6.578187e-02	0.0	4.645100e-01	6.577023e-02	0.0	4.802700e-01	6.570847e-02	0.0	4.960500e-01	6.559401e-02	0.0	5.118400e-01	6.542303e-02	0.0	5.276100e-01	6.519056e-02	0.0	5.433600e-01	6.488975e-02	0.0	5.590600e-01	6.451280e-02	0.0	5.747100e-01	6.404989e-02	0.0	5.902800e-01	6.349092e-02	0.0	6.057600e-01	6.282461e-02	0.0	6.211300e-01	6.204002e-02	0.0	6.363800e-01	6.112631e-02	0.0	6.515000e-01	6.007384e-02	0.0	6.664700e-01	5.887577e-02	0.0	6.812700e-01	5.752839e-02	0.0	6.958900e-01	5.603078e-02	0.0	7.103200e-01	5.438592e-02	0.0	7.245300e-01	5.260357e-02	0.0	7.385200e-01	5.069428e-02	0.0	7.522800e-01	4.867353e-02	0.0	7.657800e-01	4.656315e-02	0.0	7.790100e-01	4.438450e-02	0.0	7.919700e-01	4.215818e-02	0.0	8.046400e-01	3.990782e-02	0.0	8.170100e-01	3.765395e-02	0.0	8.290500e-01	3.541827e-02	0.0	8.407700e-01	3.321202e-02	0.0	8.521600e-01	3.104699e-02	0.0	8.631800e-01	2.893827e-02	0.0	8.738500e-01	2.688819e-02	0.0	8.841500e-01	2.490639e-02	0.0	8.940600e-01	2.300257e-02	0.0	9.035800e-01	2.118135e-02	0.0	9.127000e-01	1.944515e-02	0.0	9.214000e-01	1.778997e-02	0.0	9.296900e-01	1.619459e-02	0.0	9.375400e-01	1.463444e-02	0.0	9.449600e-01	1.307263e-02	0.0	9.519400e-01	1.148389e-02	0.0	9.584700e-01	9.864948e-03	0.0	9.645400e-01	8.243621e-03	0.0	9.701500e-01	6.673416e-03	0.0	9.752800e-01	5.226791e-03	0.0	9.799500e-01	3.957214e-03	0.0	9.841300e-01	2.906354e-03	0.0	9.878400e-01	2.070807e-03	0.0	9.910500e-01	1.432723e-03	0.0	9.937800e-01	9.508115e-04	0.0	9.960200e-01	5.909314e-04	0.0	9.977600e-01	3.276904e-04	0.0	9.990000e-01	1.454888e-04	0.0	9.997500e-01	3.633269e-05	0.0	1.000000e+00	0.000000e+00	0.0	1.984229e+01	2.506660e+00	0.0	1.937166e+01	4.973800e+00	0.0	1.859553e+01	7.362490e+00	0.0	1.752613e+01	9.635070e+00	0.0	1.618034e+01	1.175571e+01	0.0	1.457937e+01	1.369094e+01	0.0	1.274848e+01	1.541027e+01	0.0	1.071654e+01	1.688656e+01	0.0	8.515590e+00	1.809654e+01	0.0	6.180340e+00	1.902113e+01	0.0	3.747630e+00	1.964575e+01	0.0	1.255810e+00	1.996053e+01	0.0	-1.255810e+00	1.996053e+01	0.0	-3.747630e+00	1.964574e+01	0.0	-6.180340e+00	1.902113e+01	0.0	-8.515590e+00	1.809654e+01	0.0	-1.071654e+01	1.688656e+01	0.0	-1.274848e+01	1.541026e+01	0.0	-1.457937e+01	1.369094e+01	0.0	-1.618034e+01	1.175570e+01	0.0	-1.752613e+01	9.635070e+00	0.0	-1.859553e+01	7.362490e+00	0.0	-1.937166e+01	4.973800e+00	0.0	-1.984229e+01	2.506660e+00	0.0	-2.000000e+01	0.000000e+00	0.0	-1.984229e+01	-2.506670e+00	0.0	-1.937166e+01	-4.973800e+00	0.0	-1.859553e+01	-7.362490e+00	0.0	-1.752613e+01	-9.635080e+00	0.0	-1.618034e+01	-1.175571e+01	0.0	-1.457937e+01	-1.369094e+01	0.0	-1.274848e+01	-1.541027e+01	0.0	-1.071653e+01	-1.688656e+01	0.0	-8.515580e+00	-1.809654e+01	0.0	-6.180340e+00	-1.902113e+01	0.0	-3.747620e+00	-1.964575e+01	0.0	-1.255810e+00	-1.996053e+01	0.0	1.255810e+00	-1.996053e+01	0.0	3.747630e+00	-1.964574e+01	0.0	6.180340e+00	-1.902113e+01	0.0	8.515590e+00	-1.809654e+01	0.0	1.071654e+01	-1.688656e+01	0.0	1.274848e+01	-1.541026e+01	0.0	1.457937e+01	-1.369094e+01	0.0	1.618034e+01	-1.175570e+01	0.0	1.752614e+01	-9.635070e+00	0.0	1.859553e+01	-7.362490e+00	0.0	1.937166e+01	-4.973790e+00	0.0	1.984229e+01	-2.506660e+00	0.0	2.000000e+01	0.000000e+00	0.0	5.990359e-02	-6.039510e-02	0.0	6.609538e-01	-7.687818e-02	0.0	4.255437e-01	8.008277e-02	0.0	6.900488e-01	6.982122e-02	0.0	3.791521e-01	-9.723837e-02	0.0	9.994565e-01	-7.280473e-04	0.0	9.985339e-01	-1.317354e-03	0.0	7.745940e-01	-5.465121e-02	0.0	6.906695e-01	-7.169958e-02	0.0	-1.993115e-03	8.094099e-03	0.0	7.475913e-01	-6.050296e-02	0.0	5.833750e-01	7.785169e-02	0.0	9.927216e-01	-3.457099e-03	0.0	9.897916e-01	-4.193746e-03	0.0	5.989735e-01	7.711972e-02	0.0	7.195872e-01	-6.619821e-02	0.0	-1.904539e-03	1.025754e-03	0.0	9.863613e-01	-4.914386e-03	0.0	9.824421e-01	-5.588583e-03	0.0	-2.002100e-03	-7.288231e-03	0.0	6.458375e-01	-7.930261e-02	0.0	8.251182e-01	-4.243140e-02	0.0	8.004669e-01	-4.864845e-02	0.0	3.484809e-01	7.863623e-02	0.0	8.484149e-01	-3.604427e-02	0.0	2.473549e-01	7.419891e-02	0.0	8.702857e-01	-2.963416e-02	0.0	9.465068e-03	2.707660e-02	0.0	8.906237e-01	-2.355255e-02	0.0	7.623148e-02	-6.672053e-02	0.0	9.093790e-01	-1.821142e-02	0.0	-2.398512e-03	-3.514654e-03	0.0	9.419743e-01	-1.081124e-02	0.0	9.265085e-01	-1.392519e-02	0.0	1.710443e-02	-3.468928e-02	0.0	4.258418e-01	-9.686317e-02	0.0	8.595383e-01	-3.282081e-02	0.0	9.557567e-01	-8.752170e-03	0.0	9.780312e-01	-6.223956e-03	0.0	9.678047e-01	-7.381807e-03	0.0	1.578076e-01	-8.560942e-02	0.0	9.002040e-01	-2.076577e-02	0.0	7.612282e-01	-5.759509e-02	0.0	9.970996e-01	-2.036951e-03	0.0	5.996479e-01	-8.572362e-02	0.0	4.415728e-01	-9.654361e-02	0.0	5.366980e-01	-9.195563e-02	0.0	4.732111e-01	-9.556322e-02	0.0	5.049547e-01	-9.406116e-02	0.0	4.890685e-01	-9.488179e-02	0.0	1.243534e-01	-7.977268e-02	0.0	2.697289e-02	-4.246738e-02	0.0	3.946196e-01	-9.720397e-02	0.0	4.534985e-02	-5.354881e-02	0.0	4.101840e-01	-9.708175e-02	0.0	3.186645e-01	-9.659029e-02	0.0	3.486014e-01	-9.707061e-02	0.0	3.263343e-02	-4.623917e-02	0.0	2.894179e-01	-9.580384e-02	0.0	9.344512e-01	-1.222179e-02	0.0	1.463017e-01	-8.382518e-02	0.0	1.943244e-01	-9.001789e-02	0.0	8.503702e-02	-6.965881e-02	0.0	1.039033e-01	-7.505786e-02	0.0	5.683116e-01	-8.919148e-02	0.0	1.696570e-01	-8.723472e-02	0.0	6.151752e-01	-8.373490e-02	0.0	8.806537e-01	-2.652652e-02	0.0	2.180845e-02	-3.861387e-02	0.0	9.951621e-01	-2.742678e-03	0.0	5.956966e-03	-2.282299e-02	0.0	1.753491e-02	3.367531e-02	0.0	9.181483e-01	-1.592366e-02	0.0	9.49081
[...]
POINT_DATA 5233

SCALARS Conservative_1 float 1
LOOKUP_TABLE default
1.176575e+00	1.160507e+00	1.145159e+00	1.130028e+00	1.117633e+00	1.107292e+00	1.101305e+00	1.101498e+00	1.108221e+00	1.119886e+00	1.133255e+00	1.146274e+00	1.156094e+00	1.163067e+00	1.165793e+00	1.166111e+00	1.162809e+00	1.157599e+00	1.149307e+00	1.139343e+00	1.126833e+00	1.112996e+00	1.097658e+00	1.082363e+00	1.067645e+00	1.055682e+00	1.043096e+00	1.034241e+00	1.025518e+00	1.014420e+00	1.008324e+00	1.002060e+00	1.011649e+00	1.046698e+00	1.048096e+00	1.088823e+00	9.669857e-01	8.171149e-01	7.374264e-01	6.644102e-01	6.616730e-01	6.520676e-01	6.624044e-01	6.709697e-01	6.807895e-01	6.890753e-01	6.991607e-01	7.088772e-01	7.186102e-01	7.249754e-01	7.317929e-01	7.367432e-01	7.427556e-01	7.467822e-01	7.503280e-01	7.498809e-01	7.502433e-01	7.484743e-01	7.478359e-01	7.451164e-01	7.421993e-01	7.389570e-01	7.361971e-01	7.344667e-01	7.328130e-01	7.325494e-01	7.326176e-01	7.332930e-01	7.341022e-01	7.369419e-01	7.420891e-01	7.505069e-01	7.594218e-01	7.684675e-01	7.776779e-01	7.897700e-01	8.064339e-01	8.234677e-01	8.406315e-01	8.588872e-01	8.790939e-01	9.008683e-01	9.254870e-01	9.511900e-01	9.777006e-01	1.005712e+00	1.036073e+00	1.067738e+00	1.100307e+00	1.134694e+00	1.168256e+00	1.206370e+00	1.241700e+00	1.276335e+00	1.304633e+00	1.337826e+00	1.346528e+00	1.366086e+00	1.356002e+00	1.331421e+00	1.338466e+00	1.315838e+00	1.270491e+00	1.206021e+00	1.137249e+00	1.074925e+00	1.004906e+00	9.388542e-01	8.814488e-01	8.331615e-01	7.926630e-01	7.606376e-01	7.354538e-01	7.111869e-01	6.917188e-01	6.751240e-01	6.641503e-01	6.563649e-01	6.516617e-01	6.473756e-01	6.461642e-01	6.448486e-01	6.476641e-01	6.509626e-01	6.533089e-01	6.550356e-01	6.567018e-01	6.577634e-01	6.611431e-01	6.637858e-01	6.691838e-01	6.712734e-01	6.759631e-01	6.789364e-01	6.829208e-01	6.880038e-01	6.936606e-01	6.990720e-01	7.017365e-01	7.056082e-01	7.070656e-01	7.109316e-01	7.129954e-01	7.168693e-01	7.177810e-01	7.202726e-01	7.200309e-01	7.205166e-01	7.194417e-01	7.192267e-01	7.176760e-01	7.163945e-01	7.134566e-01	7.108501e-01	7.059143e-01	7.010561e-01	6.928226e-01	6.841203e-01	6.738152e-01	6.641982e-01	6.526636e-01	6.427880e-01	6.294168e-01	6.226623e-01	6.111755e-01	6.436516e-01	6.763705e-01	8.836152e-01	1.055302e+00	1.057894e+00	1.042126e+00	9.838020e-01	9.840128e-01	1.006133e+00	1.014992e+00	1.020380e+00	1.023389e+00	1.027985e+00	1.032205e+00	1.035882e+00	1.038206e+00	1.040570e+00	1.041683e+00	1.043444e+00	1.045937e+00	1.052611e+00	1.061812e+00	1.075121e+00	1.089538e+00	1.104577e+00	1.117427e+00	1.126202e+00	1.133351e+00	1.136289e+00	1.139952e+00	1.141076e+00	1.145341e+00	1.150639e+00	1.159053e+00	1.154822e+00	9.985702e-01	9.992768e-01	9.995669e-01	9.993554e-01	9.997115e-01	9.996448e-01	9.992277e-01	9.993687e-01	9.990172e-01	9.990677e-01	9.991429e-01	9.992030e-01	9.994854e-01	9.997165e-01	9.999594e-01	1.000106e+00	1.000193e+00	1.000221e+00	1.000238e+00	1.000238e+00	1.000236e+00	1.000227e+00	1.000218e+00	1.000225e+00	1.000229e+00	1.000231e+00	1.000255e+00	1.000277e+00	1.000316e+00	1.000359e+00	1.000431e+00	1.000513e+00	1.000622e+00	1.000747e+00	1.000881e+00	1.001027e+00	1.001154e+00	1.001228e+00	1.001112e+00	1.001045e+00	1.000796e+00	1.000679e+00	1.000646e+00	1.000556e+00	1.000532e+00	1.000420e+00	1.000494e+00	1.000599e+00	9.993932e-01	9.981437e-01	9.597396e-01	6.799561e-01	7.243993e-01	6.482523e-01	7.531211e-01	1.166389e+00	1.153378e+00	9.999742e-01	8.777082e-01	1.300917e+00	1.033837e+00	7.114461e-01	1.119623e+00	1.112337e+00	7.051148e-01	1.135216e+00	1.315386e+00	1.109897e+00	1.111224e+00	1.326846e+00	6.671823e-01	1.045095e+00	1.024738e+00	7.115189e-01	1.067999e+00	6.831610e-01	1.092567e+00	1.019053e+00	1.119221e+00	9.111037e-01	1.140616e+00	1.317944e+00	1.158720e+00	1.154142e+00	1.160817e+00	7.546563e-01	1.079017e+00	1.152624e+00	1.117912e+00	1.136598e+00	7.783841e-01	1.130916e+00	9.998665e-01	1.140453e+00	6.773422e-01	7.507202e-01	7.137072e-01	7.413326e-01	7.302821e-01	7.369564e-01	8.153517e-01	1.099174e+00	7.550779e-01	1.011046e+00	7.548156e-01	7.443042e-01	7.501313e-01	1.069185e+00	7.400180e-01	1.157762e+00	7.884546e-01	7.500330e-01	8.887400e-01	8.517250e-01	6.947395e-01	7.676987e-01	6.675079e-01	1.106248e+00	1.130327e+00	1.128940e+00	1.246352e+00	9.115654e-01	1.148507e+00	1.157194e+00	1.126689e+00	1.250238e+00	1.055479e+00	7.389104e-01	7.042161e-01	1.060684e+00	1.015436e+00	8.336128e-01	7.419253e-01	6.865486e-01	7.803825e-01	9.851421e-01	1.282862e+00	1.191247e+00	7.523407e-01	7.587122e-01	1.190045e+00	7.405093e-01	8.702564e-01	7.414054e-01	7.387420e-01	7.467256e-01	1.062946e+00	1.326249e+00	1.326105e+00	7.204077e-01	1.311167e+00	8.252093e-01	7.161713e-01	7.623894e-01	6.602379e-01	7.218527e-01	1.143968e+00	7.224325e-01	7.242976e-01	1.098136e+00	1.074172e+00	1.033258e+00	7.242835e-01	7.245096e-01	7.168783e-01	1.044593e+00	1.039575e+00	6.773807e-01	1.108568e+00	1.063390e+00	1.050107e+00	6.643439e-01	6.993904e-01	6.960711e-01	6.868410e-01	6.657991e-01	7.057716e-01	7.251474e-01	7.203825e-01	6.648397e-01	6.619755e-01	6.885272e-01	6.690390e-01	6.748884e-01	6.694120e-01	7.151226e-01	6.500529e-01	6.279956e-01	1.063955e+00	9.703274e-01	1.014457e+00	9.969250e-01	1.036592e+00	1.025398e+00	1.055726e+00	1.042241e+00	1.084940e+00	1.021220e+00	1.028944e+00	1.002652e+00	1.009506e+00	7.847942e-01	1.045450e+00	6.402865e-01	6.514351e-01	6.795285e-01	6.600819e-01	7.186173e-01	6.976002e-01	6.729519e-01	6.799175e-01	6.656234e-01	6.680483e-01	7.385642e-01	6.640795e-01	9.648295e-01	7.938228e-01	7.454901e-01	1.140219e+00	1.145701e+00	1.036262e+00	7.476414e-01	7.234787e-01	1.193303e+00	8.659816e-01	1.083587e+00	6.690307e-01	6.858773e-01	6.909097e-01	6.599275e-01	1.118551e+00	1.125485e+00	7.014566e-01	1.131321e+00	1.135713e+00	7.098807e-01	7.147982e-01	1.046993e+00	1.172427e+00	1.149824e+00	1.155160e+00	6.585490e-01	1.038807e+00	1.139714e+00	7.232879e-01	1.304554e+00	1.224452e+00	9.339435e-01	8.003185e-01	7.385898e-01	7.098520e-01	1.280349e+00	1.320017e+00	7.453478e-01	1.008746e+00	1.138476e+00	1.241991e+00	7.206733e-01	8.524196e-01	1.020552e+00	1.115852e+00	7.499792e-01	1.076273e+00	1.056400e+00	8.992725e-01	1.340163e+00	7.551786e-01	1.186291e+00	1.143943e+00	8.009477e-01	1.122656e+00	6.987017e-01	7.550874e-01	9.211029e-01	7.581902e-01	1.121388e+00	1.027130e+00	1.084979e+00	9.372583e-01	6.750513e-01	1.014702e+00	6.754236e-01	6.635070e-01	6.733430e-01	1.028419e+00	1.122566e+00	7.162354e-01	7.286020e-01	1.063050e+00	1.033291e+00	1.126914e+00	1.071323e+00	1.108764e+00	6.870200e-01	7.137912e-01	6.826737e-01	6.801663e-01	7.184625e-01	7.610630e-01	1.034375e+00	6.738957e-01	7.644119e-01	1.090574e+00	1.131235e+00	1.036624e+00	7.882658e-01	1.184182e+00	1.140177e+00	1.135376e+00	1.141084e+00	1.237799e+00	1.270477e+00	1.365696e+00	1.327080e+00	1.159682e+00	1.188242e+00	9.669420e-01	1.142729e+00	1.124960e+00	7.289056e-01	7.191945e-01	1.115619e+00	1.098939e+00	7.162438e-01	1.118974e+00	1.342518e+00	7.574858e-01	7.261140e-01	1.067931e+00	6.998533e-01	1.087344e+00	1.110703e+00	9.447978e-01	1.130869e+00	1.144567e+00	1.150447e+00	1.100241e+00	1.148505e+00	1.138348e+00	1.118919e+00	8.271267e-01	1.009683e+00	1.008769e+00	1.133073e+00	7.508947e-01	7.467245e-01	7.423099e-01	1.127626e+00	7.600153e-01	7.600496e-01	7.528975e-01	1.043631e+00	1.148681e+00	1.150639e+00	8.138751e-01	8.809242e-01	7.100855e-01	6.822229e-01	1.131330e+00	1.124407e+00	1.064163e+00	1.054207e+00	8.634961e-01	8.441730e-01	7.011056e-01	6.919810e-01	1.017014e+00	9.930258e-01	1.214775e+00	7.546452e-01	7.569624e-01	7.775648e-01	7.675406e-01	7.516210e-01	7.480742e-01	7.456057e-01	7.473123e-01	7.465476e-01	1.341150e+00	1.291233e+00	7.900499e-01	1.116555e+00	7.270068e-01	7.294647e-01	7.293265e-01	7.299326e-01	1.100545e+00	1.080927e+00	1.045710e+00	7.296988e-01	7.290488e-01	7.245844e-01	1.042950e+00	1.056936e+00	7.249145e-01	7.417723e-01	6.907268e-01	6.948250e-01	6.735608e-01	6.747010e-01	6.741117e-01	1.076623e+00	6.667096e-01	6.385404e-01	1.037752e+00	1.005862e+00	1.039797e+00	1.024435e+00	1.020323e+00	1.003678e+00	1.010690e+00	9.105307e-01	6.858814e-01	6.428200e-01	6.540111e-01	6.850088e-01	6.934183e-01	7.233473e-01	7.258145e-01	7.021662e-01	7.092308e-01	6.800578e-01	6.779166e-01	6.767420e-01	6.748932e-01	9.843322e-01	8.204677e-01	8.572905e-01	1.037012e+00	1.046787e+00	7.361385e-01	7.277221e-01	1.193578e+00	8.938943e-01	6.880681e-01	6.976756e-01	7.086479e-01	7.045978e-01	7.214596e-01	7.177954e-01	1.052319e+00	1.048869e+00	6.765243e-01	6.690432e-01	1.071718e+00	1.320622e+00	7.451271e-01	1.337372e+00	7.644780e-01	7.513401e-01	1.031345e+00	7.337572e-01	1.136317e+00	1.121172e+00	1.116636e+00	1.079022e+00	1.180010e+00	1.126615e+00	1.145294e+00	1.155222e+00	1.137194e+00	1.175030e+00	1.155809e+00	1.318719e+00	9.108080e-01	1.140719e+00	1.121001e+00	7.299277e-01	1.152079e+00	1.262966e+00	1.071482e+00	1.301114e+00	1.050324e+00	1.184409e+00	1.094130e+00	1.233780e+00	7.550698e-01	1.083995e+00	9.102920e-01	1.124929e+00	1.210586e+00	1.103235e+00	7.338834e-01	1.064828e+00	6.915124e-01	1.130117e+00	7.348919e-01	7.020234e-01	7.196468e-01	6.818281e-01	7.489840e-01	1.150233e+00	1.322439e+00	1.249427e+00	9.995508e-01	1.285120e+00	1.137097e+00	9.317970e-01	1.336883e+00	8.115478e-01	7.596906e-01	1.129682e+00	1.089064e+00	1.019740e+00	1.075652e+00	6.810169e-01	1.110737e+00	1.071613e+00	1.037827e+00	1.033913e+00	7.150050e-01	7.070799e-01	6.885622e-01	6.984230e-01	7.246765e-01	8.228988e-01	7.714317e-01	1.044258e+00	6.817353e-01	1.095611e+00	1.134858e+00	1.127842e+00	1.210084e+00	1.278066e+00	1.337701e+00	1.100670e+00	1.163161e+00	1.156999e+00	1.132204e+00	1.119400e+00	7.260809e-01	7.621916e-01	7.333027e-01	1.064372e+00	1.073874e+00	1.103916e+00	1.114050e+00	9.761286e-01	9.533833e-01	1.122430e+00	1.129993e+00	1.143438e+00	1.140749e+00	1.119873e+00	1.015216e+00	1.019090e+00	1.130690e+00	7.565586e-01	7.529867e-01	7.646465e-01	7.650681e-01	1.075192e+00	1.143585e+00	1.144075e+00	8.404084e-01	8.255428e-01	7.253025e-01	7.174046e-01	1.127529e+00	1.122922e+00	1.059008e+00	1.022250e+00	8.924151e-01	8.732733e-01	8.557259e-01	7.083546e-01	6.993197e-01	1.050050e+00	1.023764e+00	9.998679e-01	7.575134e-01	7.592605e-01	7.619464e-01	7.979675e-01	7.873789e-01	7.779506e-01	7.651176e-01	7.601014e-01	7.511632e-01	7.528092e-01	7.557112e-01	8.165080e-01	7.353408e-01	7.348500e-01	1.087192e+00	7.342777e-01	7.343513e-01	7.336106e-01	7.307374e-01	1.047457e+00	7.682820e-01	7.913212e-01	6.968554e-01	6.930751e-01	6.842720e-01	6.883579e-01	6.924114e-01	6.527506e-01	1.044379e+00	1.041807e+00	1.029451e+00	1.027018e+00	1.023728e+00	1.007279e+00	1.008533e+00	1.017377e+00	1.021346e+00	8.527829e-01	6.926367e-01	6.590024e-01	6.601235e-01	6.723377e-01	7.005704e-01	7.315285e-01	7.333364e-01	7.073777e-01	7.150232e-01	7.209593e-01	6.863751e-01	6.839933e-01	6.815836e-01	6.817606e-01	6.814389e-01	8.462774e-01	8.804881e-01	1.039780e+00	1.045816e+00	1.054180e+00	7.477000e-01	7.410878e-01	9.187303e-01	9.579082e-01	7.054495e-01	7.183050e-01	7.333467e-01	7.114499e-01	7.274378e-01	7.253567e-01	7.218778e-01	1.058744e+00	1.054363e+00	1.050754e+00	6.941639e-01	6.856967e-01	6.960988e-01	7.535829e-01	7.515656e-01	1.312208e+00	9.221290e-01	1.129104e+00	1.104359e+00	7.400466e-01	1.294074e+00	1.144070e+00	1.131614e+00	1.135029e+00	1.103099e+00	1.120296e+00	7.405744e-01	1.295131e+00	1.050829e+00	1.243152e+00	1.077234e+00	1.124083e+00	1.227966e+00	7.062334e-01	1.196321e+00	1.159088e+00	1.166595e+00	1.038411e+00	8.230981e-01	1.151163e+00	7.710978e-01	9.426766e-01	7.681788e-01	7.587064e-01	1.109794e+00	7.380044e-01	1.071001e+00	1.065555e+00	1.045833e+00	6.930001e-01	7.034005e-01	1.122309e+00	7.944881e-01	1.088797e+00	1.138630e+00	1.115711e+00	1.133175e+00	1.128377e+00	1.175977e+00	9.946849e-01	1.266737e+00	1.098200e+00	1.075045e+00	1.202148e+00	1.124663e+00	1.222455e+00	1.017498e+00	7.401905e-01	7.168561e-01	1.262775e+00	1.090643e+00	6.992818e-01	1.038107e+00	7.215536e-01	7.130921e-01	7.082956e-01	7.941391e-01	8.551247e-01	1.098241e+00	1.127506e+00	1.166314e+00	1.282962e+00	1.325290e+00	1.127860e+00	1.131564e+00	1.121871e+00	7.352836e-01	1.071654e+00	1.079401e+00	1.097721e+00	1.106091e+00	9.854495e-01	9.632535e-01	1.114010e+00	1.121019e+00	1.127001e+00	1.136417e+00	1.134399e+00	1.025665e+00	1.031764e+00	1.128189e+00	7.657147e-01	7.637066e-01	7.707367e-01	7.694981e-01	1.137165e+00	1.137229e+00	8.550946e-01	8.378828e-01	7.340867e-01	1.125029e+00	1.122754e+00	1.038499e+00	1.025968e+00	9.026555e-01	8.858258e-01	8.698682e-01	7.242893e-01	7.182554e-01	1.078213e+00	1.054115e+00	1.030398e+00	1.007031e+00	7.625309e-01	7.644570e-01	7.670047e-01	7.684039e-01	8.109102e-01	8.010771e-01	7.912689e-01	7.843969e-01	7.768845e-01	7.604232e-01	7.589147e-01	7.707609e-01	7.404646e-01	1.091397e+00	1.083949e+00	7.392894e-01	7.389602e-01	7.379955e-01	7.379137e-01	7.362203e-01	8.168302e-01	8.435797e-01	6.984552e-01	6.957654e-01	6.965502e-01	7.021903e-01	7.090513e-01	7.180470e-01	1.049266e+00	1.045911e+00	1.042131e+00	1.035140e+00	1.031841e+00	1.029294e+00	1.024394e+00	1.012327e+00	1.020623e+00	1.083403e+00	9.447326e-01	7.452951e-01	7.056461e-01	6.990376e-01	6.707583e-01	6.815752e-01	6.925754e-01	7.397096e-01	7.386996e-01	7.151021e-01	7.204647e-01	7.269652e-01	7.316132e-01	6.915199e-01	6.904162e-01	6.882745e-01	6.889846e-01	6.892658e-01	6.916799e-01	8.720340e-01	9.040722e-01	1.047197e+00	1.055169e+00	1.062547e+00	7.596505e-01	7.538642e-01	7.484462e-01	9.393833e-01	9.741742e-01	1.011756e+00	7.270219e-01	7.397158e-01	7.558431e-01	7.750470e-01	7.338735e-01	7.302497e-01	7.280017e-01	7.240985e-01	1.052658e+00	1.060493e+00	1.056342e+00	7.123961e-01	7.059846e-01	7.050089e-01	7.758446e-01	7.659293e-01	7.622681e-01	7.604077e-01	1.189224e+00	1.125040e+00	1.126854e+00	1.156767e+00	1.211310e+00	1.085494e+00	9.334788e-01	1.231891e+00	1.099793e+00	1.266042e+00	1.123284e+00	8.387375e-01	7.099101e-01	1.092915e+00	1.189072e+00	1.266922e+00	1.330956e+00	1.316291e+00	1.301562e+00	1.277304e+00	1.130713e+00	7.232654e-01	1.125001e+00	1.123657e+00	1.128225e+00	1.034368e+00	7.764701e-01	1.119517e+00	1.054070e+00	1.066243e+00	7.437796e-01	7.456486e-01	7.166848e-01	9.275880e-01	7.455978e-01	7.515748e-01	7.253157e-01	1.114459e+00	9.533216e-01	1.147862e+00	1.105304e+00	1.315976e+00	1.163959e+00	1.156152e+00	1.127374e+00	1.101726e+00	1.286272e+00	1.058358e+00	1.247434e+00	1.076171e+00	1.217554e+00	1.153902e+00	1.159301e+00	1.167556e+00	7.653625e-01	7.671569e-01	1.109853e+00	7.431513e-01	1.070968e+00	1.122568e+00	9.620278e-01	1.247048e+00	7.172872e-01	7.135446e-01	7.083737e-01	8.290935e-01	1.126982e+00	1.160168e+00	1.302041e+00	1.146273e+00	1.075494e+00	1.082660e+00	1.090453e+00	1.099308e+00	9.734129e-01	9.929097e-01	1.105808e+00	1.113655e+00	1.117790e+00	1.123398e+00	1.129835e+00	1.128710e+00	1.017438e+00	1.126013e+00	7.743339e-01	7.734649e-01	7.750225e-01	7.768877e-01	1.130907e+00	1.130614e+00	8.684255e-01	8.489547e-01	1.123400e+00	1.122377e+00	1.037445e+00	9.146025e-01	8.979131e-01	8.865608e-01	7.364202e-01	1.080228e+00	1.057800e+00	1.034915e+00	1.014196e+00	7.669715e-01	7.679988e-01	7.716843e-01	7.726530e-01	7.742530e-01	8.237612e-01	8.150181e-01	8.036005e-01	7.980393e-01	7.868675e-01	1.094150e+00	1.088432e+00	1.082253e+00	7.446776e-01	7.435650e-01	7.425444e-01	7.413705e-01	7.407417e-01	8.432681e-01	8.693082e-01	7.053489e-01	7.007699e-01	7.150053e-01	7.279095e-01	7.396621e-01	1.050712e+00	1.046655e+00	1.042740e+00	1.039253e+00	1.035500e+00	1.031827e+00	1.022607e+00	1.016158e+00	1.024878e+00	1.087542e+00	7.389250e-01	6.903158e-01	7.063339e-01	7.289680e-01	7.390490e-01	6.983545e-01	6.971079e-01	6.974744e-01	6.958180e-01	7.000031e-01	7.010828e-01	7.051441e-01	8.975357e-01	9.260803e-01	1.053587e+00	1.062808e+00	1.067812e+00	7.707234e-01	7.640376e-01	9.577749e-01	9.917866e-01	1.025178e+00	7.510611e-01	7.655868e-01	7.806924e-01	8.014985e-01	8.220073e-01	7.395368e-01	7.345436e-01	7.331800e-01	7.283291e-01	1.061841e+00	1.057039e+00	7.326487e-01	7.245418e-01	7.814853e-01	7.746817e-01	7.718148e-01	7.673671e-01	1.149198e+00	1.143591e+00	1.216036e+00	1.284361e+00	1.161292e+00	1.122078e+00	1.110367e+00	1.229664e+00	1.080337e+00	1.132892e+00	1.121788e+00	1.281261e+00	1.119968e+00	1.198090e+00	7.287240e-01	1.155830e+00	1.123327e+00	1.205988e+00	1.179007e+00	1.122913e+00	7.685842e-01	1.106234e+00	7.733324e-01	1.122250e+00	1.119727e+00	7.429858e-01	9.436428e-01	8.451046e-01	1.260051e+00	7.815681e-01	9.827580e-01	9.639362e-01	7.395918e-01	1.095697e+00	1.055527e+00	1.248070e+00	1.093920e+00	1.123722e+00	1.150243e+00	1.100352e+00	1.313050e+00	1.275622e+00	1.122567e+00	1.085168e+00	7.494425e-01	7.485715e-01	1.113297e+00	1.156067e+00	1.126467e+00	1.292327e+00	1.158290e+00	1.101184e+00	1.247211e+00	1.231709e+00	7.500177e-01	1.140078e+00	1.075697e+00	1.070820e+00	7.504547e-01	7.206421e-01	7.120047e-01	1.028026e+00	1.152309e+00	1.178384e+00	1.160757e+00	1.080493e+00	1.094306e+00	1.001094e+00	1.106608e+00	1.114225e+00	1.124242e+00	1.124178e+00	7.819704e-01	1.124387e+00	1.124389e+00	8.709843e-01	1.121645e+00	1.026716e+00	1.029039e+00	9.183847e-01	8.984560e-01	7.569642e-01	1.081116e+00	1.059098e+00	1.038345e+00	1.023452e+00	7.738252e-01	7.774076e-01	7.816132e-01	8.220365e-01	8.029266e-01	1.090593e+00	1.085778e+00	7.452928e-01	7.444484e-01	8.924940e-01	7.065203e-01	7.619553e-01	1.040753e+00	1.047801e+00	1.041436e+00	1.032404e+00	1.016494e+00	1.021687e+00	1.040120e+00	8.347060e-01	7.539900e-01	7.106199e-01	7.209453e-01	7.339748e-01	7.419770e-01	7.466617e-01	7.058891e-01	7.068230e-01	7.131407e-01	7.152063e-01	7.273266e-01	9.203286e-01	9.480650e-01	1.043140e+00	1.061717e+00	1.070639e+00	7.815354e-01	7.770528e-01	9.760355e-01	1.006526e+00	1.036191e+00	1.064821e+00	7.789459e-01	7.916217e-01	8.061240e-01	8.256975e-01	8.523299e-01	8.670244e-01	7.389443e-01	7.353881e-01	1.066686e+00	1.061962e+00	7.421416e-01	8.107618e-01	9.050060e-01	7.885229e-01	7.774779e-01	1.117330e+00	1.150734e+00	1.146075e+00	1.130886e+00	1.053472e+00	1.109252e+00	1.154512e+00	1.130063e+00	1.219137e+00	1.171495e+00	1.137388e+00	1.126205e+00	1.146239e+00	1.236589e+00	1.271153e+00	1.088009e+00	1.036331e+00	7.344693e-01	1.122880e+00	1.104363e+00	1.135931e+00	9.032332e-01	1.120905e+00	1.203554e+00	7.875411e-01	1.117079e+00	7.728796e-01	7.733614e-01	1.119598e+00	1.119844e+00	1.117245e+00	1.100866e+00	1.147749e+00	1.100818e+00	1.104959e+00	1.079338e+00	7.200405e-01	7.542206e-01	9.877934e-01	1.007868e+00	1.139737e+00	1.144585e+00	1.303549e+00	1.119269e+00	1.083299e+00	1.158680e+00	1.119942e+00	1.217511e+00	1.188081e+00	7.837759e-01	1.257388e+00	9.943822e-01	9.722185e-01	1.096856e+00	1.267649e+00	1.119180e+00	1.120692e+00	1.066464e+00	1.286398e+00	1.158117e+00	1.027022e+00	1.242961e+00	1.234994e+00	7.555958e-01	1.154431e+00	1.074519e+00	7.546723e-01	7.279571e-01	7.522460e-01	1.169863e+00	1.191780e+00	1.083450e+00	1.094940e+00	1.110255e+00	1.114092e+00	1.122169e+00	7.899654e-01	1.118052e+00	1.118801e+00	7.845494e-01	1.054707e+00	1.066483e+00	1.024509e+00	9.512255e-01	9.285906e-01	9.061416e-01	1.080821e+00	7.808315e-01	7.824504e-01	8.795311e-01	8.534999e-01	8.771606e-01	1.092436e+00	7.537895e-01	7.527305e-01	7.828169e-01	1.052704e+00	1.046129e+00	1.031175e+00	1.038410e+00	1.025475e+00	1.020645e+00	1.068765e+00	9.673647e-01	8.212742e-01	7.340391e-01	7.360022e-01	7.366689e-01	7.454025e-01	7.167273e-01	7.142068e-01	7.179365e-01	7.273644e-01	7.380873e-01	7.596171e-01	9.410351e-01	9.673838e-01	1.036921e+00	1.073697e+00	7.899595e-01	7.880613e-01	9.913289e-01	1.016647e+00	1.044701e+00	1.070894e+00	1.096568e+00	8.045859e-01	8.203125e-01	8.325039e-01	8.517326e-01	8.749464e-01	7.495361e-01	7.473145e-01	7.411544e-01	1.067523e+00	1.060846e+00	7.614211e-01	7.651885e-01	8.308673e-01	8.107433e-01	7.955945e-01	7.858013e-01	1.140096e+00	1.139907e+00	1.136216e+00	1.121368e+00	1.199211e+00	1.135139e+00	1.161521e+00	1.111692e+00	1.157598e+00	1.123924e+00	1.122539e+00	1.114786e+00	1.146338e+00	1.085195e+00	7.240276e-01	1.131827e+00	1.133720e+00	1.163590e+00	1.148289e+00	1.119905e+00	9.135442e-01	1.052591e+00	1.101426e+00	1.030100e+00	1.128600e+00	1.127260e+00	1.124491e+00	1.154441e+00	1.206476e+00	7.617125e-01	8.