# vtk DataFile Version 3.0
vtk output
ASCII
DATASET UNSTRUCTURED_GRID
POINTS 200 float
9.997500e-01	-3.632545e-05	0.0	9.990000e-01	-1.450316e-04	0.0	9.977600e-01	-3.226727e-04	0.0	9.960200e-01	-5.638106e-04	0.0	9.937800e-01	-8.526725e-04	0.0	9.910500e-01	-1.160899e-03	0.0	9.878400e-01	-1.451113e-03	0.0	9.841300e-01	-1.686459e-03	0.0	9.799500e-01	-1.837566e-03	0.0	9.752800e-01	-1.902869e-03	0.0	9.701500e-01	-1.913092e-03	0.0	9.645400e-01	-1.931254e-03	0.0	9.584700e-01	-2.039795e-03	0.0	9.519400e-01	-2.323733e-03	0.0	9.449600e-01	-2.855442e-03	0.0	9.375400e-01	-3.686673e-03	0.0	9.296900e-01	-4.847795e-03	0.0	9.214000e-01	-6.354469e-03	0.0	9.127000e-01	-8.199287e-03	0.0	9.035800e-01	-1.036660e-02	0.0	8.940600e-01	-1.281828e-02	0.0	8.841500e-01	-1.550322e-02	0.0	8.738500e-01	-1.836234e-02	0.0	8.631800e-01	-2.132686e-02	0.0	8.521600e-01	-2.433194e-02	0.0	8.407700e-01	-2.733442e-02	0.0	8.290500e-01	-3.029058e-02	0.0	8.170100e-01	-3.318184e-02	0.0	8.046400e-01	-3.600920e-02	0.0	7.919700e-01	-3.877543e-02	0.0	7.790100e-01	-4.149438e-02	0.0	7.657800e-01	-4.417917e-02	0.0	7.522800e-01	-4.684423e-02	0.0	7.385200e-01	-4.949643e-02	0.0	7.245300e-01	-5.213213e-02	0.0	7.103200e-01	-5.474485e-02	0.0	6.958900e-01	-5.732400e-02	0.0	6.812700e-01	-5.984927e-02	0.0	6.664700e-01	-6.230152e-02	0.0	6.515000e-01	-6.466082e-02	0.0	6.363800e-01	-6.690653e-02	0.0	6.211300e-01	-6.902044e-02	0.0	6.057600e-01	-7.098889e-02	0.0	5.902800e-01	-7.280171e-02	0.0	5.747100e-01	-7.445143e-02	0.0	5.590600e-01	-7.593558e-02	0.0	5.433600e-01	-7.725351e-02	0.0	5.276100e-01	-7.841048e-02	0.0	5.118400e-01	-7.941210e-02	0.0	4.960500e-01	-8.026814e-02	0.0	4.802700e-01	-8.098814e-02	0.0	4.645100e-01	-8.158373e-02	0.0	4.487800e-01	-8.206677e-02	0.0	4.331100e-01	-8.244838e-02	0.0	4.175000e-01	-8.273989e-02	0.0	4.019700e-01	-8.295107e-02	0.0	3.865400e-01	-8.309039e-02	0.0	3.712300e-01	-8.316479e-02	0.0	3.560400e-01	-8.317944e-02	0.0	3.409900e-01	-8.313740e-02	0.0	3.261100e-01	-8.303995e-02	0.0	3.114000e-01	-8.288620e-02	0.0	2.968700e-01	-8.267337e-02	0.0	2.825500e-01	-8.239724e-02	0.0	2.684500e-01	-8.205183e-02	0.0	2.545700e-01	-8.162944e-02	0.0	2.409400e-01	-8.112217e-02	0.0	2.275700e-01	-8.052089e-02	0.0	2.144700e-01	-7.981591e-02	0.0	2.016600e-01	-7.899803e-02	0.0	1.891400e-01	-7.805691e-02	0.0	1.769300e-01	-7.698399e-02	0.0	1.650400e-01	-7.577076e-02	0.0	1.534900e-01	-7.441086e-02	0.0	1.422900e-01	-7.289831e-02	0.0	1.314400e-01	-7.122686e-02	0.0	1.209500e-01	-6.939280e-02	0.0	1.108500e-01	-6.739812e-02	0.0	1.011300e-01	-6.523912e-02	0.0	9.181000e-02	-6.291969e-02	0.0	8.290000e-02	-6.044376e-02	0.0	7.440000e-02	-5.781392e-02	0.0	6.633000e-02	-5.504053e-02	0.0	5.869000e-02	-5.212934e-02	0.0	5.149000e-02	-4.909091e-02	0.0	4.474000e-02	-4.593775e-02	0.0	3.844000e-02	-4.267902e-02	0.0	3.260000e-02	-3.932988e-02	0.0	2.723000e-02	-3.590769e-02	0.0	2.232000e-02	-3.241743e-02	0.0	1.790000e-02	-2.889385e-02	0.0	1.395000e-02	-2.533527e-02	0.0	1.049000e-02	-2.177376e-02	0.0	7.520000e-03	-1.822686e-02	0.0	5.040000e-03	-1.471238e-02	0.0	3.050000e-03	-1.124773e-02	0.0	1.560000e-03	-7.873831e-03	0.0	5.600000e-04	-4.590388e-03	0.0	6.000000e-05	-1.445068e-03	0.0	0.000000e+00	0.000000e+00	0.0	6.000000e-05	1.633765e-03	0.0	5.600000e-04	5.269891e-03	0.0	1.560000e-03	8.939909e-03	0.0	3.050000e-03	1.252730e-02	0.0	5.040000e-03	1.601394e-02	0.0	7.520000e-03	1.935558e-02	0.0	1.049000e-02	2.254153e-02	0.0	1.395000e-02	2.556552e-02	0.0	1.790000e-02	2.842470e-02	0.0	2.232000e-02	3.110773e-02	0.0	2.723000e-02	3.363099e-02	0.0	3.260000e-02	3.598494e-02	0.0	3.844000e-02	3.818243e-02	0.0	4.474000e-02	4.022800e-02	0.0	5.149000e-02	4.212813e-02	0.0	5.869000e-02	4.389295e-02	0.0	6.633000e-02	4.553034e-02	0.0	7.440000e-02	4.704899e-02	0.0	8.290000e-02	4.845961e-02	0.0	9.181000e-02	4.976962e-02	0.0	1.011300e-01	5.098960e-02	0.0	1.108500e-01	5.212825e-02	0.0	1.209500e-01	5.319293e-02	0.0	1.314400e-01	5.419357e-02	0.0	1.422900e-01	5.513544e-02	0.0	1.534900e-01	5.602515e-02	0.0	1.650400e-01	5.686908e-02	0.0	1.769300e-01	5.767181e-02	0.0	1.891400e-01	5.843634e-02	0.0	2.016600e-01	5.916544e-02	0.0	2.144700e-01	5.986041e-02	0.0	2.275700e-01	6.052276e-02	0.0	2.409400e-01	6.115215e-02	0.0	2.545700e-01	6.174808e-02	0.0	2.684500e-01	6.230952e-02	0.0	2.825500e-01	6.283426e-02	0.0	2.968700e-01	6.332110e-02	0.0	3.114000e-01	6.376826e-02	0.0	3.261100e-01	6.417348e-02	0.0	3.409900e-01	6.453534e-02	0.0	3.560400e-01	6.485283e-02	0.0	3.712300e-01	6.512460e-02	0.0	3.865400e-01	6.534993e-02	0.0	4.019700e-01	6.552866e-02	0.0	4.175000e-01	6.566043e-02	0.0	4.331100e-01	6.574498e-02	0.0	4.487800e-01	6.578187e-02	0.0	4.645100e-01	6.577023e-02	0.0	4.802700e-01	6.570847e-02	0.0	4.960500e-01	6.559401e-02	0.0	5.118400e-01	6.542303e-02	0.0	5.276100e-01	6.519056e-02	0.0	5.433600e-01	6.488975e-02	0.0	5.590600e-01	6.451280e-02	0.0	5.747100e-01	6.404989e-02	0.0	5.902800e-01	6.349092e-02	0.0	6.057600e-01	6.282461e-02	0.0	6.211300e-01	6.204002e-02	0.0	6.363800e-01	6.112631e-02	0.0	6.515000e-01	6.007384e-02	0.0	6.664700e-01	5.887577e-02	0.0	6.812700e-01	5.752839e-02	0.0	6.958900e-01	5.603078e-02	0.0	7.103200e-01	5.438592e-02	0.0	7.245300e-01	5.260357e-02	0.0	7.385200e-01	5.069428e-02	0.0	7.522800e-01	4.867353e-02	0.0	7.657800e-01	4.656315e-02	0.0	7.790100e-01	4.438450e-02	0.0	7.919700e-01	4.215818e-02	0.0	8.046400e-01	3.990782e-02	0.0	8.170100e-01	3.765395e-02	0.0	8.290500e-01	3.541827e-02	0.0	8.407700e-01	3.321202e-02	0.0	8.521600e-01	3.104699e-02	0.0	8.631800e-01	2.893827e-02	0.0	8.738500e-01	2.688819e-02	0.0	8.841500e-01	2.490639e-02	0.0	8.940600e-01	2.300257e-02	0.0	9.035800e-01	2.118135e-02	0.0	9.127000e-01	1.944515e-02	0.0	9.214000e-01	1.778997e-02	0.0	9.296900e-01	1.619459e-02	0.0	9.375400e-01	1.463444e-02	0.0	9.449600e-01	1.307263e-02	0.0	9.519400e-01	1.148389e-02	0.0	9.584700e-01	9.864948e-03	0.0	9.645400e-01	8.243621e-03	0.0	9.701500e-01	6.673416e-03	0.0	9.752800e-01	5.226791e-03	0.0	9.799500e-01	3.957214e-03	0.0	9.841300e-01	2.906354e-03	0.0	9.878400e-01	2.070807e-03	0.0	9.910500e-01	1.432723e-03	0.0	9.937800e-01	9.508115e-04	0.0	9.960200e-01	5.909314e-04	0.0	9.977600e-01	3.276904e-04	0.0	9.990000e-01	1.454888e-04	0.0	9.997500e-01	3.633269e-05	0.0	1.000000e+00	0.000000e+00	0.0	
CELLS 200	600
2	199	0	2	0	1	2	1	2	2	2	3	2	3	4	2	4	5	2	5	6	2	6	7	2	7	8	2	8	9	2	9	10	2	10	11	2	11	12	2	12	13	2	13	14	2	14	15	2	15	16	2	16	17	2	17	18	2	18	19	2	19	20	2	20	21	2	21	22	2	22	23	2	23	24	2	24	25	2	25	26	2	26	27	2	27	28	2	28	29	2	29	30	2	30	31	2	31	32	2	32	33	2	33	34	2	34	35	2	35	36	2	36	37	2	37	38	2	38	39	2	39	40	2	40	41	2	41	42	2	42	43	2	43	44	2	44	45	2	45	46	2	46	47	2	47	48	2	48	49	2	49	50	2	50	51	2	51	52	2	52	53	2	53	54	2	54	55	2	55	56	2	56	57	2	57	58	2	58	59	2	59	60	2	60	61	2	61	62	2	62	63	2	63	64	2	64	65	2	65	66	2	66	67	2	67	68	2	68	69	2	69	70	2	70	71	2	71	72	2	72	73	2	73	74	2	74	75	2	75	76	2	76	77	2	77	78	2	78	79	2	79	80	2	80	81	2	81	82	2	82	83	2	83	84	2	84	85	2	85	86	2	86	87	2	87	88	2	88	89	2	89	90	2	90	91	2	91	92	2	92	93	2	93	94	2	94	95	2	95	96	2	96	97	2	97	98	2	98	99	2	99	100	2	100	101	2	101	102	2	102	103	2	103	104	2	104	105	2	105	106	2	106	107	2	107	108	2	108	109	2	109	110	2	110	111	2	111	112	2	112	113	2	113	114	2	114	115	2	115	116	2	116	117	2	117	118	2	118	119	2	119	120	2	120	121	2	121	122	2	122	123	2	123	124	2	124	125	2	125	126	2	126	127	2	127	128	2	128	129	2	129	130	2	130	131	2	131	132	2	132	133	2	133	134	2	134	135	2	135	136	2	136	137	2	137	138	2	138	139	2	139	140	2	140	141	2	141	142	2	142	143	2	143	144	2	144	145	2	145	146	2	146	147	2	147	148	2	148	149	2	149	150	2	150	151	2	151	152	2	152	153	2	153	154	2	154	155	2	155	156	2	156	157	2	157	158	2	158	159	2	159	160	2	160	161	2	161	162	2	162	163	2	163	164	2	164	165	2	165	166	2	166	167	2	167	168	2	168	169	2	169	170	2	170	171	2	171	172	2	172	173	2	173	174	2	174	175	2	175	176	2	176	177	2	177	178	2	178	179	2	179	180	2	180	181	2	181	182	2	182	183	2	183	184	2	184	185	2	185	186	2	186	187	2	187	188	2	188	189	2	189	190	2	190	191	2	191	192	2	192	193	2	193	194	2	194	195	2	195	196	2	196	197	2	197	198	2	198	199	
CELL_TYPES 200
3	3	3	3	3	3	3	3	3	3	3	3	3	3	3	3	3	3	3	3	3	3	3	3	3	3	3	3	3	3	3	3	3	3	3	3	3	3	3	3	3	3	3	3	3	3	3	3	3	3	3	3	3	3	3	3	3	3	3	3	3	3	3	3	3	3	3	3	3	3	3	3	3	3	3	3	3	3	3	3	3	3	3	3	3	3	3	3	3	3	3	3	3	3	3	3	3	3	3	3	3	3	3	3	3	3	3	3	3	3	3	3	3	3	3	3	3	3	3	3	3	3	3	3	3	3	3	3	3	3	3	3	3	3	3	3	3	3	3	3	3	3	3	3	3	3	3	3	3	3	3	3	3	3	3	3	3	3	3	3	3	3	3	3	3	3	3	3	3	3	3	3	3	3	3	3	3	3	3	3	3	3	3	3	3	3	3	3	3	3	3	3	3	3	3	3	3	3	3	3	
POINT_DATA 200

SCALARS Conservative_1 float 1
LOOKUP_TABLE default
1.176575e+00	1.160507e+00	1.145159e+00	1.130028e+00	1.117633e+00	1.107292e+00	1.101305e+00	1.101498e+00	1.108221e+00	1.119886e+00	1.133255e+00	1.146274e+00	1.156094e+00	1.163067e+00	1.165793e+00	1.166111e+00	1.162809e+00	1.157599e+00	1.149307e+00	1.139343e+00	1.126833e+00	1.112996e+00	1.097658e+00	1.082363e+00	1.067645e+00	1.055682e+00	1.043096e+00	1.034241e+00	1.025518e+00	1.014420e+00	1.008324e+00	1.002060e+00	1.011649e+00	1.046698e+00	1.048096e+00	1.088823e+00	9.669857e-01	8.171149e-01	7.374264e-01	6.644102e-01	6.616730e-01	6.520676e-01	6.624044e-01	6.709697e-01	6.807895e-01	6.890753e-01	6.991607e-01	7.088772e-01	7.186102e-01	7.249754e-01	7.317929e-01	7.367432e-01	7.427556e-01	7.467822e-01	7.503280e-01	7.498809e-01	7.502433e-01	7.484743e-01	7.478359e-01	7.451164e-01	7.421993e-01	7.389570e-01	7.361971e-01	7.344667e-01	7.328130e-01	7.325494e-01	7.326176e-01	7.332930e-01	7.341022e-01	7.369419e-01	7.420891e-01	7.505069e-01	7.594218e-01	7.684675e-01	7.776779e-01	7.897700e-01	8.064339e-01	8.234677e-01	8.406315e-01	8.588872e-01	8.790939e-01	9.008683e-01	9.254870e-01	9.511900e-01	9.777006e-01	1.005712e+00	1.036073e+00	1.067738e+00	1.100307e+00	1.134694e+00	1.168256e+00	1.206370e+00	1.241700e+00	1.276335e+00	1.304633e+00	1.337826e+00	1.346528e+00	1.366086e+00	1.356002e+00	1.331421e+00	1.338466e+00	1.315838e+00	1.270491e+00	1.206021e+00	1.137249e+00	1.074925e+00	1.004906e+00	9.388542e-01	8.814488e-01	8.331615e-01	7.926630e-01	7.606376e-01	7.354538e-01	7.111869e-01	6.917188e-01	6.751240e-01	6.641503e-01	6.563649e-01	6.516617e-01	6.473756e-01	6.461642e-01	6.448486e-01	6.476641e-01	6.509626e-01	6.533089e-01	6.550356e-01	6.567018e-01	6.577634e-01	6.611431e-01	6.637858e-01	6.691838e-01	6.712734e-01	6.759631e-01	6.789364e-01	6.829208e-01	6.880038e-01	6.936606e-01	6.990720e-01	7.017365e-01	7.056082e-01	7.070656e-01	7.109316e-01	7.129954e-01	7.168693e-01	7.177810e-01	7.202726e-01	7.200309e-01	7.205166e-01	7.194417e-01	7.192267e-01	7.176760e-01	7.163945e-01	7.134566e-01	7.108501e-01	7.059143e-01	7.010561e-01	6.928226e-01	6.841203e-01	6.738152e-01	6.641982e-01	6.526636e-01	6.427880e-01	6.294168e-01	6.226623e-01	6.111755e-01	6.436516e-01	6.763705e-01	8.836152e-01	1.055302e+00	1.057894e+00	1.042126e+00	9.838020e-01	9.840128e-01	1.006133e+00	1.014992e+00	1.020380e+00	1.023389e+00	1.027985e+00	1.032205e+00	1.035882e+00	1.038206e+00	1.040570e+00	1.041683e+00	1.043444e+00	1.045937e+00	1.052611e+00	1.061812e+00	1.075121e+00	1.089538e+00	1.104577e+00	1.117427e+00	1.126202e+00	1.133351e+00	1.136289e+00	1.139952e+00	1.141076e+00	1.145341e+00	1.150639e+00	1.159053e+00	1.154822e+00	
SCALARS Conservative_2 float 1
LOOKUP_TABLE default
6.431622e-01	6.963729e-01	7.273037e-01	7.519330e-01	7.744084e-01	7.930271e-01	8.055062e-01	8.088517e-01	8.045560e-01	7.892892e-01	7.711351e-01	7.484012e-01	7.296982e-01	7.132763e-01	7.030398e-01	6.974582e-01	6.967167e-01	7.009104e-01	7.081336e-01	7.203265e-01	7.334837e-01	7.520824e-01	7.691760e-01	7.893485e-01	8.064986e-01	8.229987e-01	8.357778e-01	8.479906e-01	8.548755e-01	8.663086e-01	8.729173e-01	8.841382e-01	8.841134e-01	8.595639e-01	8.524948e-01	8.410167e-01	8.557054e-01	9.116017e-01	8.873140e-01	9.126073e-01	9.123684e-01	9.068057e-01	9.145682e-01	9.227782e-01	9.295866e-01	9.331849e-01	9.385078e-01	9.425274e-01	9.469515e-01	9.494434e-01	9.524210e-01	9.546234e-01	9.571144e-01	9.587148e-01	9.605820e-01	9.612553e-01	9.621900e-01	9.628005e-01	9.634614e-01	9.638310e-01	9.641051e-01	9.641808e-01	9.641450e-01	9.638942e-01	9.641236e-01	9.642075e-01	9.651661e-01	9.650443e-01	9.660078e-01	9.661633e-01	9.683228e-01	9.697752e-01	9.728794e-01	9.726294e-01	9.733072e-01	9.711136e-01	9.719603e-01	9.683068e-01	9.677406e-01	9.615226e-01	9.557265e-01	9.409139e-01	9.300667e-01	9.098976e-01	8.920120e-01	8.623618e-01	8.341132e-01	7.895528e-01	7.492276e-01	6.879905e-01	6.326747e-01	5.539770e-01	4.746691e-01	3.762467e-01	2.851153e-01	2.118081e-01	1.273830e-01	5.404047e-02	1.781614e-02	6.188455e-03	2.132911e-02	7.865880e-02	2.023552e-01	3.346572e-01	4.775692e-01	5.950160e-01	6.913180e-01	7.703633e-01	8.195241e-01	8.621900e-01	8.836370e-01	9.015534e-01	9.098601e-01	9.145165e-01	9.134927e-01	9.140631e-01	9.122699e-01	9.130308e-01	9.117321e-01	9.120267e-01	9.124325e-01	9.132357e-01	9.140516e-01	9.151245e-01	9.162636e-01	9.183269e-01	9.189258e-01	9.199439e-01	9.214776e-01	9.237454e-01	9.265207e-01	9.282205e-01	9.297308e-01	9.310136e-01	9.320224e-01	9.339896e-01	9.357764e-01	9.363487e-01	9.355429e-01	9.366905e-01	9.360188e-01	9.366035e-01	9.362798e-01	9.367133e-01	9.359695e-01	9.361541e-01	9.354845e-01	9.344139e-01	9.332071e-01	9.317718e-01	9.305068e-01	9.285640e-01	9.267936e-01	9.244681e-01	9.220714e-01	9.186697e-01	9.146800e-01	9.096447e-01	9.042861e-01	8.987437e-01	8.915591e-01	8.845668e-01	8.751082e-01	8.688734e-01	8.564358e-01	8.691692e-01	8.737052e-01	8.680284e-01	8.511010e-01	8.380148e-01	8.228592e-01	8.301721e-01	8.181962e-01	8.122315e-01	8.060668e-01	8.010008e-01	7.949688e-01	7.895359e-01	7.840966e-01	7.804073e-01	7.766440e-01	7.745728e-01	7.716549e-01	7.682090e-01	7.613073e-01	7.493776e-01	7.315340e-01	7.089692e-01	6.872436e-01	6.642070e-01	6.486271e-01	6.341848e-01	6.273067e-01	6.203661e-01	6.161363e-01	6.062395e-01	5.959709e-01	5.806237e-01	5.613789e-01	5.572295e-01	
SCALARS Conservative_3 float 1
LOOKUP_TABLE default
8.473466e-02	9.670271e-02	9.994104e-02	1.000330e-01	9.324267e-02	8.048946e-02	6.197850e-02	4.017326e-02	2.095954e-02	6.856829e-03	3.582309e-03	9.144297e-03	2.408731e-02	4.406328e-02	6.741500e-02	9.163254e-02	1.155818e-01	1.388369e-01	1.595800e-01	1.790519e-01	1.936697e-01	2.065898e-01	2.132926e-01	2.177203e-01	2.164131e-01	2.123431e-01	2.056187e-01	1.978814e-01	1.892963e-01	1.867752e-01	1.800629e-01	1.829573e-01	1.894403e-01	1.851545e-01	1.808193e-01	1.426000e-01	1.332686e-01	1.447134e-01	1.255351e-01	1.375056e-01	1.254967e-01	1.210041e-01	1.112303e-01	1.023963e-01	9.315463e-02	8.325239e-02	7.393148e-02	6.401146e-02	5.534760e-02	4.712660e-02	3.958325e-02	3.241980e-02	2.592701e-02	1.999310e-02	1.488428e-02	1.082077e-02	6.332967e-03	2.879537e-03	-1.070713e-03	-4.192989e-03	-7.928621e-03	-1.139756e-02	-1.568357e-02	-2.035436e-02	-2.567995e-02	-3.190893e-02	-3.882373e-02	-4.666323e-02	-5.550521e-02	-6.605125e-02	-7.787462e-02	-9.179639e-02	-1.059952e-01	-1.218887e-01	-1.392432e-01	-1.588052e-01	-1.800580e-01	-2.026170e-01	-2.267817e-01	-2.526036e-01	-2.793924e-01	-3.063523e-01	-3.360922e-01	-3.645691e-01	-3.953884e-01	-4.234789e-01	-4.531199e-01	-4.761201e-01	-5.028958e-01	-5.161210e-01	-5.360290e-01	-5.318630e-01	-5.287115e-01	-4.944394e-01	-4.730349e-01	-4.180193e-01	-3.380061e-01	-1.871005e-01	7.925275e-02	1.796759e-01	2.655578e-01	4.457620e-01	6.000025e-01	6.970120e-01	7.250585e-01	7.165736e-01	6.672669e-01	6.100152e-01	5.400040e-01	4.753288e-01	4.131686e-01	3.601707e-01	3.129418e-01	2.728595e-01	2.372919e-01	2.058537e-01	1.798722e-01	1.578442e-01	1.396625e-01	1.240114e-01	1.109785e-01	1.000606e-01	9.056994e-02	8.226571e-02	7.523709e-02	6.875449e-02	6.379477e-02	5.898701e-02	5.473573e-02	5.104281e-02	4.807532e-02	4.544662e-02	4.243052e-02	3.901058e-02	3.550152e-02	3.252117e-02	2.928128e-02	2.717712e-02	2.383441e-02	2.087124e-02	1.734908e-02	1.408079e-02	1.077205e-02	8.065556e-03	4.978065e-03	2.318585e-03	-7.376854e-04	-3.533943e-03	-6.638291e-03	-9.696601e-03	-1.319821e-02	-1.677620e-02	-2.096022e-02	-2.568267e-02	-3.106900e-02	-3.709800e-02	-4.358824e-02	-5.131029e-02	-5.912236e-02	-6.833479e-02	-7.700065e-02	-8.687657e-02	-9.541735e-02	-1.084394e-01	-1.177906e-01	-1.421202e-01	-1.701702e-01	-1.352224e-01	-1.198505e-01	-1.013491e-01	-1.016374e-01	-1.360206e-01	-1.388640e-01	-1.488033e-01	-1.470448e-01	-1.469063e-01	-1.466278e-01	-1.475630e-01	-1.463286e-01	-1.465643e-01	-1.455324e-01	-1.470955e-01	-1.497250e-01	-1.566723e-01	-1.661208e-01	-1.778750e-01	-1.881058e-01	-1.942198e-01	-1.941380e-01	-1.844765e-01	-1.705874e-01	-1.513511e-01	-1.335702e-01	-1.159739e-01	-1.030056e-01	-9.245702e-02	-8.727332e-02	-8.079164e-02	-7.976036e-02	8.214389e-03	
SCALARS Conservative_4 float 1
LOOKUP_TABLE default
3.377148e+00	3.343230e+00	3.305738e+00	3.270272e+00	3.239792e+00	3.216286e+00	3.202244e+00	3.204555e+00	3.222657e+00	3.252347e+00	3.286665e+00	3.318130e+00	3.342578e+00	3.358550e+00	3.364907e+00	3.364397e+00	3.355554e+00	3.341989e+00	3.320700e+00	3.295686e+00	3.263059e+00	3.228867e+00	3.189229e+00	3.152068e+00	3.114492e+00	3.085619e+00	3.052927e+00	3.031295e+00	3.006718e+00	2.981145e+00	2.967077e+00	2.961295e+00	2.991978e+00	3.081161e+00	3.091115e+00	3.182260e+00	2.848557e+00	2.448739e+00	2.226688e+00	2.062174e+00	2.053514e+00	2.023500e+00	2.052619e+00	2.077469e+00	2.105244e+00	2.127041e+00	2.154728e+00	2.180661e+00	2.207122e+00	2.224287e+00	2.242805e+00	2.256527e+00	2.273078e+00	2.284149e+00	2.294275e+00	2.293914e+00	2.295541e+00	2.292042e+00	2.290973e+00	2.284940e+00	2.278048e+00	2.270580e+00	2.264143e+00	2.260184e+00	2.256700e+00	2.256682e+00	2.258026e+00	2.260181e+00	2.263436e+00	2.271491e+00	2.287037e+00	2.310176e+00	2.335996e+00	2.359840e+00	2.385390e+00	2.416496e+00	2.462275e+00	2.506716e+00	2.555028e+00	2.603334e+00	2.658398e+00	2.712374e+00	2.778755e+00	2.843104e+00	2.913883e+00	2.983218e+00	3.062134e+00	3.136940e+00	3.221375e+00	3.301794e+00	3.386420e+00	3.470496e+00	3.547692e+00	3.614062e+00	3.680306e+00	3.776808e+00	3.781395e+00	3.829577e+00	3.798067e+00	3.747386e+00	3.773815e+00	3.705931e+00	3.622669e+00	3.467755e+00	3.306006e+00	3.149450e+00	2.963278e+00	2.798233e+00	2.640863e+00	2.519830e+00	2.409680e+00	2.328030e+00	2.258665e+00	2.196526e+00	2.141564e+00	2.099414e+00	2.067808e+00	2.048698e+00	2.034290e+00	2.024008e+00	2.020119e+00	2.017690e+00	2.024035e+00	2.032679e+00	2.038678e+00	2.044968e+00	2.048490e+00	2.051824e+00	2.060425e+00	2.068552e+00	2.082945e+00	2.089506e+00	2.101636e+00	2.109407e+00	2.119525e+00	2.132197e+00	2.147308e+00	2.160187e+00	2.165766e+00	2.175180e+00	2.177857e+00	2.186693e+00	2.191389e+00	2.200300e+00	2.201949e+00	2.207451e+00	2.206280e+00	2.206209e+00	2.202444e+00	2.200440e+00	2.195502e+00	2.190619e+00	2.181903e+00	2.173544e+00	2.159604e+00	2.145252e+00	2.122012e+00	2.097621e+00	2.068516e+00	2.042240e+00	2.009308e+00	1.982085e+00	1.943817e+00	1.924150e+00	1.890250e+00	1.975673e+00	2.086618e+00	2.589472e+00	3.097058e+00	3.124057e+00	3.035159e+00	2.883517e+00	2.878223e+00	2.938603e+00	2.962663e+00	2.976213e+00	2.981558e+00	2.991625e+00	3.000862e+00	3.009097e+00	3.013848e+00	3.018816e+00	3.020928e+00	3.023915e+00	3.029909e+00	3.044720e+00	3.067388e+00	3.098053e+00	3.135412e+00	3.171003e+00	3.204394e+00	3.224405e+00	3.243318e+00	3.248921e+00	3.258226e+00	3.257826e+00	3.269183e+00	3.281733e+00	3.306216e+00	3.293585e+00	
SCALARS Pressure float 1
LOOKUP_TABLE default
1.279323e+00	1.252108e+00	1.228167e+00	1.206269e+00	1.187043e+00	1.171753e+00	1.162369e+00	1.162738e+00	1.172164e+00	1.189673e+00	1.209718e+00	1.229511e+00	1.244817e+00	1.255600e+00	1.260388e+00	1.260888e+00	1.256434e+00	1.248587e+00	1.236586e+00	1.221564e+00	1.203078e+00	1.182237e+00	1.159604e+00	1.136937e+00	1.115178e+00	1.097385e+00	1.079132e+00	1.065890e+00	1.053174e+00	1.037616e+00	1.029261e+00	1.021818e+00	1.035165e+00	1.084736e+00	1.091528e+00	1.139247e+00	9.843034e-01	7.709669e-01	6.728675e-01	5.684739e-01	5.650357e-01	5.526969e-01	5.647670e-01	5.740447e-01	5.856868e-01	5.960502e-01	6.083694e-01	6.204702e-01	6.324262e-01	6.404198e-01	6.487806e-01	6.549378e-01	6.623826e-01	6.673941e-01	6.717004e-01	6.710923e-01	6.714033e-01	6.691146e-01	6.681370e-01	6.646222e-01	6.607306e-01	6.565868e-01	6.530558e-01	6.509630e-01	6.488107e-01	6.485700e-01	6.484927e-01	6.494707e-01	6.503004e-01	6.540758e-01	6.604750e-01	6.712038e-01	6.821726e-01	6.938628e-01	7.055401e-01	7.213926e-01	7.425769e-01	7.649910e-01	7.869611e-01	8.111907e-01	8.377922e-01	8.675659e-01	9.001577e-01	9.352161e-01	9.708068e-01	1.009735e+00	1.050916e+00	1.095545e+00	1.140547e+00	1.190337e+00	1.236853e+00	1.290423e+00	1.337761e+00	1.385134e+00	1.425358e+00	1.477893e+00	1.493179e+00	1.526278e+00	1.518253e+00	1.494099e+00	1.498920e+00	1.451230e+00	1.385950e+00	1.287963e+00	1.189840e+00	1.098369e+00	1.001579e+00	9.136004e-01	8.377903e-01	7.752497e-01	7.237894e-01	6.833878e-01	6.517092e-01	6.224770e-01	5.990710e-01	5.796987e-01	5.667632e-01	5.578745e-01	5.526111e-01	5.478781e-01	5.465510e-01	5.453054e-01	5.490797e-01	5.536954e-01	5.567268e-01	5.590541e-01	5.609852e-01	5.623462e-01	5.663991e-01	5.695331e-01	5.759236e-01	5.784827e-01	5.843684e-01	5.879781e-01	5.930438e-01	5.989865e-01	6.061957e-01	6.130315e-01	6.166945e-01	6.212582e-01	6.232361e-01	6.278393e-01	6.306253e-01	6.353063e-01	6.366763e-01	6.396307e-01	6.394301e-01	6.401181e-01	6.388680e-01	6.387241e-01	6.368614e-01	6.354551e-01	6.318536e-01	6.287759e-01	6.226846e-01	6.169416e-01	6.067402e-01	5.963757e-01	5.836513e-01	5.722675e-01	5.583267e-01	5.470278e-01	5.312928e-01	5.233949e-01	5.115364e-01	5.492529e-01	6.003617e-01	8.611068e-01	1.098818e+00	1.114913e+00	1.082136e+00	1.009539e+00	1.011306e+00	1.039900e+00	1.052775e+00	1.060498e+00	1.064915e+00	1.071134e+00	1.077071e+00	1.081904e+00	1.085263e+00	1.088054e+00	1.089742e+00	1.091746e+00	1.095860e+00	1.105177e+00	1.119492e+00	1.138701e+00	1.160548e+00	1.182359e+00	1.201248e+00	1.214270e+00	1.224737e+00	1.229462e+00	1.234825e+00	1.237215e+00	1.244321e+00	1.252961e+00	1.267009e+00	1.263647e+00	
SCALARS Temperature float 1
LOOKUP_TABLE default
1.087328e+00	1.078931e+00	1.072486e+00	1.067468e+00	1.062105e+00	1.058215e+00	1.055447e+00	1.055597e+00	1.057698e+00	1.062316e+00	1.067472e+00	1.072615e+00	1.076744e+00	1.079559e+00	1.081143e+00	1.081276e+00	1.080517e+00	1.078601e+00	1.075941e+00	1.072165e+00	1.067663e+00	1.062211e+00	1.056435e+00	1.050421e+00	1.044521e+00	1.039504e+00	1.034547e+00	1.030601e+00	1.026967e+00	1.022866e+00	1.020764e+00	1.019717e+00	1.023246e+00	1.036342e+00	1.041438e+00	1.046310e+00	1.017909e+00	9.435232e-01	9.124538e-01	8.556067e-01	8.539500e-01	8.476068e-01	8.526016e-01	8.555449e-01	8.603052e-01	8.650000e-01	8.701424e-01	8.752859e-01	8.800685e-01	8.833677e-01	8.865630e-01	8.889635e-01	8.917908e-01	8.936931e-01	8.952090e-01	8.949319e-01	8.949141e-01	8.939713e-01	8.934273e-01	8.919710e-01	8.902334e-01	8.885318e-01	8.870666e-01	8.863071e-01	8.853701e-01	8.853601e-01	8.851723e-01	8.856906e-01	8.858445e-01	8.875540e-01	8.900211e-01	8.943340e-01	8.982789e-01	9.029176e-01	9.072395e-01	9.134212e-01	9.208155e-01	9.289872e-01	9.361548e-01	9.444672e-01	9.530178e-01	9.630331e-01	9.726314e-01	9.832064e-01	9.929490e-01	1.004000e+00	1.014325e+00	1.026043e+00	1.036571e+00	1.049037e+00	1.058718e+00	1.069674e+00	1.077363e+00	1.085243e+00	1.092536e+00	1.104697e+00	1.108910e+00	1.117263e+00	1.119654e+00	1.122184e+00	1.119879e+00	1.102894e+00	1.090877e+00	1.067944e+00	1.046244e+00	1.021810e+00	9.966894e-01	9.731015e-01	9.504696e-01	9.304916e-01	9.131112e-01	8.984407e-01	8.861320e-01	8.752650e-01	8.660615e-01	8.586552e-01	8.533658e-01	8.499457e-01	8.480029e-01	8.463064e-01	8.458391e-01	8.456332e-01	8.477846e-01	8.505795e-01	8.521647e-01	8.534714e-01	8.542464e-01	8.549369e-01	8.566967e-01	8.580074e-01	8.606359e-01	8.617691e-01	8.644974e-01	8.660281e-01	8.683932e-01	8.706152e-01	8.739082e-01	8.769217e-01	8.788121e-01	8.804578e-01	8.814402e-01	8.831219e-01	8.844732e-01	8.862233e-01	8.870064e-01	8.880398e-01	8.880591e-01	8.884154e-01	8.880052e-01	8.880706e-01	8.873940e-01	8.870184e-01	8.856230e-01	8.845408e-01	8.820965e-01	8.800174e-01	8.757512e-01	8.717410e-01	8.661890e-01	8.615913e-01	8.554586e-01	8.510237e-01	8.441033e-01	8.405758e-01	8.369714e-01	8.533387e-01	8.876224e-01	9.745270e-01	1.041236e+00	1.053899e+00	1.038392e+00	1.026161e+00	1.027736e+00	1.033561e+00	1.037226e+00	1.039316e+00	1.040577e+00	1.041975e+00	1.043466e+00	1.044427e+00	1.045326e+00	1.045633e+00	1.046136e+00	1.046291e+00	1.047730e+00	1.049939e+00	1.054323e+00	1.059137e+00	1.065174e+00	1.070418e+00	1.075013e+00	1.078199e+00	1.080633e+00	1.081998e+00	1.083225e+00	1.084252e+00	1.086420e+00	1.088926e+00	1.093141e+00	1.094235e+00	
SCALARS Pressure_Coefficient float 1
LOOKUP_TABLE default
6.234889e-01	5.627400e-01	5.093014e-01	4.604212e-01	4.175076e-01	3.833774e-01	3.624309e-01	3.632546e-01	3.842940e-01	4.233775e-01	4.681212e-01	5.123020e-01	5.464670e-01	5.705349e-01	5.812240e-01	5.823393e-01	5.723972e-01	5.548818e-01	5.280948e-01	4.945630e-01	4.532990e-01	4.067793e-01	3.562581e-01	3.056622e-01	2.570927e-01	2.173778e-01	1.766330e-01	1.470756e-01	1.186909e-01	8.396368e-02	6.531457e-02	4.870157e-02	7.849350e-02	1.891438e-01	2.043026e-01	3.108193e-01	-3.503712e-02	-5.112347e-01	-7.302064e-01	-9.632280e-01	-9.709025e-01	-9.984444e-01	-9.715022e-01	-9.507932e-01	-9.248063e-01	-9.016737e-01	-8.741755e-01	-8.471647e-01	-8.204772e-01	-8.026343e-01	-7.839720e-01	-7.702281e-01	-7.536102e-01	-7.424239e-01	-7.328116e-01	-7.341689e-01	-7.334748e-01	-7.385835e-01	-7.407655e-01	-7.486111e-01	-7.572978e-01	-7.665474e-01	-7.744289e-01	-7.791004e-01	-7.839047e-01	-7.844419e-01	-7.846144e-01	-7.824314e-01	-7.805794e-01	-7.721523e-01	-7.578682e-01	-7.339200e-01	-7.094363e-01	-6.833419e-01	-6.572767e-01	-6.218914e-01	-5.746052e-01	-5.245737e-01	-4.755332e-01	-4.214492e-01	-3.620711e-01	-2.956118e-01	-2.228623e-01	-1.446070e-01	-6.516330e-02	2.173008e-02	1.136507e-01	2.132706e-01	3.137203e-01	4.248586e-01	5.286903e-01	6.482650e-01	7.539317e-01	8.596744e-01	9.494596e-01	1.066726e+00	1.100845e+00	1.174728e+00	1.156816e+00	1.102900e+00	1.113662e+00	1.007210e+00	8.614960e-01	6.427739e-01	4.237496e-01	2.195741e-01	3.525344e-03	-1.928562e-01	-3.620753e-01	-5.016748e-01	-6.165415e-01	-7.067237e-01	-7.774349e-01	-8.426852e-01	-8.949308e-01	-9.381725e-01	-9.670464e-01	-9.868873e-01	-9.986360e-01	-1.009201e+00	-1.012163e+00	-1.014943e+00	-1.006519e+00	-9.962156e-01	-9.894492e-01	-9.842542e-01	-9.799438e-01	-9.769058e-01	-9.678591e-01	-9.608636e-01	-9.465991e-01	-9.408869e-01	-9.277491e-01	-9.196918e-01	-9.083845e-01	-8.951193e-01	-8.790274e-01	-8.637691e-01	-8.555926e-01	-8.454057e-01	-8.409909e-01	-8.307159e-01	-8.244971e-01	-8.140485e-01	-8.109903e-01	-8.043957e-01	-8.048436e-01	-8.033078e-01	-8.060983e-01	-8.064194e-01	-8.105773e-01	-8.137164e-01	-8.217554e-01	-8.286251e-01	-8.422220e-01	-8.550411e-01	-8.778121e-01	-9.009471e-01	-9.293498e-01	-9.547602e-01	-9.858779e-01	-1.011099e+00	-1.046222e+00	-1.063851e+00	-1.090320e+00	-1.006132e+00	-8.920499e-01	-3.100294e-01	2.205766e-01	2.565032e-01	1.833390e-01	2.129248e-02	2.523583e-02	8.906278e-02	1.178021e-01	1.350393e-01	1.448998e-01	1.587816e-01	1.720331e-01	1.828205e-01	1.903197e-01	1.965481e-01	2.003176e-01	2.047911e-01	2.139733e-01	2.347692e-01	2.667243e-01	3.095996e-01	3.583666e-01	4.070510e-01	4.492151e-01	4.782808e-01	5.016440e-01	5.121927e-01	5.241634e-01	5.294968e-01	5.453598e-01	5.646452e-01	5.960013e-01	5.884973e-01	
SCALARS Mach float 1
LOOKUP_TABLE default
4.468824e-01	4.929249e-01	5.231813e-01	5.491083e-01	5.723328e-01	5.914259e-01	6.034771e-01	6.047933e-01	5.968047e-01	5.779466e-01	5.566281e-01	5.328345e-01	5.143591e-01	4.997962e-01	4.924256e-01	4.903002e-01	4.938143e-01	5.023046e-01	5.146094e-01	5.317392e-01	5.506610e-01	5.746433e-01	5.979436e-01	6.238383e-01	6.467740e-01	6.673962e-01	6.856274e-01	7.009285e-01	7.120518e-01	7.300415e-01	7.394262e-01	7.540972e-01	7.467444e-01	6.974132e-01	6.885979e-01	6.473032e-01	7.502221e-01	9.828474e-01	1.075208e+00	1.269174e+00	1.272966e+00	1.287932e+00	1.273046e+00	1.264348e+00	1.250422e+00	1.235522e+00	1.219958e+00	1.203880e+00	1.189194e+00	1.179086e+00	1.169221e+00	1.162145e+00	1.153670e+00	1.147973e+00	1.143692e+00	1.145289e+00	1.145812e+00	1.149835e+00	1.151953e+00	1.157555e+00	1.163597e+00	1.169955e+00	1.175340e+00	1.178414e+00	1.182135e+00	1.182898e+00	1.184399e+00	1.183237e+00	1.183578e+00	1.178877e+00	1.172735e+00	1.159951e+00	1.149129e+00	1.134534e+00	1.121824e+00	1.101794e+00	1.079584e+00	1.053424e+00	1.032819e+00	1.006603e+00	9.805973e-01	9.459830e-01	9.157079e-01	8.783515e-01	8.464262e-01	8.057435e-01	7.688370e-01	7.204758e-01	6.807699e-01	6.254505e-01	5.830116e-01	5.202003e-01	4.659272e-01	3.949292e-01	3.423083e-01	2.816654e-01	2.152956e-01	1.139867e-01	4.784686e-02	1.077298e-01	1.589638e-01	2.768395e-01	4.032940e-01	5.243154e-01	6.307931e-01	7.244575e-01	8.094133e-01	8.967109e-01	9.652359e-01	1.035337e+00	1.088417e+00	1.138044e+00	1.174586e+00	1.212250e+00	1.239129e+00	1.265792e+00	1.280876e+00	1.294122e+00	1.299029e+00	1.306176e+00	1.307190e+00	1.309367e+00	1.301774e+00	1.293452e+00	1.288354e+00	1.286138e+00	1.282628e+00	1.281007e+00	1.274901e+00	1.271677e+00	1.263048e+00	1.260411e+00	1.251527e+00	1.246458e+00	1.238650e+00	1.230374e+00	1.220227e+00	1.209356e+00	1.202316e+00	1.195975e+00	1.191898e+00	1.184957e+00	1.180161e+00	1.173133e+00	1.170169e+00	1.165659e+00	1.165200e+00	1.162857e+00	1.163380e+00	1.161929e+00	1.163356e+00	1.163323e+00	1.166912e+00	1.169118e+00	1.176080e+00	1.181546e+00	1.193673e+00	1.205512e+00	1.221296e+00	1.235592e+00	1.252884e+00	1.266813e+00	1.286554e+00	1.296307e+00	1.306709e+00	1.251867e+00	1.180557e+00	8.511705e-01	6.745741e-01	6.568998e-01	6.598547e-01	7.134134e-01	7.031020e-01	6.822771e-01	6.699101e-01	6.616330e-01	6.544441e-01	6.469165e-01	6.393437e-01	6.339205e-01	6.291334e-01	6.262256e-01	6.235257e-01	6.208247e-01	6.151288e-01	6.035165e-01	5.855167e-01	5.614920e-01	5.367417e-01	5.098033e-01	4.892468e-01	4.712100e-01	4.600878e-01	4.512750e-01	4.449923e-01	4.362075e-01	4.264173e-01	4.126260e-01	3.954489e-01	3.898942e-01	