# vtk DataFile Version 3.0
vtk output
ASCII
DATASET UNSTRUCTURED_GRID
POINTS 5233 float
9.997500e-01	-3.633650e-05	0.0	9.990000e-01	-1.457287e-04	0.0	9.977600e-01	-3.303104e-04	0.0	9.960200e-01	-6.049839e-04	0.0	9.937800e-01	-1.001065e-03	0.0	9.910500e-01	-1.569525e-03	0.0	9.878400e-01	-2.375117e-03	0.0	9.841300e-01	-3.485161e-03	0.0	9.799500e-01	-4.916644e-03	0.0	9.752800e-01	-6.637404e-03	0.0	9.701500e-01	-8.524346e-03	0.0	9.645400e-01	-1.042084e-02	0.0	9.584700e-01	-1.215204e-02	0.0	9.519400e-01	-1.360063e-02	0.0	9.449600e-01	-1.473324e-02	0.0	9.375400e-01	-1.560648e-02	0.0	9.296900e-01	-1.633786e-02	0.0	9.214000e-01	-1.706359e-02	0.0	9.127000e-01	-1.789381e-02	0.0	9.035800e-01	-1.889618e-02	0.0	8.940600e-01	-2.008403e-02	0.0	8.841500e-01	-2.142895e-02	0.0	8.738500e-01	-2.287728e-02	0.0	8.631800e-01	-2.436202e-02	0.0	8.521600e-01	-2.581899e-02	0.0	8.407700e-01	-2.720029e-02	0.0	8.290500e-01	-2.846565e-02	0.0	8.170100e-01	-2.959488e-02	0.0	8.046400e-01	-3.058339e-02	0.0	7.919700e-01	-3.143434e-02	0.0	7.790100e-01	-3.216051e-02	0.0	7.657800e-01	-3.277855e-02	0.0	7.522800e-01	-3.330745e-02	0.0	7.385200e-01	-3.376479e-02	0.0	7.245300e-01	-3.416540e-02	0.0	7.103200e-01	-3.452185e-02	0.0	6.958900e-01	-3.484376e-02	0.0	6.812700e-01	-3.513733e-02	0.0	6.664700e-01	-3.540710e-02	0.0	6.515000e-01	-3.565627e-02	0.0	6.363800e-01	-3.588727e-02	0.0	6.211300e-01	-3.610266e-02	0.0	6.057600e-01	-3.630568e-02	0.0	5.902800e-01	-3.650034e-02	0.0	5.747100e-01	-3.669142e-02	0.0	5.590600e-01	-3.688453e-02	0.0	5.433600e-01	-3.708545e-02	0.0	5.276100e-01	-3.730043e-02	0.0	5.118400e-01	-3.753493e-02	0.0	4.960500e-01	-3.779405e-02	0.0	4.802700e-01	-3.808130e-02	0.0	4.645100e-01	-3.839902e-02	0.0	4.487800e-01	-3.874793e-02	0.0	4.331100e-01	-3.912653e-02	0.0	4.175000e-01	-3.953226e-02	0.0	4.019700e-01	-3.996038e-02	0.0	3.865400e-01	-4.040461e-02	0.0	3.712300e-01	-4.085730e-02	0.0	3.560400e-01	-4.131039e-02	0.0	3.409900e-01	-4.175442e-02	0.0	3.261100e-01	-4.217914e-02	0.0	3.114000e-01	-4.257495e-02	0.0	2.968700e-01	-4.293194e-02	0.0	2.825500e-01	-4.323994e-02	0.0	2.684500e-01	-4.348975e-02	0.0	2.545700e-01	-4.367277e-02	0.0	2.409400e-01	-4.378060e-02	0.0	2.275700e-01	-4.380595e-02	0.0	2.144700e-01	-4.374222e-02	0.0	2.016600e-01	-4.358371e-02	0.0	1.891400e-01	-4.332525e-02	0.0	1.769300e-01	-4.296279e-02	0.0	1.650400e-01	-4.249288e-02	0.0	1.534900e-01	-4.191342e-02	0.0	1.422900e-01	-4.122283e-02	0.0	1.314400e-01	-4.041955e-02	0.0	1.209500e-01	-3.950325e-02	0.0	1.108500e-01	-3.847664e-02	0.0	1.011300e-01	-3.733954e-02	0.0	9.181000e-02	-3.609579e-02	0.0	8.290000e-02	-3.474934e-02	0.0	7.440000e-02	-3.330349e-02	0.0	6.633000e-02	-3.176595e-02	0.0	5.869000e-02	-3.014206e-02	0.0	5.149000e-02	-2.843998e-02	0.0	4.474000e-02	-2.666920e-02	0.0	3.844000e-02	-2.483741e-02	0.0	3.260000e-02	-2.295573e-02	0.0	2.723000e-02	-2.103638e-02	0.0	2.232000e-02	-1.908431e-02	0.0	1.790000e-02	-1.712037e-02	0.0	1.395000e-02	-1.514386e-02	0.0	1.049000e-02	-1.317093e-02	0.0	7.520000e-03	-1.120665e-02	0.0	5.040000e-03	-9.251660e-03	0.0	3.050000e-03	-7.299161e-03	0.0	1.560000e-03	-5.343803e-03	0.0	5.600000e-04	-3.333343e-03	0.0	6.000000e-05	-1.182547e-03	0.0	0.000000e+00	0.000000e+00	0.0	6.000000e-05	1.143813e-03	0.0	5.600000e-04	3.137709e-03	0.0	1.560000e-03	4.924243e-03	0.0	3.050000e-03	6.604230e-03	0.0	5.040000e-03	8.237673e-03	0.0	7.520000e-03	9.840581e-03	0.0	1.049000e-02	1.142852e-02	0.0	1.395000e-02	1.300974e-02	0.0	1.790000e-02	1.458810e-02	0.0	2.232000e-02	1.615795e-02	0.0	2.723000e-02	1.772651e-02	0.0	3.260000e-02	1.928309e-02	0.0	3.844000e-02	2.082919e-02	0.0	4.474000e-02	2.235975e-02	0.0	5.149000e-02	2.386995e-02	0.0	5.869000e-02	2.535712e-02	0.0	6.633000e-02	2.681644e-02	0.0	7.440000e-02	2.824340e-02	0.0	8.290000e-02	2.963545e-02	0.0	9.181000e-02	3.098698e-02	0.0	1.011300e-01	3.229593e-02	0.0	1.108500e-01	3.355895e-02	0.0	1.209500e-01	3.477193e-02	0.0	1.314400e-01	3.593470e-02	0.0	1.422900e-01	3.704282e-02	0.0	1.534900e-01	3.809473e-02	0.0	1.650400e-01	3.908997e-02	0.0	1.769300e-01	4.002736e-02	0.0	1.891400e-01	4.090535e-02	0.0	2.016600e-01	4.172353e-02	0.0	2.144700e-01	4.248114e-02	0.0	2.275700e-01	4.317881e-02	0.0	2.409400e-01	4.381617e-02	0.0	2.545700e-01	4.439353e-02	0.0	2.684500e-01	4.491118e-02	0.0	2.825500e-01	4.536874e-02	0.0	2.968700e-01	4.576687e-02	0.0	3.114000e-01	4.610565e-02	0.0	3.261100e-01	4.638460e-02	0.0	3.409900e-01	4.660360e-02	0.0	3.560400e-01	4.676232e-02	0.0	3.712300e-01	4.685987e-02	0.0	3.865400e-01	4.689540e-02	0.0	4.019700e-01	4.686786e-02	0.0	4.175000e-01	4.677596e-02	0.0	4.331100e-01	4.661831e-02	0.0	4.487800e-01	4.639349e-02	0.0	4.645100e-01	4.609961e-02	0.0	4.802700e-01	4.573515e-02	0.0	4.960500e-01	4.529816e-02	0.0	5.118400e-01	4.478650e-02	0.0	5.276100e-01	4.419861e-02	0.0	5.433600e-01	4.353184e-02	0.0	5.590600e-01	4.278478e-02	0.0	5.747100e-01	4.195480e-02	0.0	5.902800e-01	4.104119e-02	0.0	6.057600e-01	4.004280e-02	0.0	6.211300e-01	3.896011e-02	0.0	6.363800e-01	3.779424e-02	0.0	6.515000e-01	3.654793e-02	0.0	6.664700e-01	3.522675e-02	0.0	6.812700e-01	3.383865e-02	0.0	6.958900e-01	3.239294e-02	0.0	7.103200e-01	3.090085e-02	0.0	7.245300e-01	2.937720e-02	0.0	7.385200e-01	2.783430e-02	0.0	7.522800e-01	2.628506e-02	0.0	7.657800e-01	2.474313e-02	0.0	7.790100e-01	2.321734e-02	0.0	7.919700e-01	2.171194e-02	0.0	8.046400e-01	2.022980e-02	0.0	8.170100e-01	1.876900e-02	0.0	8.290500e-01	1.732706e-02	0.0	8.407700e-01	1.589468e-02	0.0	8.521600e-01	1.446362e-02	0.0	8.631800e-01	1.302908e-02	0.0	8.738500e-01	1.157873e-02	0.0	8.841500e-01	1.010642e-02	0.0	8.940600e-01	8.609584e-03	0.0	9.035800e-01	7.090401e-03	0.0	9.127000e-01	5.566798e-03	0.0	9.214000e-01	4.080185e-03	0.0	9.296900e-01	2.692876e-03	0.0	9.375400e-01	1.495699e-03	0.0	9.449600e-01	5.786308e-04	0.0	9.519400e-01	1.362684e-05	0.0	9.584700e-01	-1.789011e-04	0.0	9.645400e-01	-4.856036e-05	0.0	9.701500e-01	2.914896e-04	0.0	9.752800e-01	6.941634e-04	0.0	9.799500e-01	1.026684e-03	0.0	9.841300e-01	1.201504e-03	0.0	9.878400e-01	1.197585e-03	0.0	9.910500e-01	1.047349e-03	0.0	9.937800e-01	8.110642e-04	0.0	9.960200e-01	5.521946e-04	0.0	9.977600e-01	3.205093e-04	0.0	9.990000e-01	1.448337e-04	0.0	9.997500e-01	3.632231e-05	0.0	1.000000e+00	0.000000e+00	0.0	1.984229e+01	2.506660e+00	0.0	1.937166e+01	4.973800e+00	0.0	1.859553e+01	7.362490e+00	0.0	1.752613e+01	9.635070e+00	0.0	1.618034e+01	1.175571e+01	0.0	1.457937e+01	1.369094e+01	0.0	1.274848e+01	1.541027e+01	0.0	1.071654e+01	1.688656e+01	0.0	8.515590e+00	1.809654e+01	0.0	6.180340e+00	1.902113e+01	0.0	3.747630e+00	1.964575e+01	0.0	1.255810e+00	1.996053e+01	0.0	-1.255810e+00	1.996053e+01	0.0	-3.747630e+00	1.964574e+01	0.0	-6.180340e+00	1.902113e+01	0.0	-8.515590e+00	1.809654e+01	0.0	-1.071654e+01	1.688656e+01	0.0	-1.274848e+01	1.541026e+01	0.0	-1.457937e+01	1.369094e+01	0.0	-1.618034e+01	1.175570e+01	0.0	-1.752613e+01	9.635070e+00	0.0	-1.859553e+01	7.362490e+00	0.0	-1.937166e+01	4.973800e+00	0.0	-1.984229e+01	2.506660e+00	0.0	-2.000000e+01	0.000000e+00	0.0	-1.984229e+01	-2.506670e+00	0.0	-1.937166e+01	-4.973800e+00	0.0	-1.859553e+01	-7.362490e+00	0.0	-1.752613e+01	-9.635080e+00	0.0	-1.618034e+01	-1.175571e+01	0.0	-1.457937e+01	-1.369094e+01	0.0	-1.274848e+01	-1.541027e+01	0.0	-1.071653e+01	-1.688656e+01	0.0	-8.515580e+00	-1.809654e+01	0.0	-6.180340e+00	-1.902113e+01	0.0	-3.747620e+00	-1.964575e+01	0.0	-1.255810e+00	-1.996053e+01	0.0	1.255810e+00	-1.996053e+01	0.0	3.747630e+00	-1.964574e+01	0.0	6.180340e+00	-1.902113e+01	0.0	8.515590e+00	-1.809654e+01	0.0	1.071654e+01	-1.688656e+01	0.0	1.274848e+01	-1.541026e+01	0.0	1.457937e+01	-1.369094e+01	0.0	1.618034e+01	-1.175570e+01	0.0	1.752614e+01	-9.635070e+00	0.0	1.859553e+01	-7.362490e+00	0.0	1.937166e+01	-4.973790e+00	0.0	1.984229e+01	-2.506660e+00	0.0	2.000000e+01	0.000000e+00	0.0	6.108363e-02	-3.783355e-02	0.0	6.595809e-01	-4.932240e-02	0.0	4.256123e-01	6.091732e-02	0.0	6.897905e-01	4.636021e-02	0.0	3.792400e-01	-5.491047e-02	0.0	9.994685e-01	-7.277937e-04	0.0	9.985577e-01	-1.337513e-03	0.0	7.733677e-01	-4.440357e-02	0.0	6.892533e-01	-4.842757e-02	0.0	-8.144337e-04	4.864526e-03	0.0	7.462583e-01	-4.604075e-02	0.0	5.833888e-01	5.557868e-02	0.0	9.928491e-01	-3.877460e-03	0.0	9.899909e-01	-5.024879e-03	0.0	5.989631e-01	5.453371e-02	0.0	7.181876e-01	-4.735034e-02	0.0	-1.240032e-03	5.770031e-04	0.0	9.866559e-01	-6.408999e-03	0.0	9.828482e-01	-8.039620e-03	0.0	-8.870276e-04	-5.208185e-03	0.0	6.445079e-01	-4.971492e-02	0.0	8.242201e-01	-3.977338e-02	0.0	7.993879e-01	-4.235027e-02	0.0	3.485219e-01	6.043838e-02	0.0	8.477158e-01	-3.670719e-02	0.0	2.473440e-01	5.659391e-02	0.0	8.698085e-01	-3.330604e-02	0.0	1.064683e-02	1.547244e-02	0.0	8.903966e-01	-2.989095e-02	0.0	7.735055e-02	-4.168345e-02	0.0	9.094254e-01	-2.679675e-02	0.0	-1.448156e-03	-2.610478e-03	0.0	9.425545e-01	-2.141358e-02	0.0	9.268375e-01	-2.409822e-02	0.0	1.838283e-02	-2.214427e-02	0.0	4.257265e-01	-5.391211e-02	0.0	8.589467e-01	-3.502899e-02	0.0	9.564856e-01	-1.813963e-02	0.0	9.785551e-01	-9.926981e-03	0.0	9.685093e-01	-1.410307e-02	0.0	1.586123e-01	-5.270626e-02	0.0	9.001113e-01	-2.828963e-02	0.0	7.599435e-01	-4.526882e-02	0.0	9.971445e-01	-2.110721e-03	0.0	5.985220e-01	-5.071795e-02	0.0	4.413824e-01	-5.358169e-02	0.0	5.359596e-01	-5.181493e-02	0.0	4.728573e-01	-5.294960e-02	0.0	5.044179e-01	-5.236302e-02	0.0	4.886263e-01	-5.264961e-02	0.0	1.252820e-01	-4.944876e-02	0.0	2.825025e-02	-2.688567e-02	0.0	3.946434e-01	-5.458267e-02	0.0	4.658159e-02	-3.365402e-02	0.0	4.101402e-01	-5.424857e-02	0.0	3.189729e-01	-5.601252e-02	0.0	3.488065e-01	-5.552437e-02	0.0	3.389753e-02	-2.918334e-02	0.0	2.898179e-01	-5.631447e-02	0.0	9.349137e-01	-2.279225e-02	0.0	1.471476e-01	-5.173725e-02	0.0	1.950061e-01	-5.489180e-02	0.0	8.612181e-02	-4.346063e-02	0.0	1.049133e-01	-4.669279e-02	0.0	5.673691e-01	-5.128806e-02	0.0	1.704205e-01	-5.355601e-02	0.0	6.139703e-01	-5.040622e-02	0.0	8.802983e-01	-3.157814e-02	0.0	2.308914e-02	-2.453455e-02	0.0	9.952399e-01	-2.932833e-03	0.0	7.198724e-03	-1.493388e-02	0.0	1.861496e-02	1.952917e-02	0.0	9.183360e-01	-2.541071e-02	0.0	9.497
[...]
POINT_DATA 5233

SCALARS Conservative_1 float 1
LOOKUP_TABLE default
1.193733e+00	1.179270e+00	1.173168e+00	1.171366e+00	1.170665e+00	1.168106e+00	1.159609e+00	1.142122e+00	1.112733e+00	1.070652e+00	1.015835e+00	9.393540e-01	8.655808e-01	8.417721e-01	8.621124e-01	9.018273e-01	9.421400e-01	9.706603e-01	9.851512e-01	9.875144e-01	9.801228e-01	9.653864e-01	9.464564e-01	9.249225e-01	8.997283e-01	8.708738e-01	8.449669e-01	8.307314e-01	8.293593e-01	8.369585e-01	8.488890e-01	8.618896e-01	8.742684e-01	8.851783e-01	8.945479e-01	9.024816e-01	9.092204e-01	9.150414e-01	9.201385e-01	9.247702e-01	9.290569e-01	9.331494e-01	9.370656e-01	9.408396e-01	9.443998e-01	9.477035e-01	9.506313e-01	9.531150e-01	9.550574e-01	9.563838e-01	9.570345e-01	9.569451e-01	9.560742e-01	9.544423e-01	9.519522e-01	9.487889e-01	9.446137e-01	9.397344e-01	9.337909e-01	9.271535e-01	9.200687e-01	9.120574e-01	9.035898e-01	8.947138e-01	8.872242e-01	8.809720e-01	8.729695e-01	8.574239e-01	8.326791e-01	8.079270e-01	7.935846e-01	7.903882e-01	7.939125e-01	8.003126e-01	8.076777e-01	8.156426e-01	8.244916e-01	8.345705e-01	8.458446e-01	8.582513e-01	8.717960e-01	8.864315e-01	9.021981e-01	9.190824e-01	9.371193e-01	9.563885e-01	9.768881e-01	9.987194e-01	1.022053e+00	1.046919e+00	1.073642e+00	1.102684e+00	1.134420e+00	1.169845e+00	1.209830e+00	1.254273e+00	1.299799e+00	1.345283e+00	1.350359e+00	1.328568e+00	1.306137e+00	1.237724e+00	1.117538e+00	1.036933e+00	9.858549e-01	9.547158e-01	9.348032e-01	9.203243e-01	9.083834e-01	8.979960e-01	8.886462e-01	8.799070e-01	8.716917e-01	8.638206e-01	8.562736e-01	8.490767e-01	8.421319e-01	8.353617e-01	8.288218e-01	8.225630e-01	8.166806e-01	8.111468e-01	8.058317e-01	8.006586e-01	7.957447e-01	7.912926e-01	7.873545e-01	7.837511e-01	7.803450e-01	7.772214e-01	7.745529e-01	7.724144e-01	7.707139e-01	7.693032e-01	7.680670e-01	7.669694e-01	7.661731e-01	7.658186e-01	7.657114e-01	7.644011e-01	7.602523e-01	7.556252e-01	7.626316e-01	7.985786e-01	8.535326e-01	8.869514e-01	8.900100e-01	8.800129e-01	8.713487e-01	8.692143e-01	8.716276e-01	8.745582e-01	8.770721e-01	8.793098e-01	8.829296e-01	8.896066e-01	8.974530e-01	9.059980e-01	9.142776e-01	9.209482e-01	9.286727e-01	9.373184e-01	9.468119e-01	9.570031e-01	9.664898e-01	9.754466e-01	9.837707e-01	9.914336e-01	9.983489e-01	1.004535e+00	1.010056e+00	1.015098e+00	1.019890e+00	1.024714e+00	1.029885e+00	1.035773e+00	1.042775e+00	1.051414e+00	1.062197e+00	1.075631e+00	1.091749e+00	1.109947e+00	1.128647e+00	1.145793e+00	1.159004e+00	1.165997e+00	1.164788e+00	1.154113e+00	1.133868e+00	1.106377e+00	1.077772e+00	1.055729e+00	1.047582e+00	1.056398e+00	1.077953e+00	1.104558e+00	1.131134e+00	1.157166e+00	1.185302e+00	1.174446e+00	9.999710e-01	9.999762e-01	9.999691e-01	9.999529e-01	9.999387e-01	9.999209e-01	9.998883e-01	9.998510e-01	9.998029e-01	9.997623e-01	9.997334e-01	9.997387e-01	9.997780e-01	9.998613e-01	9.999336e-01	9.999925e-01	1.000025e+00	1.000044e+00	1.000055e+00	1.000060e+00	1.000061e+00	1.000062e+00	1.000062e+00	1.000063e+00	1.000064e+00	1.000066e+00	1.000070e+00	1.000076e+00	1.000083e+00	1.000094e+00	1.000105e+00	1.000122e+00	1.000136e+00	1.000156e+00	1.000168e+00	1.000171e+00	1.000165e+00	1.000148e+00	1.000135e+00	1.000122e+00	1.000117e+00	1.000108e+00	1.000098e+00	1.000085e+00	1.000070e+00	1.000051e+00	1.000041e+00	1.000036e+00	1.000000e+00	9.999680e-01	9.250961e-01	9.237328e-01	8.811668e-01	9.448727e-01	9.423730e-01	1.178908e+00	1.172623e+00	8.617026e-01	9.138704e-01	1.231837e+00	8.838657e-01	8.900840e-01	1.159353e+00	1.152258e+00	8.969167e-01	9.011090e-01	1.322583e+00	1.139735e+00	1.119378e+00	1.323504e+00	9.280228e-01	8.451291e-01	8.408747e-01	7.668825e-01	8.932634e-01	7.743988e-01	9.391338e-01	9.653719e-01	9.700567e-01	8.925534e-01	9.809272e-01	1.344475e+00	8.981103e-01	9.567559e-01	1.079194e+00	9.525582e-01	9.188595e-01	8.806701e-01	1.089980e+00	9.993252e-01	8.059538e-01	9.792369e-01	8.732630e-01	1.166715e+00	9.395308e-01	9.545242e-01	9.515964e-01	9.561965e-01	9.550911e-01	9.559778e-01	8.306979e-01	1.027628e+00	9.464998e-01	9.621938e-01	9.499774e-01	9.175777e-01	9.312160e-01	1.004388e+00	9.012284e-01	9.300121e-01	8.135542e-01	8.043271e-01	8.779409e-01	8.519547e-01	9.462062e-01	7.997279e-01	9.358768e-01	9.560079e-01	1.052486e+00	1.163418e+00	1.173963e+00	9.286193e-01	9.737625e-01	8.753905e-01	1.052095e+00	1.153883e+00	8.653811e-01	8.827660e-01	9.491019e-01	8.931281e-01	8.501626e-01	8.406998e-01	8.503194e-01	9.429914e-01	9.190728e-01	9.430574e-01	1.211465e+00	1.108063e+00	9.371612e-01	7.977376e-01	1.203642e+00	8.719716e-01	8.644104e-01	9.097838e-01	8.879446e-01	9.557072e-01	9.079640e-01	1.294578e+00	1.291111e+00	8.801020e-01	1.335318e+00	9.029997e-01	8.649001e-01	8.825051e-01	8.162029e-01	8.272302e-01	1.122702e+00	8.765601e-01	8.782746e-01	1.114643e+00	1.144670e+00	1.059337e+00	8.722362e-01	8.982576e-01	7.589226e-01	1.114963e+00	1.084350e+00	8.418746e-01	1.094262e+00	1.150053e+00	1.141333e+00	8.282390e-01	8.568763e-01	7.704184e-01	7.729047e-01	7.914706e-01	7.693825e-01	8.906545e-01	7.751449e-01	8.000583e-01	8.105457e-01	9.145585e-01	7.841266e-01	7.782996e-01	9.288044e-01	8.847464e-01	9.809642e-01	9.638518e-01	1.008030e+00	9.956945e-01	1.029110e+00	1.018635e+00	1.070870e+00	1.041747e+00	1.148646e+00	1.099392e+00	1.132466e+00	1.034999e+00	1.049741e+00	1.013464e+00	1.023760e+00	9.886175e-01	1.002164e+00	9.544799e-01	9.727140e-01	9.215640e-01	9.365314e-01	8.825332e-01	9.052561e-01	7.809585e-01	7.761560e-01	7.955463e-01	7.876798e-01	8.733989e-01	8.051123e-01	9.449385e-01	8.923215e-01	8.233837e-01	1.031380e+00	9.290325e-01	8.376407e-01	9.248436e-01	9.536238e-01	1.085405e+00	9.148980e-01	9.926120e-01	8.348524e-01	8.492133e-01	7.715519e-01	8.220565e-01	1.076409e+00	1.066494e+00	7.696398e-01	1.068302e+00	1.081071e+00	7.691173e-01	7.614868e-01	1.129539e+00	1.200969e+00	1.145452e+00	1.165690e+00	9.320452e-01	9.826141e-01	1.100734e+00	8.732961e-01	1.251732e+00	1.139578e+00	9.082601e-01	8.217788e-01	8.935626e-01	8.568467e-01	1.210837e+00	1.267796e+00	9.003155e-01	9.127600e-01	9.725922e-01	1.167925e+00	8.920722e-01	9.180232e-01	8.627139e-01	1.134802e+00	9.225959e-01	9.135063e-01	8.666820e-01	8.849251e-01	1.297308e+00	8.430527e-01	1.107593e+00	9.362833e-01	8.206706e-01	9.067213e-01	9.270386e-01	9.542338e-01	8.993584e-01	9.442599e-01	9.707471e-01	8.538301e-01	1.015405e+00	9.457515e-01	9.362074e-01	1.028087e+00	8.281935e-01	9.439441e-01	8.006846e-01	1.048126e+00	1.080277e+00	7.722994e-01	8.791572e-01	1.135735e+00	1.056744e+00	1.085989e+00	1.134302e+00	1.091229e+00	7.806936e-01	7.735014e-01	7.829446e-01	8.346771e-01	9.227584e-01	8.213284e-01	9.869776e-01	8.103274e-01	8.831978e-01	1.117348e+00	1.098522e+00	1.066697e+00	8.131510e-01	1.209066e+00	1.132655e+00	1.114651e+00	1.052055e+00	1.151897e+00	1.200839e+00	1.332184e+00	1.323198e+00	1.080300e+00	1.210885e+00	9.312974e-01	1.163031e+00	1.152517e+00	8.619497e-01	9.500833e-01	1.119107e+00	9.483251e-01	8.983281e-01	1.145501e+00	1.322677e+00	9.527648e-01	8.061543e-01	8.896690e-01	7.756518e-01	9.329440e-01	9.613122e-01	9.148070e-01	9.749995e-01	9.628745e-01	9.074223e-01	1.031015e+00	9.071289e-01	9.864803e-01	1.096748e+00	8.381830e-01	8.828340e-01	8.729210e-01	1.157838e+00	9.550474e-01	9.552095e-01	9.547357e-01	1.054961e+00	9.477595e-01	9.505667e-01	9.289623e-01	9.874692e-01	9.461045e-01	9.251052e-01	8.291343e-01	8.715090e-01	9.476064e-01	9.383352e-01	1.032630e+00	1.068048e+00	8.998448e-01	8.919250e-01	8.592561e-01	8.481515e-01	9.447885e-01	9.416662e-01	9.676518e-01	9.489382e-01	1.136663e+00	9.346950e-01	9.398102e-01	8.084548e-01	8.097204e-01	8.663816e-01	8.814315e-01	9.080818e-01	9.155615e-01	8.887139e-01	1.307227e+00	1.235388e+00	8.932176e-01	1.082130e+00	8.826076e-01	8.770192e-01	8.785830e-01	8.861938e-01	1.104133e+00	1.127966e+00	1.102888e+00	8.959980e-01	8.942359e-01	7.707147e-01	1.090238e+00	1.132465e+00	8.651043e-01	8.738664e-01	7.787802e-01	7.771065e-01	8.052809e-01	8.159842e-01	8.219897e-01	1.005852e+00	9.783988e-01	9.702816e-01	9.997485e-01	1.022534e+00	1.077931e+00	1.040622e+00	1.034029e+00	1.017143e+00	1.011644e+00	9.931111e-01	9.859913e-01	9.615744e-01	9.527463e-01	9.290355e-01	9.224044e-01	8.878193e-01	8.852168e-01	9.141873e-01	9.059521e-01	7.855793e-01	7.887251e-01	7.923494e-01	7.964011e-01	9.644414e-01	9.042112e-01	9.164333e-01	8.490566e-01	8.524090e-01	9.537114e-01	9.521299e-01	1.098540e+00	9.300807e-01	8.415872e-01	8.489792e-01	7.738180e-01	7.744797e-01	7.640925e-01	7.685935e-01	1.125193e+00	1.114933e+00	9.347749e-01	9.310423e-01	1.008522e+00	1.269210e+00	8.939050e-01	1.296148e+00	9.457448e-01	9.069316e-01	8.666581e-01	9.507054e-01	9.663599e-01	1.091637e+00	1.088835e+00	1.121098e+00	1.105358e+00	1.099940e+00	1.150145e+00	1.175029e+00	1.153013e+00	1.194476e+00	1.081414e+00	1.285558e+00	8.928037e-01	9.566972e-01	1.131551e+00	8.952514e-01	1.170600e+00	1.190778e+00	9.119103e-01	1.249235e+00	9.059924e-01	1.106589e+00	9.435326e-01	1.161586e+00	9.269113e-01	9.290645e-01	9.172031e-01	1.140919e+00	1.133561e+00	1.098157e+00	8.853557e-01	1.123246e+00	9.371119e-01	1.111800e+00	8.828756e-01	7.815474e-01	7.775511e-01	8.111045e-01	8.734252e-01	1.163702e+00	1.271626e+00	1.193944e+00	9.796435e-01	1.244773e+00	9.835917e-01	9.070039e-01	1.314678e+00	8.284214e-01	9.538673e-01	1.057464e+00	1.030742e+00	1.026986e+00	1.004001e+00	9.441296e-01	1.091337e+00	1.123937e+00	1.062794e+00	1.054032e+00	7.782718e-01	7.800371e-01	7.878370e-01	8.415936e-01	9.262106e-01	9.219189e-01	8.381185e-01	1.002932e+00	8.161253e-01	1.106805e+00	1.123714e+00	1.064807e+00	1.149587e+00	1.220345e+00	1.308334e+00	1.034519e+00	1.179871e+00	1.173773e+00	1.022066e+00	1.119285e+00	9.000486e-01	9.528091e-01	8.394467e-01	8.887557e-01	9.103069e-01	9.553767e-01	9.647572e-01	9.382845e-01	9.221830e-01	9.703450e-01	9.710480e-01	9.306024e-01	9.479001e-01	1.102665e+00	8.830393e-01	8.744486e-01	1.146734e+00	9.543557e-01	9.542172e-01	9.488145e-01	9.510791e-01	1.013113e+00	9.436335e-01	9.321725e-01	8.464140e-01	8.370613e-01	9.486403e-01	9.462233e-01	1.053950e+00	1.080644e+00	8.992230e-01	8.915499e-01	8.796164e-01	8.672780e-01	8.562171e-01	9.434752e-01	9.404803e-01	9.930573e-01	9.738077e-01	9.554605e-01	9.325994e-01	9.377242e-01	9.421052e-01	8.218433e-01	8.190689e-01	8.236296e-01	8.595751e-01	8.782385e-01	9.140822e-01	9.208628e-01	8.891273e-01	9.035554e-01	8.821677e-01	8.859067e-01	1.115044e+00	8.940499e-01	8.992363e-01	8.843231e-01	7.914520e-01	1.093220e+00	8.828076e-01	8.928370e-01	7.833378e-01	7.854366e-01	8.216434e-01	8.280538e-01	8.348238e-01	9.766075e-01	1.082750e+00	1.072375e+00	1.046191e+00	1.039195e+00	1.032936e+00	1.021257e+00	1.015673e+00	1.009961e+00	9.977958e-01	9.911434e-01	9.840700e-01	9.687402e-01	9.604059e-01	9.521908e-01	9.299040e-01	8.911580e-01	8.883146e-01	9.229851e-01	9.148082e-01	9.073124e-01	7.906198e-01	7.937489e-01	7.974111e-01	8.015841e-01	8.062607e-01	9.152534e-01	9.284722e-01	8.613608e-01	8.618758e-01	8.707965e-01	9.535501e-01	9.523457e-01	9.433525e-01	9.600644e-01	8.486813e-01	8.563944e-01	8.646358e-01	7.789126e-01	7.716973e-01	7.717706e-01	7.753937e-01	1.119192e+00	1.112314e+00	1.103405e+00	9.372412e-01	9.338137e-01	9.301364e-01	8.950106e-01	9.005187e-01	1.271270e+00	9.012635e-01	1.118359e+00	1.096488e+00	9.494781e-01	1.259483e+00	1.157646e+00	9.633568e-01	9.564617e-01	1.037400e+00	1.100957e+00	8.873137e-01	1.248567e+00	1.015970e+00	1.178916e+00	1.113397e+00	1.108843e+00	1.179222e+00	9.379502e-01	1.143725e+00	1.180010e+00	1.180785e+00	8.724796e-01	8.385356e-01	1.081670e+00	9.469735e-01	9.152205e-01	9.525129e-01	9.132975e-01	1.094452e+00	8.983463e-01	1.113897e+00	1.111969e+00	1.002569e+00	8.231128e-01	7.888704e-01	1.118289e+00	8.917112e-01	9.411104e-01	1.136315e+00	1.095790e+00	1.143006e+00	1.043955e+00	1.104456e+00	9.165923e-01	1.204523e+00	9.117987e-01	9.055370e-01	1.128860e+00	1.128434e+00	1.153861e+00	1.025490e+00	8.878882e-01	7.842530e-01	1.221110e+00	1.042423e+00	9.455984e-01	1.059591e+00	7.834165e-01	7.854161e-01	7.869137e-01	9.254919e-01	9.215514e-01	1.100889e+00	1.072533e+00	1.107228e+00	1.229018e+00	1.284069e+00	1.059044e+00	1.017076e+00	1.104941e+00	9.033854e-01	9.105903e-01	9.273864e-01	9.519136e-01	9.606724e-01	9.455375e-01	9.299548e-01	9.665634e-01	9.692478e-01	9.680666e-01	9.630970e-01	9.877013e-01	8.843348e-01	8.792917e-01	1.136619e+00	9.532937e-01	9.534874e-01	9.494734e-01	9.512453e-01	9.504602e-01	9.508072e-01	8.559242e-01	8.459942e-01	9.474231e-01	1.067489e+00	1.088074e+00	8.997467e-01	8.918114e-01	8.881606e-01	8.762598e-01	8.658576e-01	9.450387e-01	9.424399e-01	1.017791e+00	9.984745e-01	9.795557e-01	9.618711e-01	9.308531e-01	9.358190e-01	9.401167e-01	9.439573e-01	8.336222e-01	8.333827e-01	8.404385e-01	8.556323e-01	8.737001e-01	9.254282e-01	9.194023e-01	8.877802e-01	8.881293e-01	1.106060e+00	1.110585e+00	8.926022e-01	8.986616e-01	8.944254e-01	8.675448e-01	8.225898e-01	9.025082e-01	9.141890e-01	7.910447e-01	7.937241e-01	8.286471e-01	8.346505e-01	8.417673e-01	8.492075e-01	1.085432e+00	1.076615e+00	1.067961e+00	1.051768e+00	1.044684e+00	1.038197e+00	1.031402e+00	1.020530e+00	1.014154e+00	1.008406e+00	9.961005e-01	9.896820e-01	9.824913e-01	9.754667e-01	9.673003e-01	9.599570e-01	9.519489e-01	8.915795e-01	8.939154e-01	9.311083e-01	9.233368e-01	9.163949e-01	9.084292e-01	7.966009e-01	7.999326e-01	8.033918e-01	8.074574e-01	8.120727e-01	8.173394e-01	9.264124e-01	9.399644e-01	8.736039e-01	8.789923e-01	8.921787e-01	9.531305e-01	9.524553e-01	9.510785e-01	9.557506e-01	9.732912e-01	9.928697e-01	8.565960e-01	8.642747e-01	8.728886e-01	8.820359e-01	7.894042e-01	7.791474e-01	7.800225e-01	7.820720e-01	1.093874e+00	1.107647e+00	1.101595e+00	9.394479e-01	9.364615e-01	9.329730e-01	9.295852e-01	8.960001e-01	9.017528e-01	9.070833e-01	1.124019e+00	1.115176e+00	1.038861e+00	1.170902e+00	1.146351e+00	9.094455e-01	9.104276e-01	1.168199e+00	1.098105e+00	1.211065e+00	1.060137e+00	8.514333e-01	8.370561e-01	1.051192e+00	1.137809e+00	1.230867e+00	1.290550e+00	1.291586e+00	1.276950e+00	1.228402e+00	1.137325e+00	7.902277e-01	1.058762e+00	1.117330e+00	9.650093e-01	8.846686e-01	9.480828e-01	1.106626e+00	1.086753e+00	1.102175e+00	8.984922e-01	8.928982e-01	9.423312e-01	9.978309e-01	8.936400e-01	9.492237e-01	7.881802e-01	1.101370e+00	9.240491e-01	1.157182e+00	1.097032e+00	1.285365e+00	1.176461e+00	1.169045e+00	9.650831e-01	1.040894e+00	1.246793e+00	1.026522e+00	1.190043e+00	1.105675e+00	1.167330e+00	1.171241e+00	1.171339e+00	1.102458e+00	9.240109e-01	9.187480e-01	1.097997e+00	9.062818e-01	1.104899e+00	1.106147e+00	9.190380e-01	1.200346e+00	7.905014e-01	7.931083e-01	7.941028e-01	9.271828e-01	1.077833e+00	1.107103e+00	1.258849e+00	1.081714e+00	9.289104e-01	9.398398e-01	9.503153e-01	9.584343e-01	9.382362e-01	9.537567e-01	9.648835e-01	9.685099e-01	9.695946e-01	9.685620e-01	9.952142e-01	1.017273e+00	8.911171e-01	1.126090e+00	9.522191e-01	9.526082e-01	9.498964e-01	9.510411e-01	9.671257e-01	9.770111e-01	8.655652e-01	8.550253e-01	1.076951e+00	1.092847e+00	9.003332e-01	8.973264e-01	8.848533e-01	8.774388e-01	9.452615e-01	1.022368e+00	1.003818e+00	9.857358e-01	9.696305e-01	9.291557e-01	9.340030e-01	9.382908e-01	9.422292e-01	9.453566e-01	8.455905e-01	8.491454e-01	8.548743e-01	8.691169e-01	8.834375e-01	1.100402e+00	1.102978e+00	1.104946e+00	8.953618e-01	8.999638e-01	8.992804e-01	8.812057e-01	8.486916e-01	9.127206e-01	9.250524e-01	7.976100e-01	7.992854e-01	8.410239e-01	8.490313e-01	8.572920e-01	1.078686e+00	1.071632e+00	1.063730e+00	1.056518e+00	1.049394e+00	1.042830e+00	1.036150e+00	1.027092e+00	1.019129e+00	1.009595e+00	9.847270e-01	9.703206e-01	9.562220e-01	9.279087e-01	9.146933e-01	8.036815e-01	8.059091e-01	8.109570e-01	8.134809e-01	8.193121e-01	8.245671e-01	8.304669e-01	9.380804e-01	9.517604e-01	8.882612e-01	8.956498e-01	9.121698e-01	9.525713e-01	9.516782e-01	9.673687e-01	9.855461e-01	1.004817e+00	8.653857e-01	8.734451e-01	8.820638e-01	8.921963e-01	9.023557e-01	8.139628e-01	7.916626e-01	7.881600e-01	7.875474e-01	1.098369e+00	1.091883e+00	9.401441e-01	9.341464e-01	8.946997e-01	9.025040e-01	9.085954e-01	9.131891e-01	1.163740e+00	1.144392e+00	1.157692e+00	1.248442e+00	1.173929e+00	1.068930e+00	1.100924e+00	1.182497e+00	1.098893e+00	1.139096e+00	1.095916e+00	1.237037e+00	1.061309e+00	1.138407e+00	7.947448e-01	1.171965e+00	1.080800e+00	1.155993e+00	1.118864e+00	1.053486e+00	9.501753e-01	1.098315e+00	9.256736e-01	9.799115e-01	9.738121e-01	9.380972e-01	9.196525e-01	8.616452e-01	1.209312e+00	9.493897e-01	9.480354e-01	9.341408e-01	8.532542e-01	1.097169e+00	1.081691e+00	1.207812e+00	1.057214e+00	1.037107e+00	1.163601e+00	1.097109e+00	1.287216e+00	1.224629e+00	1.107068e+00	9.091757e-01	8.988238e-01	9.029421e-01	1.105060e+00	1.167550e+00	1.120192e+00	1.262756e+00	1.171501e+00	1.044097e+00	1.194020e+00	1.176388e+00	9.070702e-01	1.080425e+00	1.098562e+00	1.096024e+00	8.996937e-01	7.975161e-01	8.018316e-01	9.173413e-01	1.105658e+00	1.131165e+00	1.100254e+00	9.457170e-01	9.608081e-01	9.618801e-01	9.704311e-01	9.733607e-01	1.019944e+00	1.116530e+00	9.513420e-01	9.891456e-01	1.003089e+00	8.712005e-01	1.083119e+00	9.015679e-01	8.961906e-01	9.015823e-01	8.871175e-01	9.473609e-01	1.026749e+00	1.008286e+00	9.912564e-01	9.793020e-01	9.342789e-01	9.419471e-01	9.466156e-01	8.649604e-01	8.845594e-01	1.097888e+00	1.098660e+00	8.952028e-01	8.493658e-01	9.356098e-01	8.078836e-01	8.653664e-01	1.015699e+00	1.069539e+00	1.056167e+00	1.043513e+00	1.033041e+00	1.024427e+00	1.005224e+00	9.932277e-01	9.801171e-01	9.665582e-01	9.534284e-01	9.394312e-01	9.265805e-01	9.159412e-01	8.153771e-01	8.237740e-01	8.328641e-01	8.369648e-01	8.449768e-01	9.498484e-01	9.637260e-01	8.972374e-01	9.082618e-01	9.295527e-01	9.520291e-01	9.515990e-01	9.786496e-01	9.962756e-01	1.015363e+00	1.035197e+00	8.748423e-01	8.833060e-01	8.920210e-01	9.021970e-01	9.145834e-01	9.223527e-01	8.066124e-01	7.956179e-01	1.094858e+00	1.089860e+00	9.432227e-01	9.321409e-01	9.252615e-01	9.048579e-01	9.167153e-01	1.109655e+00	1.162469e+00	1.158526e+00	1.126859e+00	1.005937e+00	1.102928e+00	1.168252e+00	1.133187e+00	1.163745e+00	1.114040e+00	1.145881e+00	1.123503e+00	1.103326e+00	1.188040e+00	1.216677e+00	1.094270e+00	9.106933e-01	8.026746e-01	1.116353e+00	9.768745e-01	1.079270e+00	9.400655e-01	1.082340e+00	1.147755e+00	9.478969e-01	9.980672e-01	9.363687e-01	9.487833e-01	1.063690e+00	1.075900e+00	1.062423e+00	1.047514e+00	1.164835e+00	1.097055e+00	1.099347e+00	1.093177e+00	8.074822e-01	9.167250e-01	9.239559e-01	9.693621e-01	1.141240e+00	1.148835e+00	1.263064e+00	1.050619e+00	1.093756e+00	1.168625e+00	1.087400e+00	1.167143e+00	1.130751e+00	9.506265e-01	1.204831e+00	9.590987e-01	9.428882e-01	1.095591e+00	1.225310e+00	1.037145e+00	1.097907e+00	9.170257e-01	1.239161e+00	1.170292e+00	9.855273e-01	1.192053e+00	1.178551e+00	9.034646e-01	1.096922e+00	1.091232e+00	9.079153e-01	8.034356e-01	9.267527e-01	1.124556e+00	1.145518e+00	9.586167e-01	9.696128e-01	9.809466e-01	9.874265e-01	1.108141e+00	9.500479e-01	1.010193e+00	1.023397e+00	9.444503e-01	9.141018e-01	9.295155e-01	9.063544e-01	9.269300e-01	9.105265e-01	8.950591e-01	1.029735e+00	9.314892e-01	9.387086e-01	8.815885e-01	8.751020e-01	9.305352e-01	1.094754e+00	9.057020e-01	9.039673e-01	8.730161e-01	1.072499e+00	1.061199e+00	1.021176e+00	1.049474e+00	1.038853e+00	1.029741e+00	1.011809e+00	1.000959e+00	9.889352e-01	9.762314e-01	9.636270e-01	9.506414e-01	9.379720e-01	8.134050e-01	8.210996e-01	8.300528e-01	8.398184e-01	8.490053e-01	8.614591e-01	9.603987e-01	9.753966e-01	9.065091e-01	9.454640e-01	9.512885e-01	9.514255e-01	9.895644e-01	1.005744e+00	1.024082e+00	1.042406e+00	1.061781e+00	8.848842e-01	8.948661e-01	9.031635e-01	9.125607e-01	9.246068e-01	8.773732e-01	8.350848e-01	8.095563e-01	1.088223e+00	1.081614e+00	9.456781e-01	9.414357e-01	8.816116e-01	8.984690e-01	9.141538e-01	9.237509e-01	1.144011e+00	1.151293e+00	1.148922e+00	1.112079e+00	1.153423e+00	1.130271e+00	1.117953e+00	1.015423e+00	1.166121e+00	1.116179e+00	1.112853e+00	1.048684e+00	1.158895e+00	1.089943e+00	8.197193e-01	1.134811e+00	1.138837e+00	1.108537e+00	1.163693e+00	1.082923e+00	9.045723e-01	1.008380e+00	9.853784e-01	9.157954e-01	1.130594e+00	1.123616e+00	1.119948e+00	1.166721e+00	1.151790e+00	9.178710e-01	9.