# vtk DataFile Version 3.0
vtk output
ASCII
DATASET UNSTRUCTURED_GRID
POINTS 200 float
9.997500e-01	-3.633650e-05	0.0	9.990000e-01	-1.457287e-04	0.0	9.977600e-01	-3.303104e-04	0.0	9.960200e-01	-6.049839e-04	0.0	9.937800e-01	-1.001065e-03	0.0	9.910500e-01	-1.569525e-03	0.0	9.878400e-01	-2.375117e-03	0.0	9.841300e-01	-3.485161e-03	0.0	9.799500e-01	-4.916644e-03	0.0	9.752800e-01	-6.637404e-03	0.0	9.701500e-01	-8.524346e-03	0.0	9.645400e-01	-1.042084e-02	0.0	9.584700e-01	-1.215204e-02	0.0	9.519400e-01	-1.360063e-02	0.0	9.449600e-01	-1.473324e-02	0.0	9.375400e-01	-1.560648e-02	0.0	9.296900e-01	-1.633786e-02	0.0	9.214000e-01	-1.706359e-02	0.0	9.127000e-01	-1.789381e-02	0.0	9.035800e-01	-1.889618e-02	0.0	8.940600e-01	-2.008403e-02	0.0	8.841500e-01	-2.142895e-02	0.0	8.738500e-01	-2.287728e-02	0.0	8.631800e-01	-2.436202e-02	0.0	8.521600e-01	-2.581899e-02	0.0	8.407700e-01	-2.720029e-02	0.0	8.290500e-01	-2.846565e-02	0.0	8.170100e-01	-2.959488e-02	0.0	8.046400e-01	-3.058339e-02	0.0	7.919700e-01	-3.143434e-02	0.0	7.790100e-01	-3.216051e-02	0.0	7.657800e-01	-3.277855e-02	0.0	7.522800e-01	-3.330745e-02	0.0	7.385200e-01	-3.376479e-02	0.0	7.245300e-01	-3.416540e-02	0.0	7.103200e-01	-3.452185e-02	0.0	6.958900e-01	-3.484376e-02	0.0	6.812700e-01	-3.513733e-02	0.0	6.664700e-01	-3.540710e-02	0.0	6.515000e-01	-3.565627e-02	0.0	6.363800e-01	-3.588727e-02	0.0	6.211300e-01	-3.610266e-02	0.0	6.057600e-01	-3.630568e-02	0.0	5.902800e-01	-3.650034e-02	0.0	5.747100e-01	-3.669142e-02	0.0	5.590600e-01	-3.688453e-02	0.0	5.433600e-01	-3.708545e-02	0.0	5.276100e-01	-3.730043e-02	0.0	5.118400e-01	-3.753493e-02	0.0	4.960500e-01	-3.779405e-02	0.0	4.802700e-01	-3.808130e-02	0.0	4.645100e-01	-3.839902e-02	0.0	4.487800e-01	-3.874793e-02	0.0	4.331100e-01	-3.912653e-02	0.0	4.175000e-01	-3.953226e-02	0.0	4.019700e-01	-3.996038e-02	0.0	3.865400e-01	-4.040461e-02	0.0	3.712300e-01	-4.085730e-02	0.0	3.560400e-01	-4.131039e-02	0.0	3.409900e-01	-4.175442e-02	0.0	3.261100e-01	-4.217914e-02	0.0	3.114000e-01	-4.257495e-02	0.0	2.968700e-01	-4.293194e-02	0.0	2.825500e-01	-4.323994e-02	0.0	2.684500e-01	-4.348975e-02	0.0	2.545700e-01	-4.367277e-02	0.0	2.409400e-01	-4.378060e-02	0.0	2.275700e-01	-4.380595e-02	0.0	2.144700e-01	-4.374222e-02	0.0	2.016600e-01	-4.358371e-02	0.0	1.891400e-01	-4.332525e-02	0.0	1.769300e-01	-4.296279e-02	0.0	1.650400e-01	-4.249288e-02	0.0	1.534900e-01	-4.191342e-02	0.0	1.422900e-01	-4.122283e-02	0.0	1.314400e-01	-4.041955e-02	0.0	1.209500e-01	-3.950325e-02	0.0	1.108500e-01	-3.847664e-02	0.0	1.011300e-01	-3.733954e-02	0.0	9.181000e-02	-3.609579e-02	0.0	8.290000e-02	-3.474934e-02	0.0	7.440000e-02	-3.330349e-02	0.0	6.633000e-02	-3.176595e-02	0.0	5.869000e-02	-3.014206e-02	0.0	5.149000e-02	-2.843998e-02	0.0	4.474000e-02	-2.666920e-02	0.0	3.844000e-02	-2.483741e-02	0.0	3.260000e-02	-2.295573e-02	0.0	2.723000e-02	-2.103638e-02	0.0	2.232000e-02	-1.908431e-02	0.0	1.790000e-02	-1.712037e-02	0.0	1.395000e-02	-1.514386e-02	0.0	1.049000e-02	-1.317093e-02	0.0	7.520000e-03	-1.120665e-02	0.0	5.040000e-03	-9.251660e-03	0.0	3.050000e-03	-7.299161e-03	0.0	1.560000e-03	-5.343803e-03	0.0	5.600000e-04	-3.333343e-03	0.0	6.000000e-05	-1.182547e-03	0.0	0.000000e+00	0.000000e+00	0.0	6.000000e-05	1.143813e-03	0.0	5.600000e-04	3.137709e-03	0.0	1.560000e-03	4.924243e-03	0.0	3.050000e-03	6.604230e-03	0.0	5.040000e-03	8.237673e-03	0.0	7.520000e-03	9.840581e-03	0.0	1.049000e-02	1.142852e-02	0.0	1.395000e-02	1.300974e-02	0.0	1.790000e-02	1.458810e-02	0.0	2.232000e-02	1.615795e-02	0.0	2.723000e-02	1.772651e-02	0.0	3.260000e-02	1.928309e-02	0.0	3.844000e-02	2.082919e-02	0.0	4.474000e-02	2.235975e-02	0.0	5.149000e-02	2.386995e-02	0.0	5.869000e-02	2.535712e-02	0.0	6.633000e-02	2.681644e-02	0.0	7.440000e-02	2.824340e-02	0.0	8.290000e-02	2.963545e-02	0.0	9.181000e-02	3.098698e-02	0.0	1.011300e-01	3.229593e-02	0.0	1.108500e-01	3.355895e-02	0.0	1.209500e-01	3.477193e-02	0.0	1.314400e-01	3.593470e-02	0.0	1.422900e-01	3.704282e-02	0.0	1.534900e-01	3.809473e-02	0.0	1.650400e-01	3.908997e-02	0.0	1.769300e-01	4.002736e-02	0.0	1.891400e-01	4.090535e-02	0.0	2.016600e-01	4.172353e-02	0.0	2.144700e-01	4.248114e-02	0.0	2.275700e-01	4.317881e-02	0.0	2.409400e-01	4.381617e-02	0.0	2.545700e-01	4.439353e-02	0.0	2.684500e-01	4.491118e-02	0.0	2.825500e-01	4.536874e-02	0.0	2.968700e-01	4.576687e-02	0.0	3.114000e-01	4.610565e-02	0.0	3.261100e-01	4.638460e-02	0.0	3.409900e-01	4.660360e-02	0.0	3.560400e-01	4.676232e-02	0.0	3.712300e-01	4.685987e-02	0.0	3.865400e-01	4.689540e-02	0.0	4.019700e-01	4.686786e-02	0.0	4.175000e-01	4.677596e-02	0.0	4.331100e-01	4.661831e-02	0.0	4.487800e-01	4.639349e-02	0.0	4.645100e-01	4.609961e-02	0.0	4.802700e-01	4.573515e-02	0.0	4.960500e-01	4.529816e-02	0.0	5.118400e-01	4.478650e-02	0.0	5.276100e-01	4.419861e-02	0.0	5.433600e-01	4.353184e-02	0.0	5.590600e-01	4.278478e-02	0.0	5.747100e-01	4.195480e-02	0.0	5.902800e-01	4.104119e-02	0.0	6.057600e-01	4.004280e-02	0.0	6.211300e-01	3.896011e-02	0.0	6.363800e-01	3.779424e-02	0.0	6.515000e-01	3.654793e-02	0.0	6.664700e-01	3.522675e-02	0.0	6.812700e-01	3.383865e-02	0.0	6.958900e-01	3.239294e-02	0.0	7.103200e-01	3.090085e-02	0.0	7.245300e-01	2.937720e-02	0.0	7.385200e-01	2.783430e-02	0.0	7.522800e-01	2.628506e-02	0.0	7.657800e-01	2.474313e-02	0.0	7.790100e-01	2.321734e-02	0.0	7.919700e-01	2.171194e-02	0.0	8.046400e-01	2.022980e-02	0.0	8.170100e-01	1.876900e-02	0.0	8.290500e-01	1.732706e-02	0.0	8.407700e-01	1.589468e-02	0.0	8.521600e-01	1.446362e-02	0.0	8.631800e-01	1.302908e-02	0.0	8.738500e-01	1.157873e-02	0.0	8.841500e-01	1.010642e-02	0.0	8.940600e-01	8.609584e-03	0.0	9.035800e-01	7.090401e-03	0.0	9.127000e-01	5.566798e-03	0.0	9.214000e-01	4.080185e-03	0.0	9.296900e-01	2.692876e-03	0.0	9.375400e-01	1.495699e-03	0.0	9.449600e-01	5.786308e-04	0.0	9.519400e-01	1.362684e-05	0.0	9.584700e-01	-1.789011e-04	0.0	9.645400e-01	-4.856036e-05	0.0	9.701500e-01	2.914896e-04	0.0	9.752800e-01	6.941634e-04	0.0	9.799500e-01	1.026684e-03	0.0	9.841300e-01	1.201504e-03	0.0	9.878400e-01	1.197585e-03	0.0	9.910500e-01	1.047349e-03	0.0	9.937800e-01	8.110642e-04	0.0	9.960200e-01	5.521946e-04	0.0	9.977600e-01	3.205093e-04	0.0	9.990000e-01	1.448337e-04	0.0	9.997500e-01	3.632231e-05	0.0	1.000000e+00	0.000000e+00	0.0	
CELLS 200	600
2	199	0	2	0	1	2	1	2	2	2	3	2	3	4	2	4	5	2	5	6	2	6	7	2	7	8	2	8	9	2	9	10	2	10	11	2	11	12	2	12	13	2	13	14	2	14	15	2	15	16	2	16	17	2	17	18	2	18	19	2	19	20	2	20	21	2	21	22	2	22	23	2	23	24	2	24	25	2	25	26	2	26	27	2	27	28	2	28	29	2	29	30	2	30	31	2	31	32	2	32	33	2	33	34	2	34	35	2	35	36	2	36	37	2	37	38	2	38	39	2	39	40	2	40	41	2	41	42	2	42	43	2	43	44	2	44	45	2	45	46	2	46	47	2	47	48	2	48	49	2	49	50	2	50	51	2	51	52	2	52	53	2	53	54	2	54	55	2	55	56	2	56	57	2	57	58	2	58	59	2	59	60	2	60	61	2	61	62	2	62	63	2	63	64	2	64	65	2	65	66	2	66	67	2	67	68	2	68	69	2	69	70	2	70	71	2	71	72	2	72	73	2	73	74	2	74	75	2	75	76	2	76	77	2	77	78	2	78	79	2	79	80	2	80	81	2	81	82	2	82	83	2	83	84	2	84	85	2	85	86	2	86	87	2	87	88	2	88	89	2	89	90	2	90	91	2	91	92	2	92	93	2	93	94	2	94	95	2	95	96	2	96	97	2	97	98	2	98	99	2	99	100	2	100	101	2	101	102	2	102	103	2	103	104	2	104	105	2	105	106	2	106	107	2	107	108	2	108	109	2	109	110	2	110	111	2	111	112	2	112	113	2	113	114	2	114	115	2	115	116	2	116	117	2	117	118	2	118	119	2	119	120	2	120	121	2	121	122	2	122	123	2	123	124	2	124	125	2	125	126	2	126	127	2	127	128	2	128	129	2	129	130	2	130	131	2	131	132	2	132	133	2	133	134	2	134	135	2	135	136	2	136	137	2	137	138	2	138	139	2	139	140	2	140	141	2	141	142	2	142	143	2	143	144	2	144	145	2	145	146	2	146	147	2	147	148	2	148	149	2	149	150	2	150	151	2	151	152	2	152	153	2	153	154	2	154	155	2	155	156	2	156	157	2	157	158	2	158	159	2	159	160	2	160	161	2	161	162	2	162	163	2	163	164	2	164	165	2	165	166	2	166	167	2	167	168	2	168	169	2	169	170	2	170	171	2	171	172	2	172	173	2	173	174	2	174	175	2	175	176	2	176	177	2	177	178	2	178	179	2	179	180	2	180	181	2	181	182	2	182	183	2	183	184	2	184	185	2	185	186	2	186	187	2	187	188	2	188	189	2	189	190	2	190	191	2	191	192	2	192	193	2	193	194	2	194	195	2	195	196	2	196	197	2	197	198	2	198	199	
CELL_TYPES 200
3	3	3	3	3	3	3	3	3	3	3	3	3	3	3	3	3	3	3	3	3	3	3	3	3	3	3	3	3	3	3	3	3	3	3	3	3	3	3	3	3	3	3	3	3	3	3	3	3	3	3	3	3	3	3	3	3	3	3	3	3	3	3	3	3	3	3	3	3	3	3	3	3	3	3	3	3	3	3	3	3	3	3	3	3	3	3	3	3	3	3	3	3	3	3	3	3	3	3	3	3	3	3	3	3	3	3	3	3	3	3	3	3	3	3	3	3	3	3	3	3	3	3	3	3	3	3	3	3	3	3	3	3	3	3	3	3	3	3	3	3	3	3	3	3	3	3	3	3	3	3	3	3	3	3	3	3	3	3	3	3	3	3	3	3	3	3	3	3	3	3	3	3	3	3	3	3	3	3	3	3	3	3	3	3	3	3	3	3	3	3	3	3	3	3	3	3	3	3	3	
POINT_DATA 200

SCALARS Conservative_1 float 1
LOOKUP_TABLE default
1.193733e+00	1.179270e+00	1.173168e+00	1.171366e+00	1.170665e+00	1.168106e+00	1.159609e+00	1.142122e+00	1.112733e+00	1.070652e+00	1.015835e+00	9.393540e-01	8.655808e-01	8.417721e-01	8.621124e-01	9.018273e-01	9.421400e-01	9.706603e-01	9.851512e-01	9.875144e-01	9.801228e-01	9.653864e-01	9.464564e-01	9.249225e-01	8.997283e-01	8.708738e-01	8.449669e-01	8.307314e-01	8.293593e-01	8.369585e-01	8.488890e-01	8.618896e-01	8.742684e-01	8.851783e-01	8.945479e-01	9.024816e-01	9.092204e-01	9.150414e-01	9.201385e-01	9.247702e-01	9.290569e-01	9.331494e-01	9.370656e-01	9.408396e-01	9.443998e-01	9.477035e-01	9.506313e-01	9.531150e-01	9.550574e-01	9.563838e-01	9.570345e-01	9.569451e-01	9.560742e-01	9.544423e-01	9.519522e-01	9.487889e-01	9.446137e-01	9.397344e-01	9.337909e-01	9.271535e-01	9.200687e-01	9.120574e-01	9.035898e-01	8.947138e-01	8.872242e-01	8.809720e-01	8.729695e-01	8.574239e-01	8.326791e-01	8.079270e-01	7.935846e-01	7.903882e-01	7.939125e-01	8.003126e-01	8.076777e-01	8.156426e-01	8.244916e-01	8.345705e-01	8.458446e-01	8.582513e-01	8.717960e-01	8.864315e-01	9.021981e-01	9.190824e-01	9.371193e-01	9.563885e-01	9.768881e-01	9.987194e-01	1.022053e+00	1.046919e+00	1.073642e+00	1.102684e+00	1.134420e+00	1.169845e+00	1.209830e+00	1.254273e+00	1.299799e+00	1.345283e+00	1.350359e+00	1.328568e+00	1.306137e+00	1.237724e+00	1.117538e+00	1.036933e+00	9.858549e-01	9.547158e-01	9.348032e-01	9.203243e-01	9.083834e-01	8.979960e-01	8.886462e-01	8.799070e-01	8.716917e-01	8.638206e-01	8.562736e-01	8.490767e-01	8.421319e-01	8.353617e-01	8.288218e-01	8.225630e-01	8.166806e-01	8.111468e-01	8.058317e-01	8.006586e-01	7.957447e-01	7.912926e-01	7.873545e-01	7.837511e-01	7.803450e-01	7.772214e-01	7.745529e-01	7.724144e-01	7.707139e-01	7.693032e-01	7.680670e-01	7.669694e-01	7.661731e-01	7.658186e-01	7.657114e-01	7.644011e-01	7.602523e-01	7.556252e-01	7.626316e-01	7.985786e-01	8.535326e-01	8.869514e-01	8.900100e-01	8.800129e-01	8.713487e-01	8.692143e-01	8.716276e-01	8.745582e-01	8.770721e-01	8.793098e-01	8.829296e-01	8.896066e-01	8.974530e-01	9.059980e-01	9.142776e-01	9.209482e-01	9.286727e-01	9.373184e-01	9.468119e-01	9.570031e-01	9.664898e-01	9.754466e-01	9.837707e-01	9.914336e-01	9.983489e-01	1.004535e+00	1.010056e+00	1.015098e+00	1.019890e+00	1.024714e+00	1.029885e+00	1.035773e+00	1.042775e+00	1.051414e+00	1.062197e+00	1.075631e+00	1.091749e+00	1.109947e+00	1.128647e+00	1.145793e+00	1.159004e+00	1.165997e+00	1.164788e+00	1.154113e+00	1.133868e+00	1.106377e+00	1.077772e+00	1.055729e+00	1.047582e+00	1.056398e+00	1.077953e+00	1.104558e+00	1.131134e+00	1.157166e+00	1.185302e+00	1.174446e+00	
SCALARS Conservative_2 float 1
LOOKUP_TABLE default
7.007072e-01	7.223852e-01	7.341335e-01	7.374487e-01	7.358449e-01	7.350185e-01	7.387431e-01	7.517216e-01	7.767620e-01	8.136712e-01	8.588330e-01	9.052227e-01	9.385846e-01	9.618089e-01	9.750964e-01	9.738547e-01	9.651638e-01	9.547226e-01	9.461584e-01	9.425416e-01	9.438984e-01	9.491109e-01	9.560223e-01	9.631908e-01	9.699762e-01	9.747884e-01	9.768315e-01	9.775688e-01	9.781995e-01	9.789113e-01	9.793635e-01	9.793936e-01	9.790689e-01	9.782944e-01	9.773169e-01	9.761960e-01	9.750617e-01	9.739871e-01	9.728874e-01	9.718382e-01	9.707546e-01	9.696816e-01	9.685636e-01	9.674543e-01	9.663338e-01	9.652688e-01	9.642687e-01	9.634064e-01	9.626986e-01	9.622125e-01	9.619390e-01	9.619591e-01	9.622512e-01	9.628173e-01	9.636637e-01	9.647448e-01	9.661020e-01	9.675687e-01	9.692621e-01	9.709399e-01	9.726251e-01	9.745814e-01	9.763134e-01	9.777757e-01	9.786493e-01	9.790556e-01	9.797673e-01	9.809715e-01	9.815223e-01	9.793963e-01	9.767978e-01	9.755436e-01	9.754272e-01	9.756660e-01	9.759834e-01	9.759696e-01	9.756676e-01	9.749424e-01	9.734971e-01	9.711778e-01	9.678818e-01	9.632980e-01	9.572201e-01	9.493098e-01	9.392053e-01	9.264281e-01	9.104227e-01	8.906395e-01	8.661956e-01	8.358400e-01	7.980868e-01	7.506835e-01	6.900545e-01	6.118449e-01	5.094653e-01	3.771209e-01	2.205100e-01	6.923520e-02	-4.332293e-03	7.772328e-03	7.479601e-02	2.366994e-01	4.604347e-01	6.294888e-01	7.402745e-01	8.106344e-01	8.553835e-01	8.851658e-01	9.057116e-01	9.206473e-01	9.318731e-01	9.404555e-01	9.472196e-01	9.526202e-01	9.569302e-01	9.603944e-01	9.631493e-01	9.653039e-01	9.670295e-01	9.683555e-01	9.693563e-01	9.701007e-01	9.705767e-01	9.707834e-01	9.708589e-01	9.708454e-01	9.707922e-01	9.706191e-01	9.703780e-01	9.700947e-01	9.698652e-01	9.696826e-01	9.695556e-01	9.694354e-01	9.693230e-01	9.692348e-01	9.691773e-01	9.691818e-01	9.691219e-01	9.685478e-01	9.678361e-01	9.673617e-01	9.700507e-01	9.778461e-01	9.785023e-01	9.759960e-01	9.760530e-01	9.773429e-01	9.788788e-01	9.794098e-01	9.789945e-01	9.786877e-01	9.777445e-01	9.772106e-01	9.771131e-01	9.762642e-01	9.755239e-01	9.737075e-01	9.712009e-01	9.690442e-01	9.662104e-01	9.633527e-01	9.601450e-01	9.563734e-01	9.523544e-01	9.482347e-01	9.441957e-01	9.403073e-01	9.365784e-01	9.331292e-01	9.298883e-01	9.267413e-01	9.235674e-01	9.201718e-01	9.162787e-01	9.115948e-01	9.056597e-01	8.979546e-01	8.877077e-01	8.743073e-01	8.573224e-01	8.372384e-01	8.157084e-01	7.958567e-01	7.814040e-01	7.758886e-01	7.817115e-01	7.993905e-01	8.266588e-01	8.586362e-01	8.876697e-01	9.055261e-01	9.079071e-01	8.962173e-01	8.734974e-01	8.439301e-01	8.099768e-01	7.719555e-01	7.289770e-01	6.567771e-01	
SCALARS Conservative_3 float 1
LOOKUP_TABLE default
9.989800e-02	1.044406e-01	1.121536e-01	1.233536e-01	1.419886e-01	1.692166e-01	2.036983e-01	2.413220e-01	2.758096e-01	2.980884e-01	2.997309e-01	2.821761e-01	2.383912e-01	1.828754e-01	1.350060e-01	1.008634e-01	8.560569e-02	8.656568e-02	9.677122e-02	1.103708e-01	1.227032e-01	1.310388e-01	1.335490e-01	1.300625e-01	1.225305e-01	1.123985e-01	9.996890e-02	8.613178e-02	7.263530e-02	6.053010e-02	5.021016e-02	4.178004e-02	3.513291e-02	3.000062e-02	2.603828e-02	2.297259e-02	2.054805e-02	1.856874e-02	1.690272e-02	1.546572e-02	1.423262e-02	1.321350e-02	1.244470e-02	1.196918e-02	1.183456e-02	1.206533e-02	1.267971e-02	1.365878e-02	1.497429e-02	1.657239e-02	1.837451e-02	2.030013e-02	2.224711e-02	2.410650e-02	2.580023e-02	2.714973e-02	2.819134e-02	2.867038e-02	2.872673e-02	2.815598e-02	2.677989e-02	2.501387e-02	2.253449e-02	1.953505e-02	1.539198e-02	9.935432e-03	3.527387e-03	-2.609296e-03	-7.772502e-03	-1.429886e-02	-2.300104e-02	-3.276595e-02	-4.317635e-02	-5.418618e-02	-6.587638e-02	-7.840096e-02	-9.185237e-02	-1.062604e-01	-1.216016e-01	-1.379275e-01	-1.552356e-01	-1.735178e-01	-1.927854e-01	-2.130112e-01	-2.341470e-01	-2.561681e-01	-2.790437e-01	-3.027243e-01	-3.270544e-01	-3.519323e-01	-3.771276e-01	-4.018822e-01	-4.249551e-01	-4.431420e-01	-4.489514e-01	-4.271241e-01	-3.510385e-01	-1.872748e-01	5.045505e-02	2.477090e-01	4.331223e-01	6.217322e-01	6.662894e-01	6.149582e-01	5.420120e-01	4.756691e-01	4.211938e-01	3.767996e-01	3.401655e-01	3.092650e-01	2.829252e-01	2.600181e-01	2.397980e-01	2.217260e-01	2.053885e-01	1.904795e-01	1.767708e-01	1.640506e-01	1.522118e-01	1.411344e-01	1.307458e-01	1.210035e-01	1.118336e-01	1.031450e-01	9.492274e-02	8.714671e-02	7.984467e-02	7.294313e-02	6.640126e-02	6.017234e-02	5.427377e-02	4.870364e-02	4.344432e-02	3.844287e-02	3.366350e-02	2.905183e-02	2.461682e-02	2.033019e-02	1.631963e-02	1.254119e-02	8.437191e-03	3.368427e-03	-2.727367e-03	-7.721185e-03	-5.907900e-03	-8.045072e-03	-1.402748e-02	-2.030201e-02	-2.584640e-02	-3.007863e-02	-3.404776e-02	-3.885625e-02	-4.376915e-02	-4.949583e-02	-5.543932e-02	-6.047686e-02	-6.602652e-02	-7.115009e-02	-7.640218e-02	-8.264533e-02	-8.801936e-02	-9.318981e-02	-9.752045e-02	-1.008143e-01	-1.035919e-01	-1.056610e-01	-1.070788e-01	-1.079307e-01	-1.084041e-01	-1.087772e-01	-1.093056e-01	-1.102257e-01	-1.117605e-01	-1.140579e-01	-1.172157e-01	-1.212938e-01	-1.262554e-01	-1.319085e-01	-1.377189e-01	-1.425623e-01	-1.445676e-01	-1.412739e-01	-1.301883e-01	-1.097844e-01	-8.011231e-02	-4.333207e-02	-3.841738e-03	3.208806e-02	5.701689e-02	6.422756e-02	5.053383e-02	1.938795e-02	-2.042353e-02	-5.852573e-02	-8.686533e-02	-1.028026e-01	-1.087581e-01	-1.065992e-01	-9.976309e-02	3.519366e-03	
SCALARS Conservative_4 float 1
LOOKUP_TABLE default
3.426331e+00	3.390181e+00	3.375592e+00	3.371530e+00	3.369908e+00	3.363730e+00	3.342535e+00	3.298843e+00	3.225223e+00	3.119515e+00	2.981077e+00	2.785768e+00	2.595763e+00	2.536542e+00	2.591818e+00	2.695082e+00	2.799288e+00	2.872596e+00	2.909372e+00	2.915131e+00	2.896028e+00	2.858355e+00	2.809812e+00	2.754369e+00	2.689232e+00	2.613921e+00	2.545921e+00	2.508379e+00	2.504604e+00	2.524521e+00	2.555807e+00	2.589920e+00	2.622381e+00	2.650923e+00	2.675383e+00	2.696047e+00	2.713566e+00	2.728694e+00	2.741904e+00	2.753908e+00	2.764991e+00	2.775574e+00	2.785681e+00	2.795423e+00	2.804597e+00	2.813112e+00	2.820646e+00	2.827041e+00	2.832035e+00	2.835454e+00	2.837122e+00	2.836906e+00	2.834676e+00	2.830489e+00	2.824089e+00	2.815955e+00	2.805217e+00	2.792570e+00	2.777195e+00	2.759937e+00	2.741501e+00	2.720860e+00	2.698869e+00	2.675817e+00	2.656245e+00	2.639792e+00	2.618879e+00	2.578290e+00	2.513485e+00	2.448005e+00	2.409775e+00	2.401126e+00	2.410405e+00	2.427349e+00	2.446927e+00	2.468038e+00	2.491488e+00	2.518145e+00	2.547859e+00	2.580451e+00	2.615946e+00	2.654160e+00	2.695194e+00	2.738966e+00	2.785533e+00	2.835048e+00	2.887455e+00	2.942996e+00	3.002051e+00	3.064585e+00	3.131394e+00	3.203552e+00	3.281838e+00	3.368728e+00	3.466266e+00	3.574110e+00	3.684404e+00	3.798013e+00	3.808362e+00	3.753249e+00	3.704544e+00	3.541533e+00	3.235371e+00	3.030895e+00	2.902142e+00	2.824533e+00	2.775116e+00	2.739021e+00	2.708889e+00	2.682449e+00	2.658495e+00	2.635954e+00	2.614677e+00	2.594223e+00	2.574542e+00	2.555725e+00	2.537514e+00	2.519709e+00	2.502487e+00	2.485975e+00	2.470428e+00	2.455786e+00	2.441692e+00	2.427934e+00	2.414863e+00	2.403007e+00	2.392523e+00	2.382898e+00	2.373796e+00	2.365438e+00	2.358306e+00	2.352587e+00	2.348040e+00	2.344267e+00	2.340949e+00	2.338030e+00	2.335886e+00	2.334928e+00	2.334621e+00	2.330991e+00	2.319982e+00	2.307902e+00	2.326849e+00	2.423134e+00	2.567275e+00	2.654471e+00	2.662921e+00	2.636743e+00	2.614545e+00	2.609310e+00	2.615185e+00	2.623262e+00	2.629413e+00	2.634930e+00	2.645145e+00	2.662280e+00	2.683279e+00	2.705717e+00	2.726545e+00	2.744089e+00	2.763653e+00	2.785868e+00	2.810599e+00	2.836802e+00	2.861200e+00	2.884135e+00	2.905418e+00	2.924993e+00	2.942620e+00	2.958383e+00	2.972440e+00	2.985255e+00	2.997427e+00	3.009663e+00	3.022760e+00	3.037648e+00	3.055310e+00	3.077047e+00	3.104079e+00	3.137658e+00	3.177812e+00	3.223014e+00	3.269341e+00	3.311808e+00	3.344660e+00	3.362325e+00	3.359886e+00	3.334066e+00	3.284256e+00	3.215958e+00	3.144337e+00	3.088404e+00	3.066888e+00	3.088368e+00	3.142209e+00	3.208607e+00	3.274443e+00	3.338489e+00	3.408166e+00	3.364615e+00	
SCALARS Pressure float 1
LOOKUP_TABLE default
1.286599e+00	1.265720e+00	1.256213e+00	1.253160e+00	1.252013e+00	1.248089e+00	1.235733e+00	1.210386e+00	1.167970e+00	1.107533e+00	1.029524e+00	9.228881e-01	8.216250e-01	7.868784e-01	8.119213e-01	8.654495e-01	9.204094e-01	9.596851e-01	9.801058e-01	9.836620e-01	9.735362e-01	9.531626e-01	9.270191e-01	8.974814e-01	8.632135e-01	8.244464e-01	7.901479e-01	7.714932e-01	7.698192e-01	7.799448e-01	7.957505e-01	8.129797e-01	8.293836e-01	8.439247e-01	8.564530e-01	8.671155e-01	8.761992e-01	8.840562e-01	8.909673e-01	8.972511e-01	9.030882e-01	9.086635e-01	9.140152e-01	9.191744e-01	9.240537e-01	9.285821e-01	9.326044e-01	9.360153e-01	9.386869e-01	9.405088e-01	9.414044e-01	9.412763e-01	9.400731e-01	9.378205e-01	9.343919e-01	9.300329e-01	9.243029e-01	9.176074e-01	9.094852e-01	9.004449e-01	8.908079e-01	8.799286e-01	8.684572e-01	8.565316e-01	8.465457e-01	8.382826e-01	8.276226e-01	8.068503e-01	7.739850e-01	7.417001e-01	7.233150e-01	7.193639e-01	7.240041e-01	7.323180e-01	7.418239e-01	7.521458e-01	7.636362e-01	7.767672e-01	7.915645e-01	8.079547e-01	8.259383e-01	8.455048e-01	8.667191e-01	8.896066e-01	9.142533e-01	9.408151e-01	9.693445e-01	9.999954e-01	1.033068e+00	1.068709e+00	1.107413e+00	1.149917e+00	1.196947e+00	1.249918e+00	1.310279e+00	1.377876e+00	1.447319e+00	1.513279e+00	1.522965e+00	1.492054e+00	1.452236e+00	1.345098e+00	1.176758e+00	1.062989e+00	9.900844e-01	9.447552e-01	9.155488e-01	8.944846e-01	8.774695e-01	8.629037e-01	8.499418e-01	8.379801e-01	8.268192e-01	8.161971e-01	8.060800e-01	7.964825e-01	7.872731e-01	7.783486e-01	7.697474e-01	7.615493e-01	7.538700e-01	7.466636e-01	7.397721e-01	7.331049e-01	7.267787e-01	7.210551e-01	7.159962e-01	7.113930e-01	7.070507e-01	7.030772e-01	6.996762e-01	6.969542e-01	6.947868e-01	6.929963e-01	6.914216e-01	6.900237e-01	6.890024e-01	6.885536e-01	6.884653e-01	6.869122e-01	6.815540e-01	6.754718e-01	6.839611e-01	7.297673e-01	8.025478e-01	8.469777e-01	8.510412e-01	8.375160e-01	8.257289e-01	8.228008e-01	8.258908e-01	8.299163e-01	8.333338e-01	8.362123e-01	8.410930e-01	8.498173e-01	8.602627e-01	8.718737e-01	8.830074e-01	8.922220e-01	9.027397e-01	9.144722e-01	9.274975e-01	9.414480e-01	9.545741e-01	9.670084e-01	9.785937e-01	9.892836e-01	9.989679e-01	1.007637e+00	1.015393e+00	1.022493e+00	1.029253e+00	1.036067e+00	1.043395e+00	1.051757e+00	1.061752e+00	1.074130e+00	1.089684e+00	1.109151e+00	1.132650e+00	1.159303e+00	1.186825e+00	1.212060e+00	1.231391e+00	1.241348e+00	1.239028e+00	1.222709e+00	1.192592e+00	1.152364e+00	1.111041e+00	1.079952e+00	1.069304e+00	1.082634e+00	1.113920e+00	1.152569e+00	1.191685e+00	1.230436e+00	1.271921e+00	1.272387e+00	
SCALARS Temperature float 1
LOOKUP_TABLE default
1.077794e+00	1.073308e+00	1.070787e+00	1.069828e+00	1.069489e+00	1.068472e+00	1.065646e+00	1.059769e+00	1.049641e+00	1.034447e+00	1.013476e+00	9.824711e-01	9.492181e-01	9.347880e-01	9.417812e-01	9.596621e-01	9.769349e-01	9.886931e-01	9.948786e-01	9.960989e-01	9.932798e-01	9.873379e-01	9.794631e-01	9.703314e-01	9.594157e-01	9.466887e-01	9.351230e-01	9.286916e-01	9.282095e-01	9.318799e-01	9.374024e-01	9.432526e-01	9.486601e-01	9.533952e-01	9.574143e-01	9.608125e-01	9.636819e-01	9.661380e-01	9.682970e-01	9.702422e-01	9.720483e-01	9.737599e-01	9.754015e-01	9.769725e-01	9.784560e-01	9.798235e-01	9.810369e-01	9.820592e-01	9.828591e-01	9.834009e-01	9.836681e-01	9.836262e-01	9.832637e-01	9.825848e-01	9.815534e-01	9.802316e-01	9.784982e-01	9.764540e-01	9.739710e-01	9.711929e-01	9.681971e-01	9.647733e-01	9.611189e-01	9.573247e-01	9.541508e-01	9.515428e-01	9.480545e-01	9.410168e-01	9.295118e-01	9.180286e-01	9.114529e-01	9.101400e-01	9.119444e-01	9.150399e-01	9.184652e-01	9.221511e-01	9.261904e-01	9.307389e-01	9.358273e-01	9.413965e-01	9.473986e-01	9.538298e-01	9.606750e-01	9.679291e-01	9.755997e-01	9.837165e-01	9.922779e-01	1.001278e+00	1.010777e+00	1.020814e+00	1.031455e+00	1.042835e+00	1.055118e+00	1.068447e+00	1.083027e+00	1.098546e+00	1.113494e+00	1.124877e+00	1.127823e+00	1.123054e+00	1.111856e+00	1.086752e+00	1.052992e+00	1.025128e+00	1.004290e+00	9.895669e-01	9.794027e-01	9.719233e-01	9.659683e-01	9.609216e-01	9.564457e-01	9.523507e-01	9.485225e-01	9.448688e-01	9.413814e-01	9.380572e-01	9.348572e-01	9.317503e-01	9.287248e-01	9.258249e-01	9.230905e-01	9.205036e-01	9.180232e-01	9.156273e-01	9.133315e-01	9.112369e-01	9.093696e-01	9.076772e-01	9.060744e-01	9.046035e-01	9.033292e-01	9.023060e-01	9.014847e-01	9.008103e-01	9.002100e-01	8.996756e-01	8.992777e-01	8.991080e-01	8.991186e-01	8.986279e-01	8.964839e-01	8.939243e-01	8.968434e-01	9.138327e-01	9.402661e-01	9.549314e-01	9.562153e-01	9.517087e-01	9.476446e-01	9.466030e-01	9.475272e-01	9.489550e-01	9.501315e-01	9.509872e-01	9.526161e-01	9.552731e-01	9.585602e-01	9.623350e-01	9.657979e-01	9.688080e-01	9.720753e-01	9.756260e-01	9.796007e-01	9.837461e-01	9.876711e-01	9.913494e-01	9.947376e-01	9.978315e-01	1.000620e+00	1.003089e+00	1.005285e+00	1.007285e+00	1.009180e+00	1.011079e+00	1.013118e+00	1.015433e+00	1.018199e+00	1.021605e+00	1.025878e+00	1.031164e+00	1.037463e+00	1.044467e+00	1.051547e+00	1.057835e+00	1.062456e+00	1.064624e+00	1.063736e+00	1.059436e+00	1.051791e+00	1.041565e+00	1.030869e+00	1.022944e+00	1.020736e+00	1.024836e+00	1.033365e+00	1.043466e+00	1.053531e+00	1.063319e+00	1.073077e+00	1.083394e+00	
SCALARS Pressure_Coefficient float 1
LOOKUP_TABLE default
6.397296e-01	5.931255e-01	5.719033e-01	5.650889e-01	5.625286e-01	5.537696e-01	5.261891e-01	4.696112e-01	3.749335e-01	2.400292e-01	6.590157e-02	-1.721248e-01	-3.981585e-01	-4.757179e-01	-4.198186e-01	-3.003359e-01	-1.776575e-01	-8.998859e-02	-4.440659e-02	-3.646878e-02	-5.907103e-02	-1.045478e-01	-1.629038e-01	-2.288362e-01	-3.053270e-01	-3.918607e-01	-4.684198e-01	-5.100598e-01	-5.137965e-01	-4.911947e-01	-4.559140e-01	-4.174561e-01	-3.808403e-01	-3.483824e-01	-3.204175e-01	-2.966171e-01	-2.763411e-01	-2.588030e-01	-2.433765e-01	-2.293503e-01	-2.163209e-01	-2.038762e-01	-1.919303e-01	-1.804142e-01	-1.695230e-01	-1.594148e-01	-1.504367e-01	-1.428229e-01	-1.368597e-01	-1.327929e-01	-1.307938e-01	-1.310797e-01	-1.337654e-01	-1.387936e-01	-1.464465e-01	-1.561766e-01	-1.689668e-01	-1.839120e-01	-2.020419e-01	-2.222211e-01	-2.437324e-01	-2.680165e-01	-2.936222e-01	-3.202419e-01	-3.425320e-01	-3.609763e-01	-3.847709e-01	-4.311378e-01	-5.044977e-01	-5.765622e-01	-6.176005e-01	-6.264199e-01	-6.160623e-01	-5.975046e-01	-5.762859e-01	-5.532461e-01	-5.275977e-01	-4.982875e-01	-4.652578e-01	-4.286725e-01	-3.885305e-01	-3.448554e-01	-2.975020e-01	-2.464139e-01	-1.913990e-01	-1.321091e-01	-6.842741e-02	-1.024235e-05	7.381224e-02	1.533691e-01	2.397610e-01	3.346365e-01	4.396139e-01	5.578522e-01	6.925865e-01	8.434735e-01	9.984790e-01	1.145711e+00	1.167332e+00	1.098334e+00	1.009455e+00	7.703087e-01	3.945493e-01	1.406004e-01	-2.213294e-02	-1.233144e-01	-1.885072e-01	-2.355254e-01	-2.735055e-01	-3.060185e-01	-3.349512e-01	-3.616515e-01	-3.865643e-01	-4.102743e-01	-4.328570e-01	-4.542801e-01	-4.748369e-01	-4.947577e-01	-5.139566e-01	-5.322560e-01	-5.493972e-01	-5.654831e-01	-5.808658e-01	-5.957481e-01	-6.098689e-01	-6.226449e-01	-6.339371e-01	-6.442120e-01	-6.539047e-01	-6.627741e-01	-6.703656e-01	-6.764415e-01	-6.812794e-01	-6.852761e-01	-6.887912e-01	-6.919115e-01	-6.941910e-01	-6.951928e-01	-6.953899e-01	-6.988567e-01	-7.108170e-01	-7.243934e-01	-7.054439e-01	-6.031981e-01	-4.407415e-01	-3.415676e-01	-3.324974e-01	-3.626876e-01	-3.889980e-01	-3.955339e-01	-3.886366e-01	-3.796510e-01	-3.720227e-01	-3.655974e-01	-3.547031e-01	-3.352293e-01	-3.119136e-01	-2.859963e-01	-2.611441e-01	-2.405759e-01	-2.170989e-01	-1.909102e-01	-1.618358e-01	-1.306965e-01	-1.013972e-01	-7.364188e-02	-4.778196e-02	-2.392046e-02	-2.303684e-03	1.704795e-02	3.436043e-02	5.020783e-02	6.529712e-02	8.050654e-02	9.686420e-02	1.155301e-01	1.378394e-01	1.654696e-01	2.001877e-01	2.436409e-01	2.960929e-01	3.555868e-01	4.170206e-01	4.733492e-01	5.164988e-01	5.387238e-01	5.335436e-01	4.971190e-01	4.298930e-01	3.400976e-01	2.478600e-01	1.784636e-01	1.546971e-01	1.844505e-01	2.542848e-01	3.405565e-01	4.278681e-01	5.143659e-01	6.069662e-01	6.080068e-01	
SCALARS Mach float 1
LOOKUP_TABLE default
4.826882e-01	5.049187e-01	5.170221e-01	5.215675e-01	5.231665e-01	5.279404e-01	5.410329e-01	5.675105e-01	6.110786e-01	6.725577e-01	7.517485e-01	8.606748e-01	9.704962e-01	1.016683e+00	9.944153e-01	9.366223e-01	8.794079e-01	8.394466e-01	8.180346e-01	8.137653e-01	8.235384e-01	8.441490e-01	8.709756e-01	9.015850e-01	9.376052e-01	9.787134e-01	1.015650e+00	1.036015e+00	1.037509e+00	1.025945e+00	1.008407e+00	9.897429e-01	9.723633e-01	9.570673e-01	9.439998e-01	9.329011e-01	9.234821e-01	9.153934e-01	9.082525e-01	9.018017e-01	8.957893e-01	8.900785e-01	8.845823e-01	8.793118e-01	8.743175e-01	8.697046e-01	8.655991e-01	8.621345e-01	8.594166e-01	8.575784e-01	8.566646e-01	8.568152e-01	8.580525e-01	8.603621e-01	8.638631e-01	8.683331e-01	8.741974e-01	8.810029e-01	8.892937e-01	8.984759e-01	9.083305e-01	9.197341e-01	9.317106e-01	9.441655e-01	9.544977e-01	9.629183e-01	9.741953e-01	9.967807e-01	1.033343e+00	1.069401e+00	1.089935e+00	1.094039e+00	1.088426e+00	1.078763e+00	1.068061e+00	1.056497e+00	1.043801e+00	1.029443e+00	1.013314e+00	9.955665e-01	9.763203e-01	9.555420e-01	9.332366e-01	9.093572e-01	8.838106e-01	8.564007e-01	8.270175e-01	7.955319e-01	7.615370e-01	7.246254e-01	6.841746e-01	6.390822e-01	5.877811e-01	5.280148e-01	4.558220e-01	3.663076e-01	2.554430e-01	1.182681e-01	2.984463e-02	1.487673e-01	2.697209e-01	4.357544e-01	5.968895e-01	7.084141e-01	7.848624e-01	8.364026e-01	8.710386e-01	8.961206e-01	9.158605e-01	9.324550e-01	9.470666e-01	9.603604e-01	9.727227e-01	9.844705e-01	9.956361e-01	1.006241e+00	1.016415e+00	1.026263e+00	1.035822e+00	1.044965e+00	1.053562e+00	1.061679e+00	1.069446e+00	1.076934e+00	1.084102e+00	1.090626e+00	1.096442e+00	1.101701e+00	1.106682e+00	1.111246e+00	1.115199e+00	1.118370e+00	1.120913e+00	1.123005e+00	1.124852e+00	1.126520e+00	1.127731e+00	1.128249e+00	1.128242e+00	1.129750e+00	1.136385e+00	1.144381e+00	1.135165e+00	1.082602e+00	9.992180e-01	9.517281e-01	9.479414e-01	9.623555e-01	9.756668e-01	9.792518e-01	9.757801e-01	9.716517e-01	9.675400e-01	9.643868e-01	9.598286e-01	9.507652e-01	9.404700e-01	9.283900e-01	9.163546e-01	9.067743e-01	8.955498e-01	8.835172e-01	8.703887e-01	8.562651e-01	8.429179e-01	8.302608e-01	8.185116e-01	8.077107e-01	7.979082e-01	7.891765e-01	7.813701e-01	7.742133e-01	7.674029e-01	7.605376e-01	7.531294e-01	7.446610e-01	7.344697e-01	7.217902e-01	7.056960e-01	6.854428e-01	6.607837e-01	6.326039e-01	6.031989e-01	5.761676e-01	5.557015e-01	5.459037e-01	5.499507e-01	5.691920e-01	6.022345e-01	6.444814e-01	6.866912e-01	7.168992e-01	7.251747e-01	7.097720e-01	6.770296e-01	6.368147e-01	5.949096e-01	5.519537e-01	5.064475e-01	4.540819e-01	