# vtk DataFile Version 3.0
vtk output
ASCII
DATASET UNSTRUCTURED_GRID
POINTS 5233 float
9.997500e-01	-3.632897e-05	0.0	9.990000e-01	-1.452538e-04	0.0	9.977600e-01	-3.251112e-04	0.0	9.960200e-01	-5.769984e-04	0.0	9.937800e-01	-9.004365e-04	0.0	9.910500e-01	-1.293364e-03	0.0	9.878400e-01	-1.753610e-03	0.0	9.841300e-01	-2.283177e-03	0.0	9.799500e-01	-2.876826e-03	0.0	9.752800e-01	-3.536324e-03	0.0	9.701500e-01	-4.256269e-03	0.0	9.645400e-01	-5.038225e-03	0.0	9.584700e-01	-5.878077e-03	0.0	9.519400e-01	-6.774429e-03	0.0	9.449600e-01	-7.724467e-03	0.0	9.375400e-01	-8.725349e-03	0.0	9.296900e-01	-9.774221e-03	0.0	9.214000e-01	-1.087086e-02	0.0	9.127000e-01	-1.200973e-02	0.0	9.035800e-01	-1.319056e-02	0.0	8.940600e-01	-1.440916e-02	0.0	8.841500e-01	-1.566269e-02	0.0	8.738500e-01	-1.694956e-02	0.0	8.631800e-01	-1.826569e-02	0.0	8.521600e-01	-1.960709e-02	0.0	8.407700e-01	-2.097463e-02	0.0	8.290500e-01	-2.236196e-02	0.0	8.170100e-01	-2.376642e-02	0.0	8.046400e-01	-2.518764e-02	0.0	7.919700e-01	-2.662063e-02	0.0	7.790100e-01	-2.806277e-02	0.0	7.657800e-01	-2.951034e-02	0.0	7.522800e-01	-3.096181e-02	0.0	7.385200e-01	-3.241453e-02	0.0	7.245300e-01	-3.386377e-02	0.0	7.103200e-01	-3.530689e-02	0.0	6.958900e-01	-3.674225e-02	0.0	6.812700e-01	-3.816515e-02	0.0	6.664700e-01	-3.957289e-02	0.0	6.515000e-01	-4.096270e-02	0.0	6.363800e-01	-4.233084e-02	0.0	6.211300e-01	-4.367359e-02	0.0	6.057600e-01	-4.498807e-02	0.0	5.902800e-01	-4.627133e-02	0.0	5.747100e-01	-4.751951e-02	0.0	5.590600e-01	-4.872956e-02	0.0	5.433600e-01	-4.989684e-02	0.0	5.276100e-01	-5.101898e-02	0.0	5.118400e-01	-5.209138e-02	0.0	4.960500e-01	-5.311154e-02	0.0	4.802700e-01	-5.407492e-02	0.0	4.645100e-01	-5.497836e-02	0.0	4.487800e-01	-5.581860e-02	0.0	4.331100e-01	-5.659142e-02	0.0	4.175000e-01	-5.729417e-02	0.0	4.019700e-01	-5.792324e-02	0.0	3.865400e-01	-5.847521e-02	0.0	3.712300e-01	-5.894684e-02	0.0	3.560400e-01	-5.933562e-02	0.0	3.409900e-01	-5.963848e-02	0.0	3.261100e-01	-5.985254e-02	0.0	3.114000e-01	-5.997565e-02	0.0	2.968700e-01	-6.000550e-02	0.0	2.825500e-01	-5.994005e-02	0.0	2.684500e-01	-5.977766e-02	0.0	2.545700e-01	-5.951658e-02	0.0	2.409400e-01	-5.915586e-02	0.0	2.275700e-01	-5.869457e-02	0.0	2.144700e-01	-5.813197e-02	0.0	2.016600e-01	-5.746811e-02	0.0	1.891400e-01	-5.670228e-02	0.0	1.769300e-01	-5.583514e-02	0.0	1.650400e-01	-5.486709e-02	0.0	1.534900e-01	-5.379978e-02	0.0	1.422900e-01	-5.263443e-02	0.0	1.314400e-01	-5.137134e-02	0.0	1.209500e-01	-5.001187e-02	0.0	1.108500e-01	-4.856067e-02	0.0	1.011300e-01	-4.701715e-02	0.0	9.181000e-02	-4.538527e-02	0.0	8.290000e-02	-4.366791e-02	0.0	7.440000e-02	-4.186608e-02	0.0	6.633000e-02	-3.998514e-02	0.0	5.869000e-02	-3.802636e-02	0.0	5.149000e-02	-3.599338e-02	0.0	4.474000e-02	-3.389028e-02	0.0	3.844000e-02	-3.171811e-02	0.0	3.260000e-02	-2.948109e-02	0.0	2.723000e-02	-2.718420e-02	0.0	2.232000e-02	-2.482329e-02	0.0	1.790000e-02	-2.241365e-02	0.0	1.395000e-02	-1.994492e-02	0.0	1.049000e-02	-1.742916e-02	0.0	7.520000e-03	-1.486756e-02	0.0	5.040000e-03	-1.226032e-02	0.0	3.050000e-03	-9.605565e-03	0.0	1.560000e-03	-6.917518e-03	0.0	5.600000e-04	-4.173160e-03	0.0	6.000000e-05	-1.375330e-03	0.0	0.000000e+00	0.000000e+00	0.0	6.000000e-05	1.055584e-03	0.0	5.600000e-04	1.842076e-03	0.0	1.560000e-03	1.269519e-03	0.0	3.050000e-03	-2.714041e-04	0.0	5.040000e-03	-2.495206e-03	0.0	7.520000e-03	-5.136748e-03	0.0	1.049000e-02	-7.971092e-03	0.0	1.395000e-02	-1.079758e-02	0.0	1.790000e-02	-1.343722e-02	0.0	2.232000e-02	-1.572269e-02	0.0	2.723000e-02	-1.753049e-02	0.0	3.260000e-02	-1.873753e-02	0.0	3.844000e-02	-1.925777e-02	0.0	4.474000e-02	-1.902116e-02	0.0	5.149000e-02	-1.798177e-02	0.0	5.869000e-02	-1.611376e-02	0.0	6.633000e-02	-1.341388e-02	0.0	7.440000e-02	-9.900562e-03	0.0	8.290000e-02	-5.607272e-03	0.0	9.181000e-02	-5.960531e-04	0.0	1.011300e-01	5.063999e-03	0.0	1.108500e-01	1.128285e-02	0.0	1.209500e-01	1.794955e-02	0.0	1.314400e-01	2.496093e-02	0.0	1.422900e-01	3.217747e-02	0.0	1.534900e-01	3.946579e-02	0.0	1.650400e-01	4.669408e-02	0.0	1.769300e-01	5.372123e-02	0.0	1.891400e-01	6.040091e-02	0.0	2.016600e-01	6.659630e-02	0.0	2.144700e-01	7.217238e-02	0.0	2.275700e-01	7.701197e-02	0.0	2.409400e-01	8.100110e-02	0.0	2.545700e-01	8.404429e-02	0.0	2.684500e-01	8.606235e-02	0.0	2.825500e-01	8.699413e-02	0.0	2.968700e-01	8.680387e-02	0.0	3.114000e-01	8.547628e-02	0.0	3.261100e-01	8.302392e-02	0.0	3.409900e-01	7.948409e-02	0.0	3.560400e-01	7.491515e-02	0.0	3.712300e-01	6.940889e-02	0.0	3.865400e-01	6.307976e-02	0.0	4.019700e-01	5.605450e-02	0.0	4.175000e-01	4.848543e-02	0.0	4.331100e-01	4.053897e-02	0.0	4.487800e-01	3.238987e-02	0.0	4.645100e-01	2.420427e-02	0.0	4.802700e-01	1.615928e-02	0.0	4.960500e-01	8.410156e-03	0.0	5.118400e-01	1.094423e-03	0.0	5.276100e-01	-5.665594e-03	0.0	5.433600e-01	-1.179006e-02	0.0	5.590600e-01	-1.721954e-02	0.0	5.747100e-01	-2.193956e-02	0.0	5.902800e-01	-2.595879e-02	0.0	6.057600e-01	-2.932148e-02	0.0	6.211300e-01	-3.209202e-02	0.0	6.363800e-01	-3.435014e-02	0.0	6.515000e-01	-3.617722e-02	0.0	6.664700e-01	-3.764300e-02	0.0	6.812700e-01	-3.879448e-02	0.0	6.958900e-01	-3.964428e-02	0.0	7.103200e-01	-4.015994e-02	0.0	7.245300e-01	-4.025827e-02	0.0	7.385200e-01	-3.980662e-02	0.0	7.522800e-01	-3.862739e-02	0.0	7.657800e-01	-3.651638e-02	0.0	7.790100e-01	-3.326278e-02	0.0	7.919700e-01	-2.867493e-02	0.0	8.046400e-01	-2.262564e-02	0.0	8.170100e-01	-1.508264e-02	0.0	8.290500e-01	-6.162591e-03	0.0	8.407700e-01	3.885805e-03	0.0	8.521600e-01	1.463366e-02	0.0	8.631800e-01	2.546642e-02	0.0	8.738500e-01	3.571740e-02	0.0	8.841500e-01	4.464203e-02	0.0	8.940600e-01	5.155331e-02	0.0	9.035800e-01	5.593508e-02	0.0	9.127000e-01	5.750217e-02	0.0	9.214000e-01	5.626667e-02	0.0	9.296900e-01	5.253411e-02	0.0	9.375400e-01	4.687203e-02	0.0	9.449600e-01	3.998106e-02	0.0	9.519400e-01	3.260570e-02	0.0	9.584700e-01	2.539868e-02	0.0	9.645400e-01	1.879102e-02	0.0	9.701500e-01	1.285051e-02	0.0	9.752800e-01	7.215484e-03	0.0	9.799500e-01	3.717357e-02	0.0	9.841300e-01	-3.394878e-02	0.0	9.878400e-01	4.148385e-02	0.0	9.910500e-01	-5.432498e-02	0.0	9.937800e-01	6.046039e-02	0.0	9.960200e-01	-4.183919e-03	0.0	9.977600e-01	-8.944623e-04	0.0	9.990000e-01	1.204176e-05	0.0	9.997500e-01	3.403630e-05	0.0	1.000000e+00	0.000000e+00	0.0	1.984229e+01	2.506660e+00	0.0	1.937166e+01	4.973800e+00	0.0	1.859553e+01	7.362490e+00	0.0	1.752613e+01	9.635070e+00	0.0	1.618034e+01	1.175571e+01	0.0	1.457937e+01	1.369094e+01	0.0	1.274848e+01	1.541027e+01	0.0	1.071654e+01	1.688656e+01	0.0	8.515590e+00	1.809654e+01	0.0	6.180340e+00	1.902113e+01	0.0	3.747630e+00	1.964575e+01	0.0	1.255810e+00	1.996053e+01	0.0	-1.255810e+00	1.996053e+01	0.0	-3.747630e+00	1.964574e+01	0.0	-6.180340e+00	1.902113e+01	0.0	-8.515590e+00	1.809654e+01	0.0	-1.071654e+01	1.688656e+01	0.0	-1.274848e+01	1.541026e+01	0.0	-1.457937e+01	1.369094e+01	0.0	-1.618034e+01	1.175570e+01	0.0	-1.752613e+01	9.635070e+00	0.0	-1.859553e+01	7.362490e+00	0.0	-1.937166e+01	4.973800e+00	0.0	-1.984229e+01	2.506660e+00	0.0	-2.000000e+01	0.000000e+00	0.0	-1.984229e+01	-2.506670e+00	0.0	-1.937166e+01	-4.973800e+00	0.0	-1.859553e+01	-7.362490e+00	0.0	-1.752613e+01	-9.635080e+00	0.0	-1.618034e+01	-1.175571e+01	0.0	-1.457937e+01	-1.369094e+01	0.0	-1.274848e+01	-1.541027e+01	0.0	-1.071653e+01	-1.688656e+01	0.0	-8.515580e+00	-1.809654e+01	0.0	-6.180340e+00	-1.902113e+01	0.0	-3.747620e+00	-1.964575e+01	0.0	-1.255810e+00	-1.996053e+01	0.0	1.255810e+00	-1.996053e+01	0.0	3.747630e+00	-1.964574e+01	0.0	6.180340e+00	-1.902113e+01	0.0	8.515590e+00	-1.809654e+01	0.0	1.071654e+01	-1.688656e+01	0.0	1.274848e+01	-1.541026e+01	0.0	1.457937e+01	-1.369094e+01	0.0	1.618034e+01	-1.175570e+01	0.0	1.752614e+01	-9.635070e+00	0.0	1.859553e+01	-7.362490e+00	0.0	1.937166e+01	-4.973790e+00	0.0	1.984229e+01	-2.506660e+00	0.0	2.000000e+01	0.000000e+00	0.0	6.060873e-02	-4.570074e-02	0.0	6.601694e-01	-5.389492e-02	0.0	4.286832e-01	5.838763e-02	0.0	6.887534e-01	-2.374221e-02	0.0	3.792306e-01	-7.266782e-02	0.0	9.990253e-01	-1.065896e-03	0.0	9.978935e-01	-1.658976e-03	0.0	7.735745e-01	-4.078462e-02	0.0	6.897902e-01	-5.075267e-02	0.0	4.104918e-04	2.631512e-03	0.0	7.465980e-01	-4.417498e-02	0.0	5.850558e-01	-7.493518e-03	0.0	9.919665e-01	-3.806479e-03	0.0	9.890725e-01	-4.633911e-03	0.0	6.002795e-01	-1.132586e-02	0.0	7.186392e-01	-4.750075e-02	0.0	-9.240484e-04	2.399915e-04	0.0	9.856980e-01	-5.539229e-03	0.0	9.818436e-01	-6.506502e-03	0.0	-8.010717e-04	-6.215445e-03	0.0	6.451092e-01	-5.541701e-02	0.0	8.241141e-01	-3.395437e-02	0.0	7.994408e-01	-3.737568e-02	0.0	3.501258e-01	8.866372e-02	0.0	8.474675e-01	-3.056812e-02	0.0	2.459710e-01	9.209505e-02	0.0	8.694365e-01	-2.722521e-02	0.0	1.325684e-02	-3.741274e-03	0.0	8.899093e-01	-2.396076e-02	0.0	7.686891e-02	-5.029022e-02	0.0	9.088147e-01	-2.080801e-02	0.0	-1.170447e-03	-2.997309e-03	0.0	9.416280e-01	-1.494118e-02	0.0	9.260778e-01	-1.779262e-02	0.0	1.798631e-02	-2.726002e-02	0.0	4.258591e-01	-7.116969e-02	0.0	8.586348e-01	-2.888690e-02	0.0	9.554227e-01	-1.227443e-02	0.0	9.775023e-01	-7.555230e-03	0.0	9.674025e-01	-9.801615e-03	0.0	1.581364e-01	-6.478420e-02	0.0	8.995646e-01	-2.236888e-02	0.0	7.602195e-01	-4.248540e-02	0.0	9.963419e-01	-2.373522e-03	0.0	5.991128e-01	-5.974386e-02	0.0	4.415625e-01	-7.049386e-02	0.0	5.364277e-01	-6.482056e-02	0.0	4.731335e-01	-6.889864e-02	0.0	5.047920e-01	-6.699990e-02	0.0	4.889510e-01	-6.798527e-02	0.0	1.247955e-01	-6.011667e-02	0.0	2.781320e-02	-3.287540e-02	0.0	3.946812e-01	-7.226059e-02	0.0	4.611478e-02	-4.079489e-02	0.0	4.102253e-01	-7.176089e-02	0.0	3.187847e-01	-7.331755e-02	0.0	3.487049e-01	-7.319834e-02	0.0	3.344888e-02	-3.557259e-02	0.0	2.895518e-01	-7.301732e-02	0.0	9.340708e-01	-1.634351e-02	0.0	1.466664e-01	-6.333299e-02	0.0	1.945624e-01	-6.845658e-02	0.0	8.563775e-02	-5.245130e-02	0.0	1.044262e-01	-5.649191e-02	0.0	5.679132e-01	-6.239842e-02	0.0	1.699526e-01	-6.612517e-02	0.0	6.145727e-01	-5.834172e-02	0.0	8.798684e-01	-2.558200e-02	0.0	2.266966e-02	-3.010254e-02	0.0	9.943849e-01	-3.065837e-03	0.0	6.917767e-03	-1.848150e-02	0.0	2.140867e-02	-7.326202
[...]
POINT_DATA 5233

SCALARS Conservative_1 float 1
LOOKUP_TABLE default
1.390300e+100	2.827496e+99	3.572303e+99	7.428000e+98	9.804461e+98	5.860207e+98	3.575306e+98	2.854666e+97	9.610803e+97	1.593661e+97	1.570049e+97	7.613035e+96	1.226897e+97	3.192530e+96	3.403861e+96	3.884221e+96	1.069764e+97	6.904199e+96	7.246965e+96	3.782949e+96	6.759699e+96	4.355556e+96	4.886965e+96	2.806875e+96	4.476816e+96	1.525754e+96	2.565273e+96	3.276276e+96	3.270609e+96	2.074561e+96	2.129950e+96	1.908249e+96	1.869760e+96	1.692191e+96	2.093510e+96	1.326938e+96	1.260726e+96	1.240367e+96	1.189541e+96	1.330170e+96	1.289122e+96	1.339912e+96	1.301180e+96	1.298364e+96	1.276683e+96	1.335247e+96	1.320718e+96	1.474114e+96	1.469279e+96	1.442611e+96	1.430035e+96	1.456264e+96	1.447007e+96	1.514285e+96	1.495865e+96	1.536091e+96	1.513586e+96	1.481100e+96	1.494996e+96	1.462505e+96	1.473855e+96	1.331180e+96	1.338365e+96	1.236493e+96	1.231072e+96	1.118326e+96	1.110799e+96	1.088924e+96	1.079548e+96	9.683278e+95	9.789639e+95	8.341318e+95	8.392922e+95	8.139524e+95	8.129922e+95	8.125222e+95	8.073195e+95	8.678120e+95	8.383066e+95	7.360103e+95	7.304284e+95	7.189023e+95	7.141734e+95	6.413412e+95	6.421854e+95	5.683335e+95	5.646732e+95	3.987256e+95	4.015064e+95	2.701062e+95	2.747436e+95	1.649632e+95	1.641741e+95	7.627099e+94	7.627017e+94	3.221757e+94	3.519705e+94	9.203094e+93	9.198036e+93	7.998928e+93	8.049595e+93	6.274963e+94	6.289805e+94	2.092982e+95	2.092374e+95	2.506440e+95	2.507772e+95	2.417986e+95	2.417269e+95	2.227638e+95	2.226775e+95	2.025991e+95	2.025819e+95	1.721616e+95	1.720895e+95	1.660326e+95	1.659452e+95	1.731373e+95	1.731199e+95	1.618358e+95	1.618255e+95	1.533549e+95	1.533609e+95	1.736147e+95	1.736219e+95	4.539897e+95	4.540013e+95	4.234270e+95	4.234589e+95	3.602943e+95	3.603329e+95	1.602358e+96	1.602402e+96	9.663581e+96	9.663617e+96	1.180265e+96	1.180311e+96	2.286014e+96	2.286062e+96	4.681695e+96	4.681683e+96	5.420312e+96	5.420322e+96	5.527806e+96	5.527915e+96	5.222998e+96	5.222956e+96	3.202542e+96	3.202590e+96	3.903187e+96	3.903274e+96	4.340450e+96	4.340442e+96	5.289579e+96	5.289664e+96	7.966957e+96	7.966916e+96	5.487234e+96	5.487258e+96	6.490178e+96	6.490163e+96	1.037123e+97	1.037128e+97	2.193800e+97	2.193855e+97	8.621266e+96	8.622369e+96	1.826056e+97	1.826421e+97	2.321837e+97	2.323038e+97	2.479398e+97	2.482349e+97	2.148276e+97	2.156871e+97	3.599241e+97	3.614691e+97	4.081977e+97	4.141925e+97	4.713408e+96	3.951516e+96	1.104376e+98	1.083440e+98	8.130099e+97	7.314998e+97	1.131457e+98	7.739842e+97	4.713906e+98	5.239657e+98	2.171309e+99	2.440340e+98	2.656190e+100	9.163016e+99	3.858242e+101	3.862870e+101	2.472093e+101	3.106418e+101	6.958826e+94	1.390078e+100	1.389888e+100	1.531361e+97	1.665224e+97	9.338229e+96	9.467817e+96	4.926761e+97	6.007997e+97	4.660233e+97	4.030816e+97	5.592320e+99	4.558537e+99	2.625349e+99	2.651844e+99	3.690131e+98	3.692075e+98	5.018697e+97	5.017408e+97	6.522514e+97	6.521352e+97	2.093692e+97	2.093812e+97	7.919721e+96	7.915575e+96	7.544253e+95	7.572073e+95	2.585016e+95	2.563614e+95	1.632287e+95	1.811394e+95	1.578921e+95	8.595053e+94	7.907166e+94	7.906585e+94	9.783307e+94	9.980071e+94	8.230236e+94	8.748012e+94	5.677068e+94	5.404672e+94	2.602927e+94	2.676246e+94	3.049233e+94	3.024461e+94	4.221788e+94	4.223177e+94	1.633134e+95	1.639404e+95	2.748575e+95	2.779708e+95	5.502983e+95	1.347937e+97	6.061695e+95	1.520199e+96	5.222919e+96	1.037099e+97	1.539824e+96	1.926591e+99	7.833384e+99	2.081973e+96	1.547289e+96	6.280671e+94	1.265246e+96	7.967001e+96	4.215247e+98	1.873469e+98	7.966941e+96	1.744440e+96	8.012132e+93	9.084288e+97	2.784372e+97	1.227204e+94	1.444116e+96	1.661024e+96	2.161695e+96	4.681741e+96	4.155130e+96	9.663686e+96	4.290743e+96	2.416645e+95	4.903757e+96	7.241508e+95	5.982348e+96	1.213682e+94	1.289874e+96	5.428508e+96	2.641622e+95	1.589887e+96	1.993386e+96	1.905037e+96	7.178774e+96	8.681826e+96	8.586326e+95	2.355767e+96	1.859367e+96	1.415872e+98	1.386897e+96	1.574915e+96	1.518261e+96	1.536245e+96	1.461183e+96	1.488183e+96	8.012997e+95	3.723025e+95	1.567905e+96	5.423014e+95	1.566105e+96	1.505557e+96	1.637271e+96	3.732877e+95	1.337077e+96	1.513177e+96	8.213100e+95	1.005258e+96	7.350604e+95	8.468790e+95	1.389822e+96	8.924477e+95	1.402480e+96	2.381378e+96	2.635913e+95	9.228754e+98	7.630493e+94	2.226435e+95	4.481409e+96	8.700778e+96	1.996712e+97	2.092666e+95	3.171899e+96	1.161347e+96	1.384494e+96	1.100081e+96	2.186089e+96	8.173101e+95	1.119337e+96	1.335053e+96	1.435307e+96	6.062991e+95	7.625795e+94	1.618289e+95	1.575493e+96	9.005522e+95	1.389814e+100	1.138591e+96	7.326642e+95	1.455142e+96	1.177860e+96	1.532418e+96	1.619014e+96	6.263523e+94	3.220050e+94	4.340451e+96	7.968026e+93	2.024201e+95	1.659752e+95	1.719618e+95	1.534364e+95	5.527910e+96	3.549804e+101	4.340332e+96	3.202698e+96	2.671878e+98	6.821353e+98	4.093797e+97	3.903243e+96	5.222867e+96	5.420371e+96	1.194138e+98	6.010567e+96	1.731373e+95	2.667530e+98	1.207223e+98	1.099247e+98	1.618670e+95	1.659491e+95	1.180390e+96	9.663739e+96	4.235306e+95	2.286090e+96	3.202647e+96	5.527911e+96	4.540873e+95	1.737052e+95	5.487241e+96	3.604027e+95	1.602469e+96	6.490108e+96	5.289717e+96	8.620653e+96	2.193840e+97	2.323673e+97	1.826099e+97	2.160186e+97	2.481625e+97	1.406886e+96	3.640191e+97	1.137766e+98	1.155378e+98	6.445392e+98	3.615671e+97	4.160034e+97	2.480756e+97	2.140774e+97	1.825865e+97	2.321534e+97	2.193730e+97	8.620142e+96	6.490335e+96	1.037125e+97	5.289694e+96	5.487298e+96	3.604110e+95	1.602497e+96	4.540907e+95	4.235749e+95	1.719453e+95	1.737092e+95	2.416597e+95	2.023775e+95	1.007300e+96	2.505544e+95	1.287095e+97	1.426813e+96	1.683892e+96	1.512018e+96	2.093182e+95	2.225883e+95	2.506163e+95	1.618536e+95	1.731498e+95	1.180352e+96	1.534166e+95	2.656427e+100	2.839096e+100	2.286055e+96	2.731338e+101	2.809089e+101	4.681723e+96	5.420231e+96	8.726759e+97	1.391032e+100	7.029773e+94	6.940633e+94	1.466840e+96	5.298121e+95	2.589330e+101	3.903192e+96	3.213749e+94	1.598598e+95	7.206580e+95	8.126045e+95	1.299786e+96	3.862419e+95	4.350464e+94	4.335540e+94	1.419405e+96	1.094166e+96	7.092115e+96	2.657911e+95	4.649852e+96	1.140403e+96	1.407406e+96	1.173094e+98	1.359735e+96	3.090641e+96	2.300732e+96	1.031808e+96	6.219405e+94	1.289248e+96	5.679150e+95	6.484807e+96	1.364215e+96	1.357158e+96	1.152036e+96	1.224110e+96	1.462590e+96	1.864868e+96	5.471021e+96	2.732780e+96	1.907999e+95	1.785649e+95	3.262269e+97	9.570985e+97	5.221793e+95	3.262231e+97	2.400836e+96	1.145561e+98	2.490216e+100	7.777570e+96	3.226485e+97	3.195802e+98	4.115908e+98	6.817962e+101	7.309949e+98	1.449030e+97	7.962341e+96	7.777547e+96	7.962312e+96	6.814433e+95	1.294834e+96	1.289296e+96	1.908448e+95	9.667030e+95	2.220463e+95	5.967706e+99	6.817947e+101	5.214111e+97	1.165222e+96	1.391269e+100	2.138289e+103	2.307213e+103	1.842852e+95	1.207458e+95	2.556900e+95	2.658405e+94	1.780277e+94	6.298963e+95	1.389735e+100	1.289748e+96	1.679476e+99	1.371774e+98	7.944750e+96	9.183974e+95	6.896337e+97	4.115853e+96	7.344662e+96	1.514184e+98	2.687501e+94	1.161631e+96	8.691463e+96	3.424749e+96	1.958639e+97	3.716948e+96	3.059416e+96	1.333534e+96	4.842949e+96	1.043372e+97	8.494544e+96	7.207292e+95	6.421020e+96	3.835315e+96	1.926362e+97	1.326562e+96	1.375435e+96	1.403243e+96	2.085457e+98	1.413720e+96	8.979273e+95	1.021978e+96	8.370908e+95	1.797265e+96	1.166516e+96	1.679945e+96	1.163630e+96	4.600897e+96	8.334054e+96	1.306178e+96	1.162569e+96	1.018844e+96	1.092298e+96	1.284009e+97	9.081697e+97	1.055726e+96	1.373566e+96	1.032270e+96	1.390030e+96	9.664206e+95	9.887216e+95	9.863439e+95	8.888076e+95	4.893998e+95	2.045751e+96	1.979100e+96	1.177677e+96	1.301181e+96	1.341839e+96	1.397815e+96	1.392087e+96	1.425520e+96	1.450089e+96	1.776011e+94	1.741906e+95	2.220705e+95	3.320160e+99	3.226494e+97	3.705697e+97	1.371565e+97	1.371571e+97	6.010463e+99	4.643518e+99	1.110789e+99	1.049694e+97	7.945090e+96	8.691375e+96	9.065973e+98	1.114400e+99	2.807323e+95	2.807478e+95	2.184036e+96	2.184085e+96	1.365926e+96	9.666913e+95	5.222140e+95	1.282257e+98	2.807652e+97	9.096211e+97	1.282018e+98	7.806996e+96	5.672465e+97	1.141616e+98	9.614038e+97	7.810615e+96	8.071179e+97	2.115159e+98	2.807776e+97	6.682928e+97	6.682855e+97	3.970411e+97	9.444751e+96	3.302009e+97	3.301988e+97	9.444835e+96	7.344550e+96	6.119400e+96	1.619279e+97	2.400883e+96	2.400856e+96	1.785873e+95	2.156249e+95	1.771526e+95	1.328787e+96	1.747335e+96	9.053116e+95	9.836804e+95	1.843162e+95	1.772047e+95	4.202854e+95	4.202635e+95	6.490277e+96	6.490216e+96	8.917031e+96	7.777628e+96	8.222423e+98	9.153793e+98	1.030875e+96	1.133713e+96	7.809691e+95	6.245219e+94	1.363444e+96	2.655354e+94	1.476233e+96	1.680942e+96	2.355960e+96	9.547685e+95	3.016391e+96	6.817970e+101	8.319848e+99	6.204882e+99	1.842969e+95	6.818004e+101	9.661485e+97	8.182448e+99	1.632880e+99	1.389819e+100	6.775040e+95	1.873136e+94	1.130617e+96	5.101384e+96	6.546650e+97	4.650379e+96	1.848693e+99	2.446285e+95	1.825841e+96	1.698105e+95	1.569989e+96	4.831102e+95	2.493278e+96	4.600925e+95	1.638423e+96	3.952635e+96	1.675651e+96	5.839169e+98	4.322408e+95	1.413160e+97	3.226561e+97	5.672573e+99	3.970431e+97	2.314104e+103	3.705752e+97	1.958654e+97	1.081087e+97	1.365991e+96	3.862621e+95	9.660593e+97	6.241701e+94	1.206599e+95	1.785342e+95	4.339482e+94	1.052523e+97	1.148534e+96	1.782460e+94	1.334660e+96	1.978834e+96	6.835835e+95	1.908126e+95	4.522379e+98	1.282479e+98	3.262287e+97	4.279448e+97	3.713539e+99	3.197620e+98	4.131356e+98	6.490473e+96	1.958660e+97	7.962438e+96	6.814941e+95	1.517006e+96	1.482875e+96	1.195487e+96	1.908025e+95	1.365973e+96	5.984452e+99	2.138317e+103	1.940748e+95	1.207920e+95	1.673722e+95	2.689456e+94	8.127085e+95	4.426319e+99	4.159022e+99	3.227629e+97	4.770019e+97	4.650719e+96	1.182474e+96	1.064013e+97	3.230386e+96	2.193760e+96	3.836280e+96	3.699235e+96	1.090211e+96	1.153421e+96	4.789514e+96	8.176743e+96	3.817254e+96	1.797269e+97	7.648617e+97	2.496906e+96	2.004390e+96	5.488655e+98	2.005621e+96	8.958030e+95	1.377241e+96	1.225358e+96	9.239411e+95	4.804068e+96	8.282768e+96	1.106536e+96	1.283261e+96	9.352490e+95	9.598681e+95	4.818219e+96	2.855773e+97	2.058615e+96	1.943495e+96	1.198490e+96	1.215845e+96	1.224508e+96	1.043266e+96	1.147245e+96	9.257900e+95	9.497253e+95	9.886572e+95	1.554942e+96	1.283381e+96	1.124826e+96	1.239204e+96	1.257682e+96	1.392090e+96	1.676232e+96	1.515470e+96	1.740101e+96	1.671033e+96	1.562934e+96	2.220618e+95	3.705594e+97	1.371625e+97	6.325256e+99	1.049714e+97	1.049727e+97	1.064023e+97	1.090867e+97	9.222021e+98	2.807431e+95	2.220146e+95	2.184233e+96	7.962521e+96	9.667376e+95	9.660258e+95	9.660274e+95	9.096569e+97	9.103391e+98	2.083591e+98	1.152520e+98	9.705802e+97	9.652770e+97	8.023065e+96	8.081488e+97	8.074566e+97	2.115380e+98	2.115237e+98	2.809464e+97	9.096493e+97	6.682996e+97	6.682999e+97	3.970502e+97	3.302083e+97	3.302027e+97	9.445813e+96	9.445965e+96	7.346186e+96	6.119522e+96	1.619285e+97	1.619282e+97	2.497399e+96	2.497332e+96	2.156221e+95	2.156527e+95	2.283378e+96	2.777021e+96	2.593692e+96	8.827191e+95	9.728154e+95	1.771467e+95	1.785042e+95	6.814576e+95	4.203128e+95	3.862850e+95	6.490382e+96	8.917152e+96	8.917183e+96	1.081083e+97	3.114852e+98	8.135571e+98	9.264678e+98	1.141188e+96	1.189034e+96	1.043094e+96	1.603513e+96	1.629941e+96	1.208796e+95	1.679650e+96	9.759758e+99	5.835007e+101	9.432986e+95	2.640556e+94	1.601825e+99	6.093213e+96	5.543141e+96	1.116024e+96	4.613575e+100	2.052774e+97	1.203586e+95	2.264641e+95	3.972071e+95	7.741170e+100	3.235401e+102	7.476840e+94	2.048551e+98	1.858181e+95	7.430587e+99	5.619940e+99	1.676908e+96	1.669637e+96	1.452658e+96	2.194437e+96	1.698162e+96	2.159673e+96	1.635629e+96	4.430758e+99	1.569646e+98	4.785798e+99	3.807197e+99	3.822804e+97	2.279462e+96	7.760552e+97	3.749229e+97	4.524040e+95	4.682004e+96	1.746192e+98	5.034517e+99	2.719251e+97	1.855783e+96	9.321340e+95	1.425679e+96	3.783840e+95	1.657435e+96	1.468162e+96	7.762344e+95	7.673314e+96	7.510460e+95	4.529434e+98	1.069228e+98	1.169548e+97	2.646019e+94	2.265357e+95	2.048551e+98	3.223537e+98	1.081087e+97	1.169552e+97	1.509050e+97	1.566896e+96	1.938180e+96	7.703521e+97	1.941299e+95	1.940957e+95	3.023385e+95	7.158346e+94	1.124878e+96	9.530873e+96	2.797870e+97	1.569645e+98	3.361453e+96	2.334545e+96	4.141512e+96	3.104834e+96	1.480826e+96	1.751040e+96	4.908517e+96	2.689234e+96	5.688332e+96	1.240612e+97	1.052747e+97	2.042880e+96	2.342049e+96	6.812697e+96	1.286483e+96	2.769374e+96	2.261719e+96	1.921935e+96	7.930278e+96	8.802427e+96	1.379642e+96	1.647932e+96	1.069392e+96	7.204304e+97	7.319266e+97	1.456173e+96	2.537358e+96	1.679231e+96	1.562850e+96	1.423132e+96	7.370167e+95	7.951362e+95	1.536146e+96	1.477854e+96	1.523404e+96	1.487004e+96	1.675457e+96	3.146436e+96	1.661667e+96	1.772839e+96	1.202504e+96	1.306766e+96	1.371348e+96	1.458018e+96	1.404059e+96	2.134857e+96	1.660190e+96	1.807113e+96	2.052801e+97	1.146408e+97	7.741620e+100	2.140947e+97	2.141023e+97	1.064029e+97	1.063996e+97	1.090884e+97	4.523874e+95	3.055483e+95	7.760542e+97	6.450544e+96	1.584532e+96	1.584493e+96	9.660963e+95	1.037662e+96	8.504520e+98	2.230675e+98	2.123990e+98	1.124632e+99	4.255054e+98	4.249807e+98	4.529361e+98	1.304249e+98	1.302275e+98	3.822384e+97	1.852880e+98	8.953229e+97	8.953779e+97	8.952718e+97	4.111251e+98	4.111243e+98	4.111221e+98	1.069231e+98	6.114675e+97	2.048568e+98	5.116753e+97	1.511983e+98	1.511979e+98	6.450449e+96	4.927538e+96	7.392917e+96	2.497527e+96	2.497481e+96	2.279477e+96	3.055759e+95	3.103066e+95	2.066573e+96	2.360765e+96	2.564073e+96	2.360873e+96	1.011201e+96	7.952850e+95	2.341241e+95	2.341310e+95	2.380821e+95	1.037616e+96	6.464200e+95	6.463839e+95	6.909986e+95	1.090886e+97	1.093635e+97	1.093624e+97	1.081107e+97	3.443897e+99	3.494955e+99	3.536085e+99	9.953396e+95	1.019126e+96	1.395426e+96	1.357299e+96	1.656769e+96	1.458370e+96	1.668910e+96	9.760314e+95	9.783431e+99	7.920387e+96	7.430735e+99	6.683474e+95	2.023497e+96	1.347689e+96	6.752294e+95	5.835006e+101	2.970392e+95	1.259538e+96	1.575561e+96	2.279444e+96	2.264135e+95	1.857865e+95	2.640126e+94	1.879111e+94	3.162003e+94	3.154612e+94	2.985711e+95	1.714220e+98	1.020317e+97	6.251064e+96	2.794439e+97	5.214079e+96	3.100725e+96	1.133887e+96	2.022499e+101	8.043079e+98	3.629527e+99	2.037709e+98	2.037701e+98	2.048641e+98	2.386861e+98	2.052925e+97	8.701421e+95	1.020310e+97	4.881859e+100	1.316832e+96	9.664117e+97	5.860915e+101	3.171387e+94	4.163330e+99	3.778129e+99	2.123679e+96	1.280314e+96	1.211190e+95	2.380451e+95	5.579619e+95	3.428451e+100	7.469084e+94	4.977337e+99	5.639574e+99	1.090996e+96	1.061903e+96	1.804617e+96	5.034026e+99	1.569670e+98	3.428779e+100	2.510530e+97	2.340325e+96	7.463843e+94	1.169562e+97	1.509076e+97	1.509078e+97	1.378162e+96	2.357827e+95	2.357994e+95	7.089206e+94	1.087140e+96	4.714911e+96	2.806825e+96	2.639169e+96	3.502525e+96	1.280245e+96	1.210308e+96	4.423299e+96	5.422570e+96	5.119942e+96	2.666566e+96	7.052156e+96	8.063832e+96	1.547938e+96	3.049820e+97	8.871405e+95	8.896336e+95	1.132728e+96	9.166192e+95	9.553596e+96	6.264649e+96	1.081616e+96	1.577945e+96	1.809897e+97	4.112977e+97	3.459798e+96	1.198183e+96	1.421574e+96	1.037573e+96	8.410337e+95	1.138341e+96	1.264319e+96	1.263886e+96	1.405619e+96	1.157175e+96	1.698277e+96	2.129225e+96	2.128379e+96	2.128599e+96	1.273972e+96	1.330983e+96	9.609972e+95	1.113509e+96	1.622071e+96	3.085669e+101	7.742046e+100	7.741578e+100	2.052771e+97	2.141163e+97	2.141112e+97	1.513230e+97	1.513118e+97	4.524727e+95	5.203367e+95	1.812819e+97	1.812810e+97	1.584537e+96	1.975354e+96	1.975317e+96	9.560640e+98	9.364511e+98	9.274307e+98	4.968111e+98	1.127507e+99	4.266697e+98	1.412701e+99	1.411877e+99	1.307892e+98	2.389043e+98	8.954012e+97	5.460254e+97	5.458374e+97	7.891820e+97	7.891944e+97	1.812792e+97	4.927603e+96	7.392914e+96	7.392888e+96	4.535700e+96	4.535686e+96	2.279454e+96	5.203282e+95	3.102802e+95	3.137112e+96	2.869419e+96	3.161862e+96	2.014500e+96	8.179988e+95	3.103005e+95	2.341027e+95	2.380702e+95	1.037689e+96	1.165635e+96	1.165624e+96	6.911182e+95	6.910961e+95	1.513109e+97	1.093613e+97	1.093625e+97	1.020313e+97	3.429919e+99	3.488669e+99	8.385739e+95	8.354197e+95	1.602657e+96	1.788428e+96	1.685844e+96	1.748106e+96	1.630712e+99	9.660865e+97	9.576602e+95	3.102072e+94	5.288718e+99	1.501376e+97	3.354058e+100	7.466960e+94	3.427674e+100	1.696721e+98	1.144415e+97	1.899987e+95	1.607517e+96	1.048513e+96	1.020317e+97	5.075146e+99	2.622974e+95	1.210211e+95	1.070731e+96	6.754656e+96	2.027826e+96	1.819556e+100	2.526876e+96	4.375697e+96	5.525216e+96	1.766766e+96	1.802033e+96	2.305930e+96	4.037611e+95	6.034512e+95	1.776123e+96	1.835862e+96	3.350164e+96	3.086658e+101	9.865767e+98	3.152503e+94	2.622653e+95	6.311962e+96	3.954947e+98	5.981512e+101	3.157447e+94	1.918927e+95	2.022904e+97	3.761245e+96	5.628015e+97	5.627765e+97	6.155564e+100	4.964096e+99	6.300724e+101	7.081001e+94	3.798050e+99	1.859378e+96	5.680895e+95	5.725159e+95	4.226898e+98	1.501658e+96	3.428469e+100	1.193911e+100	2.037723e+98	1.518206e+97	1.518205e+97	1.962817e+96	2.357940e+95	2.358181e+95	1.225131e+96	2.772116e+96	3.965542e+96	1.943119e+96	2.908126e+96	2.023222e+96	7.157726e+96	2.142694e+97	1.487873e+96	4.341254e+96	6.980915e+96	1.308705e+96	1.425763e+97	2.370977e+96	2.098575e+96	1.471642e+96	1.504173e+96	1.427509e+96	1.945043e+96	1.874945e+96	1.661853e+96	1.810044e+96	5.164876e+96	1.516787e+96	5.379917e+95	2.591060e+96	2.934816e+96	3.085453e+101	1.128485e+101	1.513393e+97	1.513240e+97	8.757638e+95	1.812832e+97	1.975320e+96	3.473572e+98	9.455216e+98	6.566673e+98	6.499608e+98	1.414141e+99	3.482208e+98	2.391786e+98	3.666946e+98	3.664472e+98	5.464892e+97	3.494751e+98	3.494578e+98	7.893363e+97	4.226927e+98	1.008985e+97	1.008974e+97	4.536036e+96	4.535842e+96	3.350318e+96	5.203264e+95	5.276534e+95	2.115457e+96	3.387265e+96	2.118311e+96	3.179938e+96	3.425521e+96	5.276591e+95	3.366892e+95	3.366969e+95	2.380332e+95	1.830361e+96	1.830363e+96	1.165592e+96	1.165587e+96	8.758103e+95	8.757886e+95	1.342344e+97	1.342322e+97	1.194576e+100	1.193247e+100	1.101674e+96	1.622631e+96	2.461141e+96	2.356323e+96	1.831011e+96	8.232542e+100	2.038510e+98	2.475828e+98	2.335395e+98	1.687828e+96	8.888733e+100	4.988584e+99	1.854803e+97	9.439310e+95	1.349108e+96	9.802002e+97	2.956410e+97	2.622897e+95	3.735590e+94	1.903270e+95	1.131360e+101	1.626244e+96	1.370278e+97	5.447882e+101	2.829018e+96	1.541120e+96	8.758415e+95	2.622544e+95	9.443001e+95	2.311626e+96	3.474986e+96	1.319130e+96	9.524950e+95	5.444993e+96	7.196084e+96	1.485793e+96	1.480347e+96	5.059755e+98	6.015606e+101	1.424190e+97	7.523238e+100	1.518210e+97	4.227021e+98	2.082382e+96	1.588856e+96	1.746369e+98	6.875764e+99	3.163748e+94	6.161345e+96	1.131265e+101	7.422193e+98	7.905886e+96	3.744569e+94	1.350295e+96	1.154806e+96	4.067857e+95	1.538517e+96	1.410359e+96	5.980399e+101	3.104254e+94	1.576160e+96	8.135232e+96	2.185597e+96	7.118183e+94	1.855430e+99	1.504012e+96	4.067410e+95	7.540167e+95	8.038717e+97	1.571908e+96	1.193620e+100	8.039164e+97	1.370274e+97	7.371914e+97	1.424647e+95	1.424060e+95	2.814069e+96	1.751125e+96	2.538688e+96	2.218795e+96	1.621718e+97	7.671478e+95	3.138066e+96	3.210426e+96	1.471818e+96	1.579167e+96	2.313428e+96	2.195402e+96	1.086540e+96	7.874404e+95	9.400525e+95	1.659359e+96	1.916095e+96	1.573680e+96	1.037447e+96	1.290397e+96	1.508705e+96	9.590884e+100	5.628097e+97	5.628002e+97	3.579977e+96	5.413279e+99	6.753057e+98	3.488132e+98	6.568381e+98	2.790572e+99	2.787925e+99	2.010888e+99	2.010117e+99	3.668128e+98	1.845119e+98	1.843389e+98	3.495406e+98	7.374915e+97	1.504166e+97	1.504136e+97	1.008941e+97	7.888141e+96	7.888175e+96	3.350114e+96	8.675593e+95	8.675117e+95	3.021222e+96	2.776494e+96	1.080070e+96	3.240103e+95	5.277293e+95	5.276655e+95	3.366939e+95	3.106981e+95	3.106778e+95	3.579959e+96	1.830403e+96	1.830414e+96	1.628135e+96	1.628113e+96	2.602317e+97	2.602136e+97	1.342430e+97	1.193334e+100	5.409204e+99	8.700223e+95	1.092630e+96	1.606243e+96	8.151780e+95	1.701923e+96	1.701268e+96	4.355594e+99	1.885553e+98	1.470789e+98	9.781583e+99	1.423910e+95	2.335399e+98	2.534486e+95	1.725646e+96	1.814142e+99	1.254411e+97	1.040578e+97	2.559808e+96	3.974263e+98	1.457739e+99	1.723489e+97	1.640775e+97	1.856717e+98	1.564189e+96	1.372960e+101	3.106357e+95	1.826019e+96	1.907772e+96	9.645400e+95	3.008975e+96	3.297222e+97	