# vtk DataFile Version 3.0
vtk output
ASCII
DATASET UNSTRUCTURED_GRID
POINTS 200 float
9.997500e-01	-3.632897e-05	0.0	9.990000e-01	-1.452538e-04	0.0	9.977600e-01	-3.251112e-04	0.0	9.960200e-01	-5.769984e-04	0.0	9.937800e-01	-9.004365e-04	0.0	9.910500e-01	-1.293364e-03	0.0	9.878400e-01	-1.753610e-03	0.0	9.841300e-01	-2.283177e-03	0.0	9.799500e-01	-2.876826e-03	0.0	9.752800e-01	-3.536324e-03	0.0	9.701500e-01	-4.256269e-03	0.0	9.645400e-01	-5.038225e-03	0.0	9.584700e-01	-5.878077e-03	0.0	9.519400e-01	-6.774429e-03	0.0	9.449600e-01	-7.724467e-03	0.0	9.375400e-01	-8.725349e-03	0.0	9.296900e-01	-9.774221e-03	0.0	9.214000e-01	-1.087086e-02	0.0	9.127000e-01	-1.200973e-02	0.0	9.035800e-01	-1.319056e-02	0.0	8.940600e-01	-1.440916e-02	0.0	8.841500e-01	-1.566269e-02	0.0	8.738500e-01	-1.694956e-02	0.0	8.631800e-01	-1.826569e-02	0.0	8.521600e-01	-1.960709e-02	0.0	8.407700e-01	-2.097463e-02	0.0	8.290500e-01	-2.236196e-02	0.0	8.170100e-01	-2.376642e-02	0.0	8.046400e-01	-2.518764e-02	0.0	7.919700e-01	-2.662063e-02	0.0	7.790100e-01	-2.806277e-02	0.0	7.657800e-01	-2.951034e-02	0.0	7.522800e-01	-3.096181e-02	0.0	7.385200e-01	-3.241453e-02	0.0	7.245300e-01	-3.386377e-02	0.0	7.103200e-01	-3.530689e-02	0.0	6.958900e-01	-3.674225e-02	0.0	6.812700e-01	-3.816515e-02	0.0	6.664700e-01	-3.957289e-02	0.0	6.515000e-01	-4.096270e-02	0.0	6.363800e-01	-4.233084e-02	0.0	6.211300e-01	-4.367359e-02	0.0	6.057600e-01	-4.498807e-02	0.0	5.902800e-01	-4.627133e-02	0.0	5.747100e-01	-4.751951e-02	0.0	5.590600e-01	-4.872956e-02	0.0	5.433600e-01	-4.989684e-02	0.0	5.276100e-01	-5.101898e-02	0.0	5.118400e-01	-5.209138e-02	0.0	4.960500e-01	-5.311154e-02	0.0	4.802700e-01	-5.407492e-02	0.0	4.645100e-01	-5.497836e-02	0.0	4.487800e-01	-5.581860e-02	0.0	4.331100e-01	-5.659142e-02	0.0	4.175000e-01	-5.729417e-02	0.0	4.019700e-01	-5.792324e-02	0.0	3.865400e-01	-5.847521e-02	0.0	3.712300e-01	-5.894684e-02	0.0	3.560400e-01	-5.933562e-02	0.0	3.409900e-01	-5.963848e-02	0.0	3.261100e-01	-5.985254e-02	0.0	3.114000e-01	-5.997565e-02	0.0	2.968700e-01	-6.000550e-02	0.0	2.825500e-01	-5.994005e-02	0.0	2.684500e-01	-5.977766e-02	0.0	2.545700e-01	-5.951658e-02	0.0	2.409400e-01	-5.915586e-02	0.0	2.275700e-01	-5.869457e-02	0.0	2.144700e-01	-5.813197e-02	0.0	2.016600e-01	-5.746811e-02	0.0	1.891400e-01	-5.670228e-02	0.0	1.769300e-01	-5.583514e-02	0.0	1.650400e-01	-5.486709e-02	0.0	1.534900e-01	-5.379978e-02	0.0	1.422900e-01	-5.263443e-02	0.0	1.314400e-01	-5.137134e-02	0.0	1.209500e-01	-5.001187e-02	0.0	1.108500e-01	-4.856067e-02	0.0	1.011300e-01	-4.701715e-02	0.0	9.181000e-02	-4.538527e-02	0.0	8.290000e-02	-4.366791e-02	0.0	7.440000e-02	-4.186608e-02	0.0	6.633000e-02	-3.998514e-02	0.0	5.869000e-02	-3.802636e-02	0.0	5.149000e-02	-3.599338e-02	0.0	4.474000e-02	-3.389028e-02	0.0	3.844000e-02	-3.171811e-02	0.0	3.260000e-02	-2.948109e-02	0.0	2.723000e-02	-2.718420e-02	0.0	2.232000e-02	-2.482329e-02	0.0	1.790000e-02	-2.241365e-02	0.0	1.395000e-02	-1.994492e-02	0.0	1.049000e-02	-1.742916e-02	0.0	7.520000e-03	-1.486756e-02	0.0	5.040000e-03	-1.226032e-02	0.0	3.050000e-03	-9.605565e-03	0.0	1.560000e-03	-6.917518e-03	0.0	5.600000e-04	-4.173160e-03	0.0	6.000000e-05	-1.375330e-03	0.0	0.000000e+00	0.000000e+00	0.0	6.000000e-05	1.055584e-03	0.0	5.600000e-04	1.842076e-03	0.0	1.560000e-03	1.269519e-03	0.0	3.050000e-03	-2.714041e-04	0.0	5.040000e-03	-2.495206e-03	0.0	7.520000e-03	-5.136748e-03	0.0	1.049000e-02	-7.971092e-03	0.0	1.395000e-02	-1.079758e-02	0.0	1.790000e-02	-1.343722e-02	0.0	2.232000e-02	-1.572269e-02	0.0	2.723000e-02	-1.753049e-02	0.0	3.260000e-02	-1.873753e-02	0.0	3.844000e-02	-1.925777e-02	0.0	4.474000e-02	-1.902116e-02	0.0	5.149000e-02	-1.798177e-02	0.0	5.869000e-02	-1.611376e-02	0.0	6.633000e-02	-1.341388e-02	0.0	7.440000e-02	-9.900562e-03	0.0	8.290000e-02	-5.607272e-03	0.0	9.181000e-02	-5.960531e-04	0.0	1.011300e-01	5.063999e-03	0.0	1.108500e-01	1.128285e-02	0.0	1.209500e-01	1.794955e-02	0.0	1.314400e-01	2.496093e-02	0.0	1.422900e-01	3.217747e-02	0.0	1.534900e-01	3.946579e-02	0.0	1.650400e-01	4.669408e-02	0.0	1.769300e-01	5.372123e-02	0.0	1.891400e-01	6.040091e-02	0.0	2.016600e-01	6.659630e-02	0.0	2.144700e-01	7.217238e-02	0.0	2.275700e-01	7.701197e-02	0.0	2.409400e-01	8.100110e-02	0.0	2.545700e-01	8.404429e-02	0.0	2.684500e-01	8.606235e-02	0.0	2.825500e-01	8.699413e-02	0.0	2.968700e-01	8.680387e-02	0.0	3.114000e-01	8.547628e-02	0.0	3.261100e-01	8.302392e-02	0.0	3.409900e-01	7.948409e-02	0.0	3.560400e-01	7.491515e-02	0.0	3.712300e-01	6.940889e-02	0.0	3.865400e-01	6.307976e-02	0.0	4.019700e-01	5.605450e-02	0.0	4.175000e-01	4.848543e-02	0.0	4.331100e-01	4.053897e-02	0.0	4.487800e-01	3.238987e-02	0.0	4.645100e-01	2.420427e-02	0.0	4.802700e-01	1.615928e-02	0.0	4.960500e-01	8.410156e-03	0.0	5.118400e-01	1.094423e-03	0.0	5.276100e-01	-5.665594e-03	0.0	5.433600e-01	-1.179006e-02	0.0	5.590600e-01	-1.721954e-02	0.0	5.747100e-01	-2.193956e-02	0.0	5.902800e-01	-2.595879e-02	0.0	6.057600e-01	-2.932148e-02	0.0	6.211300e-01	-3.209202e-02	0.0	6.363800e-01	-3.435014e-02	0.0	6.515000e-01	-3.617722e-02	0.0	6.664700e-01	-3.764300e-02	0.0	6.812700e-01	-3.879448e-02	0.0	6.958900e-01	-3.964428e-02	0.0	7.103200e-01	-4.015994e-02	0.0	7.245300e-01	-4.025827e-02	0.0	7.385200e-01	-3.980662e-02	0.0	7.522800e-01	-3.862739e-02	0.0	7.657800e-01	-3.651638e-02	0.0	7.790100e-01	-3.326278e-02	0.0	7.919700e-01	-2.867493e-02	0.0	8.046400e-01	-2.262564e-02	0.0	8.170100e-01	-1.508264e-02	0.0	8.290500e-01	-6.162591e-03	0.0	8.407700e-01	3.885805e-03	0.0	8.521600e-01	1.463366e-02	0.0	8.631800e-01	2.546642e-02	0.0	8.738500e-01	3.571740e-02	0.0	8.841500e-01	4.464203e-02	0.0	8.940600e-01	5.155331e-02	0.0	9.035800e-01	5.593508e-02	0.0	9.127000e-01	5.750217e-02	0.0	9.214000e-01	5.626667e-02	0.0	9.296900e-01	5.253411e-02	0.0	9.375400e-01	4.687203e-02	0.0	9.449600e-01	3.998106e-02	0.0	9.519400e-01	3.260570e-02	0.0	9.584700e-01	2.539868e-02	0.0	9.645400e-01	1.879102e-02	0.0	9.701500e-01	1.285051e-02	0.0	9.752800e-01	7.215484e-03	0.0	9.799500e-01	3.717357e-02	0.0	9.841300e-01	-3.394878e-02	0.0	9.878400e-01	4.148385e-02	0.0	9.910500e-01	-5.432498e-02	0.0	9.937800e-01	6.046039e-02	0.0	9.960200e-01	-4.183919e-03	0.0	9.977600e-01	-8.944623e-04	0.0	9.990000e-01	1.204176e-05	0.0	9.997500e-01	3.403630e-05	0.0	1.000000e+00	0.000000e+00	0.0	
CELLS 200	600
2	199	0	2	0	1	2	1	2	2	2	3	2	3	4	2	4	5	2	5	6	2	6	7	2	7	8	2	8	9	2	9	10	2	10	11	2	11	12	2	12	13	2	13	14	2	14	15	2	15	16	2	16	17	2	17	18	2	18	19	2	19	20	2	20	21	2	21	22	2	22	23	2	23	24	2	24	25	2	25	26	2	26	27	2	27	28	2	28	29	2	29	30	2	30	31	2	31	32	2	32	33	2	33	34	2	34	35	2	35	36	2	36	37	2	37	38	2	38	39	2	39	40	2	40	41	2	41	42	2	42	43	2	43	44	2	44	45	2	45	46	2	46	47	2	47	48	2	48	49	2	49	50	2	50	51	2	51	52	2	52	53	2	53	54	2	54	55	2	55	56	2	56	57	2	57	58	2	58	59	2	59	60	2	60	61	2	61	62	2	62	63	2	63	64	2	64	65	2	65	66	2	66	67	2	67	68	2	68	69	2	69	70	2	70	71	2	71	72	2	72	73	2	73	74	2	74	75	2	75	76	2	76	77	2	77	78	2	78	79	2	79	80	2	80	81	2	81	82	2	82	83	2	83	84	2	84	85	2	85	86	2	86	87	2	87	88	2	88	89	2	89	90	2	90	91	2	91	92	2	92	93	2	93	94	2	94	95	2	95	96	2	96	97	2	97	98	2	98	99	2	99	100	2	100	101	2	101	102	2	102	103	2	103	104	2	104	105	2	105	106	2	106	107	2	107	108	2	108	109	2	109	110	2	110	111	2	111	112	2	112	113	2	113	114	2	114	115	2	115	116	2	116	117	2	117	118	2	118	119	2	119	120	2	120	121	2	121	122	2	122	123	2	123	124	2	124	125	2	125	126	2	126	127	2	127	128	2	128	129	2	129	130	2	130	131	2	131	132	2	132	133	2	133	134	2	134	135	2	135	136	2	136	137	2	137	138	2	138	139	2	139	140	2	140	141	2	141	142	2	142	143	2	143	144	2	144	145	2	145	146	2	146	147	2	147	148	2	148	149	2	149	150	2	150	151	2	151	152	2	152	153	2	153	154	2	154	155	2	155	156	2	156	157	2	157	158	2	158	159	2	159	160	2	160	161	2	161	162	2	162	163	2	163	164	2	164	165	2	165	166	2	166	167	2	167	168	2	168	169	2	169	170	2	170	171	2	171	172	2	172	173	2	173	174	2	174	175	2	175	176	2	176	177	2	177	178	2	178	179	2	179	180	2	180	181	2	181	182	2	182	183	2	183	184	2	184	185	2	185	186	2	186	187	2	187	188	2	188	189	2	190	189	2	190	191	2	192	191	2	192	193	2	194	193	2	194	195	2	195	196	2	196	197	2	197	198	2	198	199	
CELL_TYPES 200
3	3	3	3	3	3	3	3	3	3	3	3	3	3	3	3	3	3	3	3	3	3	3	3	3	3	3	3	3	3	3	3	3	3	3	3	3	3	3	3	3	3	3	3	3	3	3	3	3	3	3	3	3	3	3	3	3	3	3	3	3	3	3	3	3	3	3	3	3	3	3	3	3	3	3	3	3	3	3	3	3	3	3	3	3	3	3	3	3	3	3	3	3	3	3	3	3	3	3	3	3	3	3	3	3	3	3	3	3	3	3	3	3	3	3	3	3	3	3	3	3	3	3	3	3	3	3	3	3	3	3	3	3	3	3	3	3	3	3	3	3	3	3	3	3	3	3	3	3	3	3	3	3	3	3	3	3	3	3	3	3	3	3	3	3	3	3	3	3	3	3	3	3	3	3	3	3	3	3	3	3	3	3	3	3	3	3	3	3	3	3	3	3	3	3	3	3	3	3	3	
POINT_DATA 200

SCALARS Conservative_1 float 1
LOOKUP_TABLE default
1.390300e+100	2.827496e+99	3.572303e+99	7.428000e+98	9.804461e+98	5.860207e+98	3.575306e+98	2.854666e+97	9.610803e+97	1.593661e+97	1.570049e+97	7.613035e+96	1.226897e+97	3.192530e+96	3.403861e+96	3.884221e+96	1.069764e+97	6.904199e+96	7.246965e+96	3.782949e+96	6.759699e+96	4.355556e+96	4.886965e+96	2.806875e+96	4.476816e+96	1.525754e+96	2.565273e+96	3.276276e+96	3.270609e+96	2.074561e+96	2.129950e+96	1.908249e+96	1.869760e+96	1.692191e+96	2.093510e+96	1.326938e+96	1.260726e+96	1.240367e+96	1.189541e+96	1.330170e+96	1.289122e+96	1.339912e+96	1.301180e+96	1.298364e+96	1.276683e+96	1.335247e+96	1.320718e+96	1.474114e+96	1.469279e+96	1.442611e+96	1.430035e+96	1.456264e+96	1.447007e+96	1.514285e+96	1.495865e+96	1.536091e+96	1.513586e+96	1.481100e+96	1.494996e+96	1.462505e+96	1.473855e+96	1.331180e+96	1.338365e+96	1.236493e+96	1.231072e+96	1.118326e+96	1.110799e+96	1.088924e+96	1.079548e+96	9.683278e+95	9.789639e+95	8.341318e+95	8.392922e+95	8.139524e+95	8.129922e+95	8.125222e+95	8.073195e+95	8.678120e+95	8.383066e+95	7.360103e+95	7.304284e+95	7.189023e+95	7.141734e+95	6.413412e+95	6.421854e+95	5.683335e+95	5.646732e+95	3.987256e+95	4.015064e+95	2.701062e+95	2.747436e+95	1.649632e+95	1.641741e+95	7.627099e+94	7.627017e+94	3.221757e+94	3.519705e+94	9.203094e+93	9.198036e+93	7.998928e+93	8.049595e+93	6.274963e+94	6.289805e+94	2.092982e+95	2.092374e+95	2.506440e+95	2.507772e+95	2.417986e+95	2.417269e+95	2.227638e+95	2.226775e+95	2.025991e+95	2.025819e+95	1.721616e+95	1.720895e+95	1.660326e+95	1.659452e+95	1.731373e+95	1.731199e+95	1.618358e+95	1.618255e+95	1.533549e+95	1.533609e+95	1.736147e+95	1.736219e+95	4.539897e+95	4.540013e+95	4.234270e+95	4.234589e+95	3.602943e+95	3.603329e+95	1.602358e+96	1.602402e+96	9.663581e+96	9.663617e+96	1.180265e+96	1.180311e+96	2.286014e+96	2.286062e+96	4.681695e+96	4.681683e+96	5.420312e+96	5.420322e+96	5.527806e+96	5.527915e+96	5.222998e+96	5.222956e+96	3.202542e+96	3.202590e+96	3.903187e+96	3.903274e+96	4.340450e+96	4.340442e+96	5.289579e+96	5.289664e+96	7.966957e+96	7.966916e+96	5.487234e+96	5.487258e+96	6.490178e+96	6.490163e+96	1.037123e+97	1.037128e+97	2.193800e+97	2.193855e+97	8.621266e+96	8.622369e+96	1.826056e+97	1.826421e+97	2.321837e+97	2.323038e+97	2.479398e+97	2.482349e+97	2.148276e+97	2.156871e+97	3.599241e+97	3.614691e+97	4.081977e+97	4.141925e+97	4.713408e+96	3.951516e+96	1.104376e+98	1.083440e+98	8.130099e+97	7.314998e+97	1.131457e+98	7.739842e+97	4.713906e+98	5.239657e+98	2.171309e+99	2.440340e+98	2.656190e+100	9.163016e+99	3.858242e+101	3.862870e+101	2.472093e+101	3.106418e+101	6.958826e+94	1.390078e+100	1.389888e+100	
SCALARS Conservative_2 float 1
LOOKUP_TABLE default
-7.445616e+102	-2.931363e+101	-1.380897e+102	-8.173730e+101	7.648664e+100	-1.518072e+102	-1.066424e+102	-1.243074e+101	-7.145585e+101	-8.398774e+100	-2.002886e+101	-3.502411e+100	-1.359708e+101	-4.638018e+100	-4.611117e+100	-2.958445e+100	-1.165850e+101	-9.180911e+100	-9.401721e+100	-5.086739e+100	-8.637391e+100	-5.855031e+100	-6.002141e+100	-4.305651e+100	-6.042291e+100	-2.621999e+100	-4.510909e+100	-4.240729e+100	-4.260016e+100	-3.640722e+100	-3.651622e+100	-3.029597e+100	-3.018486e+100	-2.781657e+100	-3.009839e+100	-2.287775e+100	-2.265473e+100	-2.208857e+100	-2.191453e+100	-2.269495e+100	-2.255464e+100	-2.265859e+100	-2.252168e+100	-2.146582e+100	-2.138839e+100	-2.235235e+100	-2.229675e+100	-2.382686e+100	-2.380912e+100	-2.249649e+100	-2.245165e+100	-2.340244e+100	-2.337025e+100	-2.282394e+100	-2.278785e+100	-2.252264e+100	-2.245206e+100	-2.128323e+100	-2.132065e+100	-2.022412e+100	-2.025621e+100	-1.809705e+100	-1.812035e+100	-1.648625e+100	-1.647032e+100	-1.495692e+100	-1.493812e+100	-1.414788e+100	-1.412033e+100	-1.267144e+100	-1.270505e+100	-1.101805e+100	-1.104223e+100	-1.040660e+100	-1.040397e+100	-9.740639e+99	-9.729545e+99	-9.875670e+99	-9.784889e+99	-8.379468e+99	-8.360771e+99	-7.777926e+99	-7.764798e+99	-6.659148e+99	-6.656811e+99	-5.706813e+99	-5.689689e+99	-3.894843e+99	-3.901356e+99	-2.633307e+99	-2.646208e+99	-1.566174e+99	-1.562425e+99	-7.127177e+98	-7.127120e+98	-2.990265e+98	-3.190397e+98	-8.892153e+97	-8.890783e+97	-5.082570e+97	-5.091717e+97	-8.390823e+97	-8.397461e+97	-2.111810e+98	-2.111020e+98	-2.259507e+98	-2.261290e+98	-2.124872e+98	-2.124070e+98	-2.248065e+98	-2.246942e+98	-2.271593e+98	-2.271823e+98	-1.939917e+98	-1.939678e+98	-1.710482e+98	-1.709723e+98	-1.604021e+98	-1.603773e+98	-1.210352e+98	-1.210214e+98	-1.061544e+98	-1.061757e+98	-1.893910e+98	-1.894004e+98	-2.002425e+98	-2.002514e+98	-5.934569e+97	-5.939162e+97	1.383336e+98	1.382837e+98	-5.980282e+98	-5.980772e+98	-5.819076e+99	-5.819104e+99	-5.779740e+98	-5.780134e+98	-2.028901e+99	-2.028927e+99	-3.532991e+99	-3.532881e+99	-4.134317e+99	-4.134101e+99	-4.243865e+99	-4.243812e+99	-3.455449e+99	-3.455335e+99	-2.231477e+99	-2.231565e+99	-1.895577e+99	-1.895821e+99	-2.191170e+99	-2.191154e+99	-2.118582e+98	-2.115768e+98	-1.914434e+98	-1.914112e+98	-5.448348e+98	-5.448886e+98	1.516693e+98	1.515796e+98	2.068652e+98	2.067112e+98	2.632938e+99	2.632802e+99	2.651882e+99	2.650972e+99	7.175379e+99	7.174935e+99	7.002465e+99	7.007517e+99	1.292662e+100	1.292784e+100	1.298942e+100	1.299050e+100	2.613032e+100	2.605327e+100	3.474985e+100	3.449249e+100	-1.846827e+99	-2.386472e+99	2.316502e+99	-1.625854e+99	3.978511e+100	7.773764e+100	-1.230626e+101	-1.411247e+101	2.223411e+101	3.081074e+101	2.817558e+102	8.568151e+100	1.250469e+103	3.639451e+102	1.504026e+104	1.506996e+104	1.436123e+103	4.473619e+103	4.450930e+96	-7.440863e+102	-7.438036e+102	
SCALARS Conservative_3 float 1
LOOKUP_TABLE default
2.320687e+103	6.148527e+102	5.452049e+102	-1.469867e+102	-3.008500e+101	-9.359770e+101	-7.412222e+101	1.342099e+100	-3.375590e+101	-6.797526e+100	-1.775716e+101	-3.691604e+100	-8.730516e+100	-1.190315e+100	-2.723889e+100	8.692505e+99	-4.360814e+100	-3.214310e+100	-3.293249e+100	-3.175203e+99	-1.976532e+100	-4.438435e+99	-1.698263e+100	-5.497336e+99	-6.145063e+99	-2.250100e+99	-4.540944e+99	-5.854589e+99	-6.028345e+99	-1.480959e+99	-2.527969e+99	-1.575979e+99	-1.516268e+99	-9.170778e+98	-2.527030e+99	-2.036184e+99	-1.984161e+99	-1.598765e+99	-1.564496e+99	-9.245517e+98	-8.916640e+98	-8.443847e+98	-8.151316e+98	-7.465630e+98	-7.312655e+98	-5.778488e+98	-5.746135e+98	-3.549073e+98	-3.568484e+98	-6.014151e+98	-5.881302e+98	-3.518734e+98	-3.358125e+98	-5.939485e+98	-5.882303e+98	-7.791376e+98	-7.449157e+98	-6.294270e+98	-6.425539e+98	-2.022067e+98	-2.095186e+98	-1.085899e+98	-1.175305e+98	-1.554189e+98	-1.521476e+98	1.946163e+98	1.964235e+98	5.519228e+97	6.182261e+97	1.414011e+98	1.283998e+98	2.572706e+98	2.592666e+98	3.250049e+98	3.257976e+98	5.093534e+98	5.091817e+98	4.617876e+98	4.863093e+98	5.351867e+98	5.415891e+98	7.006003e+98	7.032569e+98	5.845792e+98	5.866473e+98	5.821387e+98	5.837152e+98	4.595492e+98	4.581788e+98	3.937150e+98	3.909783e+98	2.819391e+98	2.824153e+98	1.533773e+98	1.533772e+98	7.399352e+97	7.209889e+97	2.754089e+97	2.756412e+97	1.179743e+97	1.170934e+97	2.221104e+97	2.234419e+97	4.118173e+97	4.117723e+97	4.688206e+97	4.688328e+97	3.236984e+97	3.221808e+97	-1.107662e+97	-1.114926e+97	-6.481393e+97	-6.491143e+97	-8.208255e+97	-8.212474e+97	-7.867982e+97	-7.864145e+97	-8.622034e+97	-8.619779e+97	-6.619687e+97	-6.619441e+97	-3.313384e+97	-3.312725e+97	7.199680e+97	7.199872e+97	-1.660757e+97	-1.662392e+97	-3.065150e+98	-3.065266e+98	-3.734366e+98	-3.734509e+98	1.308162e+99	1.308165e+99	1.182325e+100	1.182328e+100	7.010883e+97	7.015695e+97	1.611774e+99	1.611831e+99	4.308090e+99	4.308118e+99	2.570600e+99	2.570497e+99	1.545219e+99	1.545072e+99	2.998137e+99	2.998022e+99	2.577398e+99	2.577399e+99	3.142512e+99	3.142451e+99	3.051763e+99	3.051673e+99	3.094143e+99	3.094032e+99	6.531782e+99	6.531696e+99	4.623633e+99	4.623620e+99	5.968662e+99	5.968538e+99	1.158015e+100	1.158009e+100	2.326948e+100	2.326931e+100	5.843221e+99	5.842993e+99	1.738149e+100	1.738162e+100	2.336939e+100	2.337664e+100	2.516535e+100	2.516378e+100	1.745371e+100	1.749199e+100	2.288297e+100	2.286603e+100	1.970129e+100	1.984553e+100	-4.638636e+98	1.041533e+99	1.567830e+101	1.588622e+101	7.539065e+100	1.304217e+101	3.460839e+101	1.762807e+101	5.342877e+101	5.401514e+101	1.708859e+102	1.378784e+101	1.410628e+103	3.946896e+102	2.561946e+104	2.563950e+104	1.952253e+104	2.297139e+104	3.484143e+97	2.320446e+103	2.319923e+103	
SCALARS Conservative_4 float 1
LOOKUP_TABLE default
1.051231e+107	1.594260e+106	2.011454e+106	2.472279e+106	1.894064e+106	1.052875e+106	8.851669e+105	3.710274e+104	5.865408e+105	7.751689e+104	2.344330e+105	5.720573e+104	1.227543e+105	3.623657e+104	4.814338e+104	3.401051e+104	1.063651e+105	1.063259e+105	1.024187e+105	5.598341e+104	8.130457e+104	5.557553e+104	5.623621e+104	4.442797e+104	5.363599e+104	3.011544e+104	4.476630e+104	3.721917e+104	3.727855e+104	3.568341e+104	3.537265e+104	2.839149e+104	2.836752e+104	2.638503e+104	2.757156e+104	2.275329e+104	2.270650e+104	2.223711e+104	2.220072e+104	2.233443e+104	2.230537e+104	2.220828e+104	2.217993e+104	2.062091e+104	2.060471e+104	2.150069e+104	2.148901e+104	2.246679e+104	2.246328e+104	2.105857e+104	2.104906e+104	2.198080e+104	2.197356e+104	2.088112e+104	2.087814e+104	2.015627e+104	2.014321e+104	1.884531e+104	1.885144e+104	1.740604e+104	1.741115e+104	1.523533e+104	1.523930e+104	1.361014e+104	1.360743e+104	1.225363e+104	1.225097e+104	1.131410e+104	1.130938e+104	9.993142e+103	9.999001e+103	8.581736e+103	8.587235e+103	7.920808e+103	7.920263e+103	7.214709e+103	7.213543e+103	7.014858e+103	6.999505e+103	5.883830e+103	5.880551e+103	5.292693e+103	5.290765e+103	4.371950e+103	4.370683e+103	3.616937e+103	3.612368e+103	2.404058e+103	2.404601e+103	1.615556e+103	1.617391e+103	9.441941e+102	9.431959e+102	4.284034e+102	4.284013e+102	1.799499e+102	1.858548e+102	5.722983e+101	5.722620e+101	3.019134e+101	3.024062e+101	2.893525e+101	2.896603e+101	5.459617e+101	5.453773e+101	5.976995e+101	5.981772e+101	5.408295e+101	5.404027e+101	4.855782e+101	4.854352e+101	4.358275e+101	4.357566e+101	3.536027e+101	3.534597e+101	3.305565e+101	3.303895e+101	3.348600e+101	3.348186e+101	2.919657e+101	2.919490e+101	2.580606e+101	2.580795e+101	2.802689e+101	2.802831e+101	5.587287e+101	5.587522e+101	5.279608e+101	5.280393e+101	1.044896e+102	1.044989e+102	2.151060e+102	2.151148e+102	1.861790e+103	1.861799e+103	1.721735e+102	1.721866e+102	4.525785e+102	4.525921e+102	9.029156e+102	9.029162e+102	9.101410e+102	9.101341e+102	8.757202e+102	8.757087e+102	8.253795e+102	8.253657e+102	4.829790e+102	4.829918e+102	6.994882e+102	6.994950e+102	7.438338e+102	7.438174e+102	8.110989e+102	8.110939e+102	1.123192e+103	1.123172e+103	7.719889e+102	7.720028e+102	8.972057e+102	8.972067e+102	1.624634e+103	1.624625e+103	2.963965e+103	2.964045e+103	1.106196e+103	1.106251e+103	2.410292e+103	2.410574e+103	3.152727e+103	3.153040e+103	3.475379e+103	3.476715e+103	2.965969e+103	2.972368e+103	4.844706e+103	4.857767e+103	3.461456e+103	3.506790e+103	2.952981e+102	3.613074e+102	2.911126e+104	2.963253e+104	1.097201e+104	1.794887e+104	8.320101e+104	5.467204e+104	4.963159e+104	4.788864e+104	2.552344e+105	5.850845e+103	7.299987e+105	1.596909e+105	1.181960e+107	1.183343e+107	8.648549e+106	1.003930e+107	1.295989e+100	1.051121e+107	1.051058e+107	
SCALARS Pressure float 1
LOOKUP_TABLE default
3.350437e+106	3.696907e+105	6.274874e+105	9.127508e+105	7.556601e+105	3.126012e+105	2.597157e+105	3.888883e+103	1.046501e+105	1.635549e+104	2.505766e+103	1.607953e+104	6.538618e+103	1.310555e+102	2.404736e+103	8.708500e+103	1.357944e+104	1.512067e+104	1.358004e+104	8.660303e+103	9.292626e+103	6.398301e+103	6.570572e+103	4.346409e+103	4.975316e+103	2.968031e+103	1.881320e+103	3.700245e+103	3.591730e+103	1.473752e+103	1.568249e+103	1.710800e+103	1.576502e+103	1.398990e+103	2.313128e+103	1.150116e+103	8.782217e+102	9.865271e+102	7.646500e+102	1.176639e+103	1.017440e+103	1.209308e+103	1.065358e+103	1.141901e+103	1.067074e+103	1.111600e+103	1.062199e+103	1.282492e+103	1.267217e+103	1.402079e+103	1.364937e+103	1.268988e+103	1.238923e+103	1.467546e+103	1.403676e+103	1.449922e+103	1.389015e+103	1.416019e+103	1.453830e+103	1.368508e+103	1.395965e+103	1.173463e+103	1.188825e+103	1.047419e+103	1.035523e+103	8.999838e+102	8.819094e+102	8.492482e+102	8.298417e+102	6.804985e+102	7.015257e+102	5.203594e+102	5.277273e+102	5.047030e+102	5.026732e+102	5.440527e+102	5.338494e+102	5.533332e+102	5.099349e+102	4.377459e+102	4.301755e+102	4.204078e+102	4.140117e+102	3.552632e+102	3.574822e+102	2.887715e+102	2.862848e+102	1.901159e+102	1.932098e+102	1.212945e+102	1.260870e+102	7.065269e+101	7.017378e+101	3.199220e+101	3.199204e+101	1.307304e+101	1.355016e+101	4.060139e+100	4.050845e+100	5.269548e+100	5.314125e+100	9.172834e+100	9.185384e+100	1.741479e+101	1.739336e+101	1.965879e+101	1.967372e+101	1.781193e+101	1.779736e+101	1.487475e+101	1.487166e+101	1.192447e+101	1.191889e+101	8.989608e+100	8.982003e+100	8.952256e+100	8.947186e+100	9.563592e+100	9.562919e+100	9.326667e+100	9.326307e+100	8.709614e+100	8.709899e+100	6.481607e+100	6.481931e+100	2.057057e+101	2.057137e+101	1.651441e+101	1.651730e+101	3.299244e+101	3.299724e+101	6.021888e+101	6.022226e+101	3.853239e+102	3.853264e+102	6.312546e+101	6.313004e+101	1.222894e+102	1.222935e+102	2.285576e+102	2.285597e+102	2.766055e+102	2.766114e+102	2.764863e+102	2.764864e+102	2.500103e+102	2.500098e+102	1.206088e+102	1.206125e+102	2.107820e+102	2.107834e+102	2.324965e+102	2.324927e+102	2.880714e+102	2.880731e+102	3.420818e+102	3.420764e+102	2.297946e+102	2.298008e+102	2.490303e+102	2.490351e+102	3.911713e+102	3.911717e+102	6.856307e+102	6.856829e+102	3.469573e+102	3.470087e+102	5.768314e+102	5.770235e+102	7.484254e+102	7.484627e+102	7.445173e+102	7.458569e+102	7.457023e+102	7.487511e+102	1.267505e+103	1.278249e+103	6.027589e+102	6.380583e+102	1.027336e+102	1.102068e+102	7.191984e+103	7.193809e+103	2.601223e+103	8.766142e+102	9.431773e+103	8.692558e+103	5.643655e+103	4.395186e+103	2.072698e+103	1.806575e+102	2.443240e+104	9.634852e+102	1.528783e+105	1.539397e+105	3.592804e+105	4.894842e+105	1.638138e+99	3.350123e+106	3.350165e+106	
SCALARS Temperature float 1
LOOKUP_TABLE default
2.409865e+06	1.307484e+06	1.756535e+06	1.228798e+07	7.707310e+06	5.334304e+06	7.264153e+06	1.362290e+06	1.088880e+07	1.026284e+07	1.595979e+06	2.112105e+07	5.329396e+06	4.105067e+05	7.064732e+06	2.242020e+07	1.269386e+07	2.190068e+07	1.873894e+07	2.289299e+07	1.374710e+07	1.468998e+07	1.344510e+07	1.548487e+07	1.111352e+07	1.945288e+07	7.333800e+06	1.129406e+07	1.098184e+07	7.103923e+06	7.362845e+06	8.965285e+06	8.431570e+06	8.267329e+06	1.104904e+07	8.667442e+06	6.966002e+06	7.953508e+06	6.428108e+06	8.845775e+06	7.892502e+06	9.025275e+06	8.187626e+06	8.794925e+06	8.358172e+06	8.325047e+06	8.042586e+06	8.700090e+06	8.624758e+06	9.719036e+06	9.544781e+06	8.713995e+06	8.561969e+06	9.691350e+06	9.383710e+06	9.439041e+06	9.176981e+06	9.560596e+06	9.724642e+06	9.357288e+06	9.471521e+06	8.815210e+06	8.882666e+06	8.470890e+06	8.411552e+06	8.047596e+06	7.939411e+06	7.798965e+06	7.686937e+06	7.027563e+06	7.166002e+06	6.238335e+06	6.287766e+06	6.200645e+06	6.183001e+06	6.695850e+06	6.612617e+06	6.376188e+06	6.082916e+06	5.947552e+06	5.889359e+06	5.847913e+06	5.797075e+06	5.539379e+06	5.566651e+06	5.081022e+06	5.069920e+06	4.768087e+06	4.812123e+06	4.490625e+06	4.589261e+06	4.282935e+06	4.274353e+06	4.194544e+06	4.194568e+06	4.057735e+06	3.849798e+06	4.411710e+06	4.404033e+06	6.587818e+06	6.601730e+06	1.461815e+06	1.460361e+06	8.320564e+05	8.312737e+05	7.843313e+05	7.845099e+05	7.366433e+05	7.362588e+05	6.677365e+05	6.678564e+05	5.885744e+05	5.883489e+05	5.221611e+05	5.219379e+05	5.391868e+05	5.391650e+05	5.523703e+05	5.523871e+05	5.763045e+05	5.763189e+05	5.679386e+05	5.679347e+05	3.733329e+05	3.733360e+05	4.531065e+05	4.531126e+05	3.900179e+05	3.900569e+05	9.157080e+05	9.157434e+05	3.758142e+05	3.758250e+05	3.987383e+05	3.987393e+05	5.348412e+05	5.348594e+05	5.349461e+05	5.349528e+05	4.881940e+05	4.882000e+05	5.103129e+05	5.103229e+05	5.001737e+05	5.001640e+05	4.786719e+05	4.786748e+05	3.766034e+05	3.766094e+05	5.400253e+05	5.400170e+05	5.356508e+05	5.356430e+05	5.446018e+05	5.445962e+05	4.293758e+05	4.293712e+05	4.187805e+05	4.187898e+05	3.837034e+05	3.837117e+05	3.771697e+05	3.771683e+05	3.125311e+05	3.125471e+05	4.024436e+05	4.024517e+05	3.158892e+05	3.159313e+05	3.223419e+05	3.221913e+05	3.002815e+05	3.004642e+05	3.471166e+05	3.471469e+05	3.521591e+05	3.536260e+05	1.476635e+05	1.540488e+05	2.179604e+05	2.788975e+05	6.512262e+05	6.639785e+05	3.199497e+05	1.198379e+05	8.335955e+05	1.123092e+06	1.197235e+05	8.388310e+04	9.545845e+03	7.402963e+03	9.198287e+03	1.051494e+03	3.962381e+03	3.985113e+03	1.453345e+04	1.575719e+04	2.354043e+04	2.410026e+06	2.410385e+06	
SCALARS Pressure_Coefficient float 1
LOOKUP_TABLE default
7.478653e+106	8.252025e+105	1.400642e+106	2.037390e+106	1.686741e+106	6.977706e+105	5.797225e+105	8.680543e+103	2.335940e+105	3.650779e+104	5.593228e+103	3.589181e+104	1.459513e+104	2.925346e+102	5.367715e+103	1.943862e+104	3.031125e+104	3.375149e+104	3.031259e+104	1.933103e+104	2.074247e+104	1.428192e+104	1.466646e+104	9.701805e+103	1.110562e+104	6.625069e+103	4.199374e+103	8.259475e+103	8.017255e+103	3.289626e+103	3.500556e+103	3.818750e+103	3.518977e+103	3.122746e+103	5.163231e+103	2.567223e+103	1.960316e+103	2.202070e+103	1.706808e+103	2.626426e+103	2.271071e+103	2.699348e+103	2.378031e+103	2.548887e+103	2.381861e+103	2.481249e+103	2.370979e+103	2.862705e+103	2.828610e+103	3.129640e+103	3.046735e+103	2.832561e+103	2.765453e+103	3.275773e+103	3.133205e+103	3.236434e+103	3.100480e+103	3.160758e+103	3.245157e+103	3.054706e+103	3.115994e+103	2.619337e+103	2.653627e+103	2.337990e+103	2.311435e+103	2.008892e+103	1.968548e+103	1.895643e+103	1.852325e+103	1.518970e+103	1.565906e+103	1.161517e+103	1.177963e+103	1.126569e+103	1.122038e+103	1.214403e+103	1.191628e+103	1.235119e+103	1.138247e+103	9.771115e+102	9.602132e+102	9.384103e+102	9.241332e+102	7.929981e+102	7.979513e+102	6.445792e+102	6.390286e+102	4.243658e+102	4.312719e+102	2.707467e+102	2.814443e+102	1.577069e+102	1.566379e+102	7.141117e+101	7.141080e+101	2.918088e+101	3.024588e+101	9.062809e+100	9.042065e+100	1.176238e+101	1.186189e+101	2.047508e+101	2.050309e+101	3.887230e+101	3.882446e+101	4.388123e+101	4.391456e+101	3.975877e+101	3.972625e+101	3.320257e+101	3.319567e+101	2.661711e+101	2.660466e+101	2.006609e+101	2.004911e+101	1.998271e+101	1.997140e+101	2.134730e+101	2.134580e+101	2.081845e+101	2.081765e+101	1.944110e+101	1.944174e+101	1.446787e+101	1.446860e+101	4.591644e+101	4.591824e+101	3.686252e+101	3.686898e+101	7.364384e+101	7.365456e+101	1.344171e+102	1.344247e+102	8.600981e+102	8.601035e+102	1.409050e+102	1.409153e+102	2.729674e+102	2.729767e+102	5.101731e+102	5.101780e+102	6.174230e+102	6.174362e+102	6.171569e+102	6.171572e+102	5.580586e+102	5.580575e+102	2.692162e+102	2.692244e+102	4.704955e+102	4.704987e+102	5.189655e+102	5.189570e+102	6.430165e+102	6.430202e+102	7.635755e+102	7.635635e+102	5.129345e+102	5.129481e+102	5.558713e+102	5.558820e+102	8.731502e+102	8.731512e+102	1.530426e+103	1.530542e+103	7.744582e+102	7.745731e+102	1.287570e+103	1.287999e+103	1.670592e+103	1.670676e+103	1.661869e+103	1.664859e+103	1.664514e+103	1.671319e+103	2.829253e+103	2.853234e+103	1.345444e+103	1.424237e+103	2.293161e+102	2.459974e+102	1.605354e+104	1.605761e+104	5.806300e+103	1.956728e+103	2.105306e+104	1.940303e+104	1.259744e+104	9.810684e+103	4.626557e+103	4.032534e+102	5.453660e+104	2.150637e+103	3.412461e+105	3.436154e+105	8.019652e+105	1.092599e+106	3.656557e+99	7.477954e+106	7.478048e+106	
SCALARS Mach float 1
LOOKUP_TABLE default