# vtk DataFile Version 3.0
vtk output
ASCII
DATASET UNSTRUCTURED_GRID
POINTS 5233 float
9.997500e-01	-3.633243e-05	0.0	9.990000e-01	-1.454723e-04	0.0	9.977600e-01	-3.275074e-04	0.0	9.960200e-01	-5.899270e-04	0.0	9.937800e-01	-9.470943e-04	0.0	9.910500e-01	-1.422095e-03	0.0	9.878400e-01	-2.045515e-03	0.0	9.841300e-01	-2.853670e-03	0.0	9.799500e-01	-3.858877e-03	0.0	9.752800e-01	-5.058294e-03	0.0	9.701500e-01	-6.405105e-03	0.0	9.645400e-01	-7.840836e-03	0.0	9.584700e-01	-9.290151e-03	0.0	9.519400e-01	-1.069769e-02	0.0	9.449600e-01	-1.203551e-02	0.0	9.375400e-01	-1.330801e-02	0.0	9.296900e-01	-1.454249e-02	0.0	9.214000e-01	-1.577724e-02	0.0	9.127000e-01	-1.703951e-02	0.0	9.035800e-01	-1.835033e-02	0.0	8.940600e-01	-1.971335e-02	0.0	8.841500e-01	-2.112395e-02	0.0	8.738500e-01	-2.257393e-02	0.0	8.631800e-01	-2.405119e-02	0.0	8.521600e-01	-2.554508e-02	0.0	8.407700e-01	-2.705243e-02	0.0	8.290500e-01	-2.856399e-02	0.0	8.170100e-01	-3.007593e-02	0.0	8.046400e-01	-3.158743e-02	0.0	7.919700e-01	-3.309282e-02	0.0	7.790100e-01	-3.458886e-02	0.0	7.657800e-01	-3.607091e-02	0.0	7.522800e-01	-3.753643e-02	0.0	7.385200e-01	-3.898156e-02	0.0	7.245300e-01	-4.040044e-02	0.0	7.103200e-01	-4.178943e-02	0.0	6.958900e-01	-4.314598e-02	0.0	6.812700e-01	-4.446489e-02	0.0	6.664700e-01	-4.574315e-02	0.0	6.515000e-01	-4.697800e-02	0.0	6.363800e-01	-4.816612e-02	0.0	6.211300e-01	-4.930460e-02	0.0	6.057600e-01	-5.039158e-02	0.0	5.902800e-01	-5.142543e-02	0.0	5.747100e-01	-5.240410e-02	0.0	5.590600e-01	-5.332642e-02	0.0	5.433600e-01	-5.419030e-02	0.0	5.276100e-01	-5.499556e-02	0.0	5.118400e-01	-5.574054e-02	0.0	4.960500e-01	-5.642518e-02	0.0	4.802700e-01	-5.704816e-02	0.0	4.645100e-01	-5.760906e-02	0.0	4.487800e-01	-5.810743e-02	0.0	4.331100e-01	-5.854218e-02	0.0	4.175000e-01	-5.891308e-02	0.0	4.019700e-01	-5.921925e-02	0.0	3.865400e-01	-5.945979e-02	0.0	3.712300e-01	-5.963381e-02	0.0	3.560400e-01	-5.974053e-02	0.0	3.409900e-01	-5.977878e-02	0.0	3.261100e-01	-5.974747e-02	0.0	3.114000e-01	-5.964544e-02	0.0	2.968700e-01	-5.947133e-02	0.0	2.825500e-01	-5.922405e-02	0.0	2.684500e-01	-5.890231e-02	0.0	2.545700e-01	-5.850443e-02	0.0	2.409400e-01	-5.802955e-02	0.0	2.275700e-01	-5.747639e-02	0.0	2.144700e-01	-5.684365e-02	0.0	2.016600e-01	-5.613067e-02	0.0	1.891400e-01	-5.533575e-02	0.0	1.769300e-01	-5.445848e-02	0.0	1.650400e-01	-5.349802e-02	0.0	1.534900e-01	-5.245459e-02	0.0	1.422900e-01	-5.132792e-02	0.0	1.314400e-01	-5.011675e-02	0.0	1.209500e-01	-4.882082e-02	0.0	1.108500e-01	-4.744293e-02	0.0	1.011300e-01	-4.598090e-02	0.0	9.181000e-02	-4.443684e-02	0.0	8.290000e-02	-4.281188e-02	0.0	7.440000e-02	-4.110537e-02	0.0	6.633000e-02	-3.932086e-02	0.0	5.869000e-02	-3.745803e-02	0.0	5.149000e-02	-3.551892e-02	0.0	4.474000e-02	-3.350605e-02	0.0	3.844000e-02	-3.141910e-02	0.0	3.260000e-02	-2.926093e-02	0.0	2.723000e-02	-2.703521e-02	0.0	2.232000e-02	-2.473693e-02	0.0	1.790000e-02	-2.238007e-02	0.0	1.395000e-02	-1.995381e-02	0.0	1.049000e-02	-1.746942e-02	0.0	7.520000e-03	-1.492781e-02	0.0	5.040000e-03	-1.232916e-02	0.0	3.050000e-03	-9.671917e-03	0.0	1.560000e-03	-6.971333e-03	0.0	5.600000e-04	-4.206251e-03	0.0	6.000000e-05	-1.384015e-03	0.0	0.000000e+00	0.000000e+00	0.0	6.000000e-05	1.263717e-03	0.0	5.600000e-04	3.624959e-03	0.0	1.560000e-03	5.788687e-03	0.0	3.050000e-03	7.806660e-03	0.0	5.040000e-03	9.723902e-03	0.0	7.520000e-03	1.154817e-02	0.0	1.049000e-02	1.329444e-02	0.0	1.395000e-02	1.497324e-02	0.0	1.790000e-02	1.659248e-02	0.0	2.232000e-02	1.815177e-02	0.0	2.723000e-02	1.966427e-02	0.0	3.260000e-02	2.112584e-02	0.0	3.844000e-02	2.254418e-02	0.0	4.474000e-02	2.392066e-02	0.0	5.149000e-02	2.525665e-02	0.0	5.869000e-02	2.655516e-02	0.0	6.633000e-02	2.781694e-02	0.0	7.440000e-02	2.904263e-02	0.0	8.290000e-02	3.023416e-02	0.0	9.181000e-02	3.139042e-02	0.0	1.011300e-01	3.251293e-02	0.0	1.108500e-01	3.360165e-02	0.0	1.209500e-01	3.465544e-02	0.0	1.314400e-01	3.567617e-02	0.0	1.422900e-01	3.666155e-02	0.0	1.534900e-01	3.761131e-02	0.0	1.650400e-01	3.852582e-02	0.0	1.769300e-01	3.940438e-02	0.0	1.891400e-01	4.024554e-02	0.0	2.016600e-01	4.104851e-02	0.0	2.144700e-01	4.181177e-02	0.0	2.275700e-01	4.253494e-02	0.0	2.409400e-01	4.321629e-02	0.0	2.545700e-01	4.385457e-02	0.0	2.684500e-01	4.444839e-02	0.0	2.825500e-01	4.499544e-02	0.0	2.968700e-01	4.549454e-02	0.0	3.114000e-01	4.594391e-02	0.0	3.261100e-01	4.634109e-02	0.0	3.409900e-01	4.668421e-02	0.0	3.560400e-01	4.697140e-02	0.0	3.712300e-01	4.720009e-02	0.0	3.865400e-01	4.736797e-02	0.0	4.019700e-01	4.747290e-02	0.0	4.175000e-01	4.751242e-02	0.0	4.331100e-01	4.748419e-02	0.0	4.487800e-01	4.738597e-02	0.0	4.645100e-01	4.721542e-02	0.0	4.802700e-01	4.697055e-02	0.0	4.960500e-01	4.664935e-02	0.0	5.118400e-01	4.624989e-02	0.0	5.276100e-01	4.577103e-02	0.0	5.433600e-01	4.521109e-02	0.0	5.590600e-01	4.456971e-02	0.0	5.747100e-01	4.384575e-02	0.0	5.902800e-01	4.303986e-02	0.0	6.057600e-01	4.215232e-02	0.0	6.211300e-01	4.118450e-02	0.0	6.363800e-01	4.013779e-02	0.0	6.515000e-01	3.901416e-02	0.0	6.664700e-01	3.781694e-02	0.0	6.812700e-01	3.655036e-02	0.0	6.958900e-01	3.521856e-02	0.0	7.103200e-01	3.382635e-02	0.0	7.245300e-01	3.238130e-02	0.0	7.385200e-01	3.088875e-02	0.0	7.522800e-01	2.935563e-02	0.0	7.657800e-01	2.779185e-02	0.0	7.790100e-01	2.620580e-02	0.0	7.919700e-01	2.460510e-02	0.0	8.046400e-01	2.300029e-02	0.0	8.170100e-01	2.140100e-02	0.0	8.290500e-01	1.981959e-02	0.0	8.407700e-01	1.826284e-02	0.0	8.521600e-01	1.673921e-02	0.0	8.631800e-01	1.525953e-02	0.0	8.738500e-01	1.382428e-02	0.0	8.841500e-01	1.243668e-02	0.0	8.940600e-01	1.109794e-02	0.0	9.035800e-01	9.806370e-03	0.0	9.127000e-01	8.564674e-03	0.0	9.214000e-01	7.383797e-03	0.0	9.296900e-01	6.280300e-03	0.0	9.375400e-01	5.285146e-03	0.0	9.449600e-01	4.427477e-03	0.0	9.519400e-01	3.732208e-03	0.0	9.584700e-01	3.205455e-03	0.0	9.645400e-01	2.827042e-03	0.0	9.701500e-01	2.552114e-03	0.0	9.752800e-01	2.324872e-03	0.0	9.799500e-01	2.093085e-03	0.0	9.841300e-01	1.827037e-03	0.0	9.878400e-01	1.519906e-03	0.0	9.910500e-01	1.190204e-03	0.0	9.937800e-01	8.630224e-04	0.0	9.960200e-01	5.666265e-04	0.0	9.977600e-01	3.231883e-04	0.0	9.990000e-01	1.450783e-04	0.0	9.997500e-01	3.632619e-05	0.0	1.000000e+00	0.000000e+00	0.0	1.984229e+01	2.506660e+00	0.0	1.937166e+01	4.973800e+00	0.0	1.859553e+01	7.362490e+00	0.0	1.752613e+01	9.635070e+00	0.0	1.618034e+01	1.175571e+01	0.0	1.457937e+01	1.369094e+01	0.0	1.274848e+01	1.541027e+01	0.0	1.071654e+01	1.688656e+01	0.0	8.515590e+00	1.809654e+01	0.0	6.180340e+00	1.902113e+01	0.0	3.747630e+00	1.964575e+01	0.0	1.255810e+00	1.996053e+01	0.0	-1.255810e+00	1.996053e+01	0.0	-3.747630e+00	1.964574e+01	0.0	-6.180340e+00	1.902113e+01	0.0	-8.515590e+00	1.809654e+01	0.0	-1.071654e+01	1.688656e+01	0.0	-1.274848e+01	1.541026e+01	0.0	-1.457937e+01	1.369094e+01	0.0	-1.618034e+01	1.175570e+01	0.0	-1.752613e+01	9.635070e+00	0.0	-1.859553e+01	7.362490e+00	0.0	-1.937166e+01	4.973800e+00	0.0	-1.984229e+01	2.506660e+00	0.0	-2.000000e+01	0.000000e+00	0.0	-1.984229e+01	-2.506670e+00	0.0	-1.937166e+01	-4.973800e+00	0.0	-1.859553e+01	-7.362490e+00	0.0	-1.752613e+01	-9.635080e+00	0.0	-1.618034e+01	-1.175571e+01	0.0	-1.457937e+01	-1.369094e+01	0.0	-1.274848e+01	-1.541027e+01	0.0	-1.071653e+01	-1.688656e+01	0.0	-8.515580e+00	-1.809654e+01	0.0	-6.180340e+00	-1.902113e+01	0.0	-3.747620e+00	-1.964575e+01	0.0	-1.255810e+00	-1.996053e+01	0.0	1.255810e+00	-1.996053e+01	0.0	3.747630e+00	-1.964574e+01	0.0	6.180340e+00	-1.902113e+01	0.0	8.515590e+00	-1.809654e+01	0.0	1.071654e+01	-1.688656e+01	0.0	1.274848e+01	-1.541026e+01	0.0	1.457937e+01	-1.369094e+01	0.0	1.618034e+01	-1.175570e+01	0.0	1.752614e+01	-9.635070e+00	0.0	1.859553e+01	-7.362490e+00	0.0	1.937166e+01	-4.973790e+00	0.0	1.984229e+01	-2.506660e+00	0.0	2.000000e+01	0.000000e+00	0.0	6.074237e-02	-4.532111e-02	0.0	6.601883e-01	-6.002181e-02	0.0	4.255533e-01	6.172247e-02	0.0	6.897642e-01	4.910621e-02	0.0	3.791232e-01	-7.360570e-02	0.0	9.994675e-01	-7.275896e-04	0.0	9.985544e-01	-1.331421e-03	0.0	7.738131e-01	-4.739995e-02	0.0	6.898600e-01	-5.714801e-02	0.0	-1.127142e-03	5.516564e-03	0.0	7.467800e-01	-5.080735e-02	0.0	5.833311e-01	5.753402e-02	0.0	9.928160e-01	-3.736231e-03	0.0	9.899359e-01	-4.744180e-03	0.0	5.989072e-01	5.659918e-02	0.0	7.187646e-01	-5.406347e-02	0.0	-1.468664e-03	5.997942e-04	0.0	9.865725e-01	-5.906475e-03	0.0	9.827328e-01	-7.226370e-03	0.0	-1.302030e-03	-6.473027e-03	0.0	6.451051e-01	-6.137241e-02	0.0	8.244819e-01	-4.029777e-02	0.0	7.997421e-01	-4.389408e-02	0.0	3.484809e-01	6.060777e-02	0.0	8.479020e-01	-3.666736e-02	0.0	2.473656e-01	5.609747e-02	0.0	8.699420e-01	-3.302708e-02	0.0	1.046400e-02	1.734319e-02	0.0	8.904957e-01	-2.943307e-02	0.0	7.702148e-02	-4.969910e-02	0.0	9.094909e-01	-2.594010e-02	0.0	-1.766747e-03	-3.206974e-03	0.0	9.424825e-01	-1.916819e-02	0.0	9.268474e-01	-2.255008e-02	0.0	1.794784e-02	-2.749675e-02	0.0	4.257416e-01	-7.303653e-02	0.0	8.591035e-01	-3.484301e-02	0.0	9.563355e-01	-1.566688e-02	0.0	9.784088e-01	-8.725323e-03	0.0	9.683300e-01	-1.208063e-02	0.0	1.582632e-01	-6.357370e-02	0.0	9.001950e-01	-2.767198e-02	0.0	7.604294e-01	-4.911946e-02	0.0	9.971359e-01	-2.087281e-03	0.0	5.990500e-01	-6.504507e-02	0.0	4.414441e-01	-7.268668e-02	0.0	5.363196e-01	-6.898011e-02	0.0	4.730157e-01	-7.175421e-02	0.0	5.046766e-01	-7.051678e-02	0.0	4.888342e-01	-7.117243e-02	0.0	1.249493e-01	-5.906525e-02	0.0	2.784418e-02	-3.297642e-02	0.0	3.945689e-01	-7.349772e-02	0.0	4.621901e-02	-4.062303e-02	0.0	4.101097e-01	-7.330832e-02	0.0	3.187146e-01	-7.321365e-02	0.0	3.486125e-01	-7.358040e-02	0.0	3.350773e-02	-3.558975e-02	0.0	2.895104e-01	-7.250818e-02	0.0	9.348849e-01	-2.086600e-02	0.0	1.468045e-01	-6.216157e-02	0.0	1.946434e-01	-6.723364e-02	0.0	8.579568e-02	-5.175680e-02	0.0	1.045869e-01	-5.560405e-02	0.0	5.678223e-01	-6.716034e-02	0.0	1.700658e-01	-6.489203e-02	0.0	6.145275e-01	-6.388336e-02	0.0	8.804131e-01	-3.122163e-02	0.0	2.266816e-02	-3.027708e-02	0.0	9.952218e-01	-2.870135e-03	0.0	6.736389e-03	-1.882145e-02	0.0	1.849218e-02	2.151182e-02	0.0	9.183775e-01	-2.423561e-02	0.0	9.49640
[...]
POINT_DATA 5233

SCALARS Conservative_1 float 1
LOOKUP_TABLE default
-1.709446e-01	-2.155571e-01	-2.125687e-01	-2.103630e-01	-2.104203e-01	-2.078120e-01	-2.010095e-01	-1.877223e-01	-1.662530e-01	-1.361086e-01	-9.887274e-02	-5.842637e-02	-2.097666e-02	6.945994e-03	2.166262e-02	2.465810e-02	2.139886e-02	1.743897e-02	1.624313e-02	1.873004e-02	2.455542e-02	3.274513e-02	4.220061e-02	5.214595e-02	6.199111e-02	7.155390e-02	8.078032e-02	8.975732e-02	9.868043e-02	1.076122e-01	1.166759e-01	1.258634e-01	1.351369e-01	1.444282e-01	1.536742e-01	1.628311e-01	1.719219e-01	1.809863e-01	1.899776e-01	1.988265e-01	2.074587e-01	2.158456e-01	2.239607e-01	2.318152e-01	2.394084e-01	2.467575e-01	2.538742e-01	2.607851e-01	2.675841e-01	2.743270e-01	2.810384e-01	2.876268e-01	2.938098e-01	2.993494e-01	3.043961e-01	3.094200e-01	3.148893e-01	3.210032e-01	3.277513e-01	3.350000e-01	3.427732e-01	3.510777e-01	3.598521e-01	3.685784e-01	3.761866e-01	3.810307e-01	3.814548e-01	3.764028e-01	3.663356e-01	3.531764e-01	3.396335e-01	3.276689e-01	3.175440e-01	3.078847e-01	2.968831e-01	2.837670e-01	2.688051e-01	2.525284e-01	2.349489e-01	2.159180e-01	1.953057e-01	1.729960e-01	1.488200e-01	1.225466e-01	9.389889e-02	6.264576e-02	2.839916e-02	-9.109120e-03	-5.036737e-02	-9.559439e-02	-1.451867e-01	-1.989046e-01	-2.567294e-01	-3.162685e-01	-3.758904e-01	-4.279441e-01	-4.693408e-01	-4.965446e-01	-4.931305e-01	-4.650665e-01	-4.267567e-01	-3.397345e-01	-1.988969e-01	-4.694826e-02	9.235003e-02	2.073249e-01	2.936267e-01	3.555148e-01	3.984841e-01	4.277750e-01	4.470665e-01	4.586597e-01	4.648101e-01	4.672677e-01	4.674027e-01	4.664427e-01	4.649506e-01	4.630430e-01	4.608519e-01	4.584851e-01	4.558341e-01	4.524882e-01	4.483696e-01	4.439456e-01	4.397117e-01	4.358096e-01	4.319903e-01	4.279846e-01	4.237620e-01	4.193992e-01	4.149928e-01	4.105252e-01	4.059196e-01	4.011428e-01	3.960460e-01	3.904907e-01	3.843083e-01	3.776225e-01	3.707446e-01	3.641097e-01	3.578153e-01	3.516501e-01	3.453326e-01	3.387061e-01	3.316400e-01	3.239649e-01	3.155372e-01	3.065101e-01	2.973551e-01	2.883409e-01	2.791960e-01	2.694026e-01	2.584904e-01	2.465234e-01	2.338686e-01	2.207375e-01	2.072138e-01	1.932800e-01	1.789646e-01	1.642568e-01	1.492347e-01	1.339492e-01	1.184266e-01	1.027569e-01	8.695206e-02	7.111753e-02	5.529607e-02	3.962122e-02	2.412851e-02	8.917398e-03	-5.988264e-03	-2.046973e-02	-3.444053e-02	-4.777000e-02	-6.045659e-02	-7.234000e-02	-8.366106e-02	-9.464680e-02	-1.057608e-01	-1.175420e-01	-1.304441e-01	-1.444971e-01	-1.591238e-01	-1.729830e-01	-1.843475e-01	-1.914334e-01	-1.929485e-01	-1.885862e-01	-1.795157e-01	-1.687097e-01	-1.605698e-01	-1.595494e-01	-1.678687e-01	-1.847254e-01	-2.075985e-01	-2.346440e-01	-2.599966e-01	-2.846827e-01	-3.865625e-01	-2.907976e-01	-1.375534e-04	-1.352324e-04	-1.317008e-04	-1.282643e-04	-1.226419e-04	-1.139790e-04	-9.646961e-05	-7.303459e-05	-3.419536e-05	2.166608e-05	1.193290e-04	2.486034e-04	3.791727e-04	4.328788e-04	4.222600e-04	3.901896e-04	3.443042e-04	2.975182e-04	2.474372e-04	1.969859e-04	1.489652e-04	1.153137e-04	1.075858e-04	3.474895e-05	-3.377788e-05	1.622266e-05	7.660860e-06	-3.039488e-05	-6.315359e-05	-7.844298e-05	-8.969767e-05	-9.451087e-05	-9.259186e-05	-8.284453e-05	-6.775300e-05	-4.868065e-05	-3.281357e-05	-4.256386e-05	-7.155730e-05	-1.039975e-04	-1.326076e-04	-1.489575e-04	-1.562719e-04	-1.579142e-04	-1.559297e-04	-1.522037e-04	-1.490886e-04	-1.462162e-04	-1.414498e-04	-1.400339e-04	1.051733e-01	1.842805e-01	3.221715e-01	1.225996e-01	3.061301e-01	-2.117183e-01	-2.187117e-01	1.123230e-01	1.665874e-01	-3.078233e-01	1.305107e-01	2.216135e-01	-2.074460e-01	-2.008617e-01	2.085085e-01	1.486920e-01	-4.342983e-01	-1.902137e-01	-1.741162e-01	-4.697053e-01	1.929006e-01	7.664946e-02	9.442188e-02	3.554511e-01	5.842328e-02	3.971341e-01	3.945702e-02	2.070451e-01	2.173081e-02	1.557332e-01	1.003993e-02	-4.823317e-01	3.766472e-03	7.555171e-03	-1.508410e-01	2.906481e-01	4.897698e-02	-2.840353e-02	-1.516990e-01	-9.081017e-02	2.919466e-01	1.479389e-02	1.213818e-01	-2.145869e-01	2.173565e-01	2.854851e-01	2.465662e-01	2.732929e-01	2.600475e-01	2.666723e-01	2.528217e-01	-6.301556e-02	3.005639e-01	4.585940e-02	2.955119e-01	3.334912e-01	3.188500e-01	-2.373084e-02	3.499710e-01	7.417985e-03	2.809483e-01	3.271398e-01	1.782229e-01	2.183766e-01	2.324142e-01	3.022571e-01	2.094562e-01	3.017907e-02	-1.053785e-01	-2.115638e-01	-3.019737e-01	3.228707e-01	7.809101e-03	-7.454625e-03	-1.233153e-01	-2.004318e-01	6.763650e-02	3.655729e-01	2.395923e-01	1.396471e-01	1.033421e-01	2.362494e-01	3.539982e-01	2.250049e-01	1.754834e-01	7.667792e-02	-3.535421e-01	-1.992856e-01	3.122600e-01	3.137270e-01	-1.979762e-01	3.624902e-01	1.990699e-01	3.416181e-01	3.635164e-01	2.796820e-01	1.576529e-01	-3.883683e-01	-4.394275e-01	2.581645e-01	-4.641086e-01	3.875936e-01	4.318808e-01	4.188598e-01	4.358045e-01	3.295844e-01	-2.535430e-01	2.684221e-01	2.959807e-01	-1.693838e-01	-1.797452e-01	-9.635742e-02	2.867717e-01	3.140799e-01	3.430227e-01	-1.447803e-01	-1.193870e-01	4.386486e-01	-1.639769e-01	-1.800694e-01	-1.680845e-01	4.387692e-01	4.352904e-01	3.817107e-01	3.924686e-01	4.207318e-01	3.686821e-01	3.052552e-01	3.364956e-01	4.267345e-01	4.329611e-01	1.811158e-01	4.135763e-01	4.056752e-01	1.523658e-01	2.343742e-01	6.165250e-02	9.221548e-02	2.288751e-03	3.149893e-02	-5.108713e-02	-2.546530e-02	-1.075731e-01	-7.441512e-02	-1.760397e-01	-1.318989e-01	-1.756065e-01	-6.303415e-02	-8.543094e-02	-1.181162e-02	-3.858640e-02	4.648300e-02	1.674610e-02	1.074536e-01	7.692098e-02	1.668883e-01	1.375841e-01	2.467135e-01	1.950119e-01	4.096819e-01	4.015218e-01	4.237989e-01	4.173055e-01	4.268221e-01	4.297972e-01	2.725309e-01	4.063502e-01	3.413760e-01	2.583764e-02	-5.761805e-02	8.555517e-02	3.259094e-01	2.533744e-01	-8.443793e-02	3.604769e-01	1.246268e-01	4.390248e-01	4.375007e-01	3.873743e-01	4.377790e-01	-1.627481e-01	-1.682534e-01	3.754105e-01	-1.810856e-01	-2.000859e-01	3.619104e-01	3.492612e-01	-1.572428e-01	-3.902113e-01	-2.880032e-01	-3.439879e-01	2.013031e-01	1.248211e-02	-2.243611e-01	2.777601e-01	-4.004986e-01	-2.501651e-01	1.314491e-01	2.679275e-01	3.577476e-01	4.127074e-01	-2.875765e-01	-3.567327e-01	3.391745e-01	1.528821e-01	1.983651e-03	-2.894243e-01	2.215535e-01	1.616224e-01	9.961087e-02	-1.896603e-01	3.164851e-01	4.641346e-02	6.446367e-02	1.620763e-01	-4.378266e-01	3.297868e-01	-1.990088e-01	-5.886072e-02	2.651726e-01	1.441309e-01	1.788884e-01	2.718975e-01	1.395684e-01	2.918963e-01	1.245683e-02	9.084291e-02	6.534321e-02	2.629901e-01	1.399860e-01	-4.298952e-02	4.206169e-01	1.254801e-01	4.121136e-01	-7.711192e-02	-1.779863e-01	3.527568e-01	2.665365e-01	-1.672333e-01	-8.792591e-02	-1.921445e-01	-1.695644e-01	-1.644107e-01	3.924360e-01	3.594299e-01	3.963487e-01	4.201621e-01	1.703200e-01	3.155699e-01	1.429920e-01	4.163997e-01	3.911907e-01	-1.668125e-01	-2.099375e-01	-9.876165e-02	2.764791e-01	-3.105810e-01	-2.582119e-01	-2.321420e-01	-2.209821e-02	-2.039074e-01	-3.339438e-01	-4.560576e-01	-4.369487e-01	-1.551902e-01	-2.686722e-01	8.935430e-02	-2.172945e-01	-2.057361e-01	3.198058e-01	2.327060e-01	-1.766082e-01	2.833965e-02	2.087416e-01	-1.990278e-01	-4.600481e-01	2.772157e-01	3.270687e-01	5.549082e-02	3.782834e-01	3.727759e-02	1.990235e-02	1.153751e-01	6.434774e-03	-1.174259e-03	-1.964591e-02	-7.353414e-02	-3.619411e-02	-8.536647e-02	-1.594427e-01	2.372851e-01	1.174062e-01	1.084501e-01	-2.117007e-01	2.658634e-01	2.593026e-01	2.526926e-01	-1.133642e-01	2.867889e-01	2.820338e-01	3.097080e-01	-1.473988e-03	-4.316765e-03	-9.569849e-03	2.523000e-01	1.830498e-01	2.256912e-01	2.033550e-01	-1.125093e-01	-1.377681e-01	1.353629e-01	1.264620e-01	2.025759e-01	2.206649e-01	2.184771e-01	2.110298e-01	3.091827e-02	6.125008e-02	-2.442923e-01	3.033928e-01	2.974714e-01	2.879356e-01	3.009908e-01	3.411311e-01	3.476124e-01	3.315868e-01	3.238500e-01	3.487767e-01	-4.062470e-01	-3.745907e-01	3.787777e-01	-1.684934e-01	2.568593e-01	2.756776e-01	2.849971e-01	2.944820e-01	-1.645044e-01	-1.690863e-01	-1.327502e-01	3.035738e-01	3.120096e-01	3.338673e-01	-1.212374e-01	-1.618689e-01	4.074540e-01	4.003943e-01	3.881564e-01	3.834945e-01	4.143021e-01	4.184461e-01	4.200317e-01	9.180730e-03	6.656292e-02	8.133515e-02	2.316903e-02	-3.066654e-02	-1.098608e-01	-6.612301e-02	-5.473946e-02	-1.779047e-02	-4.479061e-03	3.741089e-02	5.189315e-02	9.609867e-02	1.108403e-01	1.542934e-01	1.683777e-01	2.342208e-01	2.461659e-01	1.821975e-01	1.956451e-01	4.000257e-01	4.034927e-01	4.067605e-01	4.096723e-01	2.091284e-01	3.615539e-01	3.375548e-01	8.209291e-02	7.332213e-02	2.461560e-01	2.395222e-01	-1.135396e-01	3.052485e-01	4.187752e-01	4.163631e-01	3.661170e-01	3.724921e-01	3.402505e-01	3.464148e-01	-1.538450e-01	-1.438533e-01	1.954337e-01	1.872746e-01	-3.616834e-02	-4.094472e-01	3.454179e-01	-4.328016e-01	2.786670e-01	3.208057e-01	8.855717e-02	2.267600e-01	-5.646594e-03	-1.860056e-01	-1.751644e-01	-1.624768e-01	-1.326334e-01	-1.992075e-01	-2.923108e-01	-3.080087e-01	-2.122572e-01	-2.735813e-01	-1.581538e-01	-3.889704e-01	1.455823e-01	-1.086605e-02	-1.873570e-01	2.201730e-01	-2.216741e-01	-3.173002e-01	1.407537e-01	-3.843905e-01	1.322117e-01	-1.976222e-01	2.799527e-02	-2.783411e-01	3.005142e-01	3.663162e-02	1.492623e-01	-1.960226e-01	-2.382083e-01	-1.645261e-01	2.536276e-01	-1.564389e-01	1.403187e-01	-2.181913e-01	2.632478e-01	3.733645e-01	3.492029e-01	4.014652e-01	3.798653e-01	-3.101331e-01	-4.089006e-01	-2.771032e-01	1.552825e-01	-3.369585e-01	-8.019190e-02	1.232359e-01	-4.251055e-01	2.491092e-01	2.593178e-01	-1.194715e-01	2.153571e-02	-3.707809e-02	1.356772e-02	1.261855e-01	-1.681269e-01	-1.604408e-01	-9.190093e-02	-8.138957e-02	3.558465e-01	3.680290e-01	3.862238e-01	4.009853e-01	1.662870e-01	1.578564e-01	3.033664e-01	9.202936e-02	4.026982e-01	-1.632750e-01	-2.370512e-01	-5.461324e-02	-2.080571e-01	-3.531569e-01	-4.376510e-01	-8.224636e-02	-2.329048e-01	-2.277988e-01	-1.027994e-01	-1.760450e-01	2.073603e-01	2.646103e-01	3.160591e-01	5.430213e-02	4.544081e-02	1.974537e-02	1.210211e-02	7.386790e-02	9.935668e-02	5.306628e-03	-4.172281e-04	-4.072868e-02	-5.889727e-02	-1.620590e-01	1.061312e-01	9.733208e-02	-2.046285e-01	2.532219e-01	2.465200e-01	2.738949e-01	2.693559e-01	-4.729488e-02	-1.734378e-02	-2.688140e-02	2.209934e-01	2.360313e-01	2.199860e-01	2.129547e-01	-1.247894e-01	-1.449398e-01	1.238744e-01	1.150869e-01	1.666174e-01	1.863473e-01	2.044993e-01	2.057636e-01	1.982940e-01	-1.434711e-02	1.706699e-02	4.659982e-02	2.946309e-01	2.890969e-01	2.838017e-01	2.611985e-01	2.740922e-01	2.884208e-01	3.167604e-01	3.264033e-01	3.138246e-01	3.069615e-01	3.310439e-01	3.395063e-01	2.728072e-01	2.826053e-01	-1.630671e-01	2.917980e-01	3.003526e-01	3.084266e-01	3.231932e-01	-1.232454e-01	3.695298e-01	3.563393e-01	3.781218e-01	3.824219e-01	4.037304e-01	4.041008e-01	4.030771e-01	6.916159e-02	-1.128678e-01	-1.023563e-01	-7.077650e-02	-5.987506e-02	-4.873203e-02	-2.495209e-02	-1.227546e-02	5.724411e-04	2.718471e-02	4.088207e-02	5.501746e-02	8.351836e-02	9.772773e-02	1.120674e-01	1.541560e-01	2.326192e-01	2.435347e-01	1.678811e-01	1.812188e-01	1.944026e-01	3.896634e-01	3.927312e-01	3.955648e-01	3.979925e-01	3.998611e-01	3.180205e-01	2.899786e-01	8.009140e-02	7.152271e-02	6.296553e-02	2.399635e-01	2.333975e-01	2.536974e-01	2.090088e-01	3.979914e-01	3.938362e-01	3.879322e-01	3.621938e-01	3.298398e-01	3.361270e-01	3.424960e-01	-1.503890e-01	-1.425237e-01	-1.333542e-01	1.906587e-01	1.827295e-01	1.746424e-01	3.308719e-01	3.269099e-01	-4.014380e-01	1.291733e-01	-2.200104e-01	-1.668372e-01	2.161699e-01	-3.592260e-01	-2.165485e-01	-1.512247e-02	-2.270777e-02	-8.948232e-02	-1.923233e-01	2.580346e-01	-3.803505e-01	5.176461e-02	-2.997319e-01	-1.556022e-01	-2.055755e-01	-2.617702e-01	1.401272e-01	-2.037392e-01	-2.783903e-01	-2.555688e-01	7.940648e-02	2.332331e-01	-1.589692e-01	2.662672e-01	1.071258e-01	2.526473e-01	3.033100e-01	-1.727778e-01	2.178072e-01	-1.520599e-01	-1.471835e-01	1.616575e-02	3.882734e-01	3.667068e-01	-1.758356e-01	3.382850e-01	2.821497e-02	-2.495746e-01	-1.812189e-01	-2.035487e-01	-1.150930e-01	-1.944730e-01	1.388857e-01	-3.311623e-01	1.295556e-01	1.224214e-01	-2.300789e-01	-1.863432e-01	-2.658756e-01	-3.244678e-02	2.504274e-01	3.505376e-01	-3.137610e-01	-1.072523e-02	1.251749e-01	-8.607775e-02	3.442760e-01	3.563953e-01	3.617807e-01	1.558475e-01	1.464244e-01	-1.628301e-01	-7.526867e-02	-1.405973e-01	-3.589302e-01	-4.158368e-01	-1.232548e-01	-9.612929e-02	-1.637473e-01	2.038507e-01	4.535432e-02	3.665904e-02	1.986870e-02	1.209641e-02	5.883036e-02	8.368470e-02	4.722587e-03	-1.706579e-03	-8.049144e-03	-5.950521e-02	-7.719370e-02	9.690183e-02	8.728121e-02	-1.951051e-01	2.475856e-01	2.414156e-01	2.618032e-01	2.572775e-01	-3.211441e-02	-4.424005e-02	2.042517e-01	2.198094e-01	2.082072e-01	-1.332146e-01	-1.496770e-01	1.140763e-01	1.044277e-01	1.501416e-01	1.700859e-01	1.880220e-01	2.023466e-01	1.940158e-01	-5.736492e-02	-2.602458e-02	4.368005e-03	3.250581e-02	2.858684e-01	2.808265e-01	2.759883e-01	2.712179e-01	2.463560e-01	2.605859e-01	2.756129e-01	2.901862e-01	3.023285e-01	2.913553e-01	2.972017e-01	3.102988e-01	2.687069e-01	-1.602289e-01	-1.581309e-01	2.781218e-01	2.866755e-01	2.949433e-01	3.028718e-01	3.104575e-01	3.216497e-01	3.004321e-01	3.710862e-01	3.749592e-01	3.882175e-01	3.876452e-01	3.849523e-01	3.810622e-01	-1.154368e-01	-1.058245e-01	-9.608429e-02	-7.597478e-02	-6.549528e-02	-5.490862e-02	-4.341730e-02	-2.132118e-02	-7.719575e-03	3.992884e-03	3.003752e-02	4.285657e-02	5.733304e-02	7.018523e-02	8.493064e-02	9.766839e-02	1.126394e-01	2.386907e-01	2.300634e-01	1.521981e-01	1.669534e-01	1.786795e-01	1.932797e-01	3.782375e-01	3.810546e-01	3.834851e-01	3.856805e-01	3.868766e-01	3.879496e-01	2.749221e-01	2.442486e-01	7.085664e-02	6.200309e-02	5.385372e-02	2.344417e-01	2.294620e-01	2.216875e-01	2.062441e-01	1.605728e-01	1.092432e-01	3.762975e-01	3.704722e-01	3.625378e-01	3.516579e-01	3.175237e-01	3.242864e-01	3.306884e-01	3.376246e-01	-1.246672e-01	-1.407700e-01	-1.332873e-01	1.876939e-01	1.789778e-01	1.721853e-01	1.630899e-01	3.136083e-01	3.127608e-01	3.087977e-01	-2.216935e-01	-2.107137e-01	-1.084740e-01	-3.017394e-01	-2.531960e-01	1.159934e-01	1.134962e-01	-2.830675e-01	-1.635359e-01	-3.355610e-01	-1.259915e-01	2.179731e-01	3.717065e-01	-3.582782e-02	-1.978267e-01	-3.350138e-01	-4.076490e-01	-4.177417e-01	-3.873368e-01	-3.553899e-01	-1.974839e-01	3.375049e-01	-1.242983e-01	-1.761718e-01	-3.607650e-02	7.417544e-02	2.539430e-01	-1.950762e-01	-1.175338e-01	-1.384541e-01	2.189129e-01	2.375394e-01	1.302693e-01	2.499642e-02	2.518798e-01	2.073489e-01	3.329686e-01	-1.853845e-01	9.197851e-02	-2.783821e-01	-1.693465e-01	-4.049469e-01	-2.446872e-01	-2.291140e-01	-2.600402e-02	-9.607506e-02	-3.729115e-01	1.843215e-02	-3.105834e-01	-1.483867e-01	-2.473057e-01	-2.759472e-01	-2.613665e-01	-1.907227e-01	2.835016e-01	2.868503e-01	-1.764854e-01	1.998720e-01	-1.440154e-01	-1.651139e-01	1.312931e-01	-2.930362e-01	3.450068e-01	3.488523e-01	3.556643e-01	1.479734e-01	-9.076303e-02	-1.447607e-01	-3.895971e-01	-1.581962e-01	3.576641e-02	2.864861e-02	1.954528e-02	1.199777e-02	6.899476e-02	4.454418e-02	3.441928e-03	-2.961015e-03	-9.971930e-03	-1.891146e-02	-7.613754e-02	-9.220534e-02	8.995332e-02	-1.854346e-01	2.421359e-01	2.358406e-01	2.511732e-01	2.451847e-01	-4.792589e-02	-6.106038e-02	1.893587e-01	2.073566e-01	-1.392883e-01	-1.530078e-01	1.028330e-01	1.359754e-01	1.582475e-01	1.712085e-01	1.936147e-01	-6.635019e-02	-3.638952e-02	-7.697206e-03	1.908005e-02	2.767614e-01	2.736786e-01	2.677354e-01	2.649842e-01	2.591867e-01	2.351647e-01	2.472986e-01	2.656360e-01	2.763692e-01	2.903718e-01	-1.590736e-01	-1.554746e-01	-1.521010e-01	2.641039e-01	2.711795e-01	2.813820e-01	2.878733e-01	2.975891e-01	2.863284e-01	2.611809e-01	3.584810e-01	3.642119e-01	3.731172e-01	3.665386e-01	3.602443e-01	-1.083364e-01	-9.956891e-02	-8.993397e-02	-8.051438e-02	-7.049301e-02	-6.037933e-02	-4.978446e-02	-3.384313e-02	-1.697972e-02	1.331830e-03	5.111524e-02	7.741149e-02	1.038657e-01	1.563896e-01	1.812192e-01	3.656792e-01	3.702532e-01	3.705791e-01	3.744768e-01	3.730630e-01	3.733543e-01	3.733943e-01	2.321233e-01	1.996931e-01	6.064442e-02	5.323357e-02	4.506407e-02	2.286823e-01	2.199902e-01	1.622698e-01	1.177388e-01	6.907292e-02	3.535355e-01	3.458590e-01	3.359623e-01	3.221145e-01	3.056688e-01	3.035441e-01	3.124751e-01	3.172282e-01	3.249243e-01	-1.320889e-01	-1.246470e-01	1.792245e-01	1.640504e-01	2.937778e-01	2.991186e-01	2.951259e-01	2.938385e-01	-2.216403e-01	-2.672937e-01	-2.668075e-01	-3.605945e-01	-2.510254e-01	-1.309638e-01	-1.787749e-01	-2.723268e-01	-1.456039e-01	-2.012698e-01	-1.553947e-01	-3.615358e-01	-1.280167e-01	-2.404420e-01	3.217199e-01	-2.786189e-01	-1.019516e-01	-2.330922e-01	-2.133736e-01	-1.176397e-01	2.032821e-01	-1.709093e-01	2.700397e-01	-5.007852e-02	-3.459479e-02	1.620598e-01	1.003673e-01	2.125180e-01	-3.315446e-01	2.399433e-01	5.516939e-02	7.696960e-02	3.507214e-01	-1.586915e-01	-1.132221e-01	-3.094474e-01	-5.517331e-02	-1.037088e-01	-2.864759e-01	-1.642140e-01	-4.035125e-01	-3.462295e-01	-1.666183e-01	1.015470e-01	2.322244e-01	2.512148e-01	-1.874036e-01	-2.615602e-01	-2.162563e-01	-3.906991e-01	-2.378898e-01	-1.011397e-01	-3.130652e-01	-2.909617e-01	1.971987e-01	-1.561215e-01	-1.412329e-01	-1.359787e-01	2.150053e-01	3.328275e-01	3.430797e-01	1.150277e-01	-1.471057e-01	-1.913309e-01	-1.858463e-01	2.230812e-02	6.399051e-03	3.131322e-02	-8.492675e-03	-2.142810e-02	-8.961186e-02	-1.768852e-01	2.318587e-01	-6.272711e-02	-7.570576e-02	1.837403e-01	-1.435298e-01	8.869141e-02	7.454263e-02	1.328560e-01	1.561711e-01	1.904076e-01	-7.320652e-02	-4.386327e-02	-1.530866e-02	5.995894e-03	2.616398e-01	2.541276e-01	2.459696e-01	2.427827e-01	2.678320e-01	-1.540269e-01	-1.498003e-01	2.686517e-01	2.851397e-01	2.240859e-01	3.511740e-01	3.387845e-01	-1.088744e-02	-9.728323e-02	-7.925206e-02	-6.053903e-02	-4.328274e-02	-2.728328e-02	8.547678e-03	3.199206e-02	5.688012e-02	8.190852e-02	1.070987e-01	1.323252e-01	1.567823e-01	1.783736e-01	3.565099e-01	3.590191e-01	3.571262e-01	3.596848e-01	3.545315e-01	1.909637e-01	1.579734e-01	5.997247e-02	4.710583e-02	3.463006e-02	2.228859e-01	2.141506e-01	1.222718e-01	8.120468e-02	3.572938e-02	-9.195184e-03	3.290120e-01	3.190394e-01	3.071733e-01	2.912386e-01	2.703905e-01	2.572061e-01	2.998188e-01	3.098281e-01	-1.310632e-01	-1.239377e-01	1.765597e-01	1.467234e-01	1.305782e-01	2.793090e-01	2.777507e-01	-1.941095e-01	-2.249925e-01	-2.199772e-01	-2.249853e-01	-3.713132e-02	-1.810922e-01	-2.632974e-01	-1.954058e-01	-2.725551e-01	-2.049728e-01	-2.066137e-01	-1.838008e-01	-1.481122e-01	-2.854550e-01	-3.342296e-01	-1.482401e-01	8.738783e-02	3.030430e-01	-2.079589e-01	-2.160811e-02	-1.531573e-01	2.036374e-01	-1.098534e-01	-2.513027e-01	2.309580e-01	-6.334315e-02	1.454814e-01	1.871829e-01	-1.241106e-01	-1.358162e-01	-1.289602e-01	-1.041497e-01	-2.764355e-01	-1.648578e-01	-1.721956e-01	-1.389463e-01	3.237180e-01	1.761249e-01	1.145702e-01	2.192326e-02	-2.559011e-01	-2.648584e-01	-3.764981e-01	-1.120039e-01	-1.436135e-01	-2.514077e-01	-1.469569e-01	-2.534143e-01	-2.282487e-01	1.988450e-01	-3.219201e-01	3.990407e-02	6.290679e-02	-1.586054e-01	-3.338067e-01	-9.975121e-02	-1.580579e-01	1.003501e-01	-3.676932e-01	-2.392881e-01	-4.766373e-03	-3.086160e-01	-2.917491e-01	2.116605e-01	-1.797575e-01	-1.337081e-01	1.942479e-01	3.137764e-01	1.563638e-01	-1.851172e-01	-2.201188e-01	7.854260e-03	-7.496432e-03	-3.540369e-02	-5.001346e-02	-1.694685e-01	2.239840e-01	-7.519712e-02	-8.739496e-02	2.380235e-01	4.615294e-02	3.404818e-02	7.422696e-02	9.029722e-02	1.184803e-01	1.435269e-01	-7.613700e-02	2.510933e-01	2.446509e-01	1.713846e-01	2.017922e-01	1.300422e-01	-1.531459e-01	2.292520e-01	2.467507e-01	3.167119e-01	-1.020809e-01	-8.648747e-02	-2.152419e-02	-6.943961e-02	-5.267947e-02	-3.688693e-02	-4.652816e-03	1.552204e-02	3.834005e-02	6.210279e-02	8.607105e-02	1.102525e-01	1.341741e-01	3.322464e-01	3.380377e-01	3.403128e-01	3.394150e-01	3.379799e-01	3.280963e-01	1.542965e-01	1.196812e-01	6.002672e-02	2.198713e-02	2.167438e-01	2.085928e-01	8.679159e-02	5.047512e-02	9.581779e-03	-3.108220e-02	-7.024710e-02	3.025887e-01	2.893158e-01	2.7