# vtk DataFile Version 3.0
vtk output
ASCII
DATASET UNSTRUCTURED_GRID
POINTS 200 float
9.997500e-01	-3.633243e-05	0.0	9.990000e-01	-1.454723e-04	0.0	9.977600e-01	-3.275074e-04	0.0	9.960200e-01	-5.899270e-04	0.0	9.937800e-01	-9.470943e-04	0.0	9.910500e-01	-1.422095e-03	0.0	9.878400e-01	-2.045515e-03	0.0	9.841300e-01	-2.853670e-03	0.0	9.799500e-01	-3.858877e-03	0.0	9.752800e-01	-5.058294e-03	0.0	9.701500e-01	-6.405105e-03	0.0	9.645400e-01	-7.840836e-03	0.0	9.584700e-01	-9.290151e-03	0.0	9.519400e-01	-1.069769e-02	0.0	9.449600e-01	-1.203551e-02	0.0	9.375400e-01	-1.330801e-02	0.0	9.296900e-01	-1.454249e-02	0.0	9.214000e-01	-1.577724e-02	0.0	9.127000e-01	-1.703951e-02	0.0	9.035800e-01	-1.835033e-02	0.0	8.940600e-01	-1.971335e-02	0.0	8.841500e-01	-2.112395e-02	0.0	8.738500e-01	-2.257393e-02	0.0	8.631800e-01	-2.405119e-02	0.0	8.521600e-01	-2.554508e-02	0.0	8.407700e-01	-2.705243e-02	0.0	8.290500e-01	-2.856399e-02	0.0	8.170100e-01	-3.007593e-02	0.0	8.046400e-01	-3.158743e-02	0.0	7.919700e-01	-3.309282e-02	0.0	7.790100e-01	-3.458886e-02	0.0	7.657800e-01	-3.607091e-02	0.0	7.522800e-01	-3.753643e-02	0.0	7.385200e-01	-3.898156e-02	0.0	7.245300e-01	-4.040044e-02	0.0	7.103200e-01	-4.178943e-02	0.0	6.958900e-01	-4.314598e-02	0.0	6.812700e-01	-4.446489e-02	0.0	6.664700e-01	-4.574315e-02	0.0	6.515000e-01	-4.697800e-02	0.0	6.363800e-01	-4.816612e-02	0.0	6.211300e-01	-4.930460e-02	0.0	6.057600e-01	-5.039158e-02	0.0	5.902800e-01	-5.142543e-02	0.0	5.747100e-01	-5.240410e-02	0.0	5.590600e-01	-5.332642e-02	0.0	5.433600e-01	-5.419030e-02	0.0	5.276100e-01	-5.499556e-02	0.0	5.118400e-01	-5.574054e-02	0.0	4.960500e-01	-5.642518e-02	0.0	4.802700e-01	-5.704816e-02	0.0	4.645100e-01	-5.760906e-02	0.0	4.487800e-01	-5.810743e-02	0.0	4.331100e-01	-5.854218e-02	0.0	4.175000e-01	-5.891308e-02	0.0	4.019700e-01	-5.921925e-02	0.0	3.865400e-01	-5.945979e-02	0.0	3.712300e-01	-5.963381e-02	0.0	3.560400e-01	-5.974053e-02	0.0	3.409900e-01	-5.977878e-02	0.0	3.261100e-01	-5.974747e-02	0.0	3.114000e-01	-5.964544e-02	0.0	2.968700e-01	-5.947133e-02	0.0	2.825500e-01	-5.922405e-02	0.0	2.684500e-01	-5.890231e-02	0.0	2.545700e-01	-5.850443e-02	0.0	2.409400e-01	-5.802955e-02	0.0	2.275700e-01	-5.747639e-02	0.0	2.144700e-01	-5.684365e-02	0.0	2.016600e-01	-5.613067e-02	0.0	1.891400e-01	-5.533575e-02	0.0	1.769300e-01	-5.445848e-02	0.0	1.650400e-01	-5.349802e-02	0.0	1.534900e-01	-5.245459e-02	0.0	1.422900e-01	-5.132792e-02	0.0	1.314400e-01	-5.011675e-02	0.0	1.209500e-01	-4.882082e-02	0.0	1.108500e-01	-4.744293e-02	0.0	1.011300e-01	-4.598090e-02	0.0	9.181000e-02	-4.443684e-02	0.0	8.290000e-02	-4.281188e-02	0.0	7.440000e-02	-4.110537e-02	0.0	6.633000e-02	-3.932086e-02	0.0	5.869000e-02	-3.745803e-02	0.0	5.149000e-02	-3.551892e-02	0.0	4.474000e-02	-3.350605e-02	0.0	3.844000e-02	-3.141910e-02	0.0	3.260000e-02	-2.926093e-02	0.0	2.723000e-02	-2.703521e-02	0.0	2.232000e-02	-2.473693e-02	0.0	1.790000e-02	-2.238007e-02	0.0	1.395000e-02	-1.995381e-02	0.0	1.049000e-02	-1.746942e-02	0.0	7.520000e-03	-1.492781e-02	0.0	5.040000e-03	-1.232916e-02	0.0	3.050000e-03	-9.671917e-03	0.0	1.560000e-03	-6.971333e-03	0.0	5.600000e-04	-4.206251e-03	0.0	6.000000e-05	-1.384015e-03	0.0	0.000000e+00	0.000000e+00	0.0	6.000000e-05	1.263717e-03	0.0	5.600000e-04	3.624959e-03	0.0	1.560000e-03	5.788687e-03	0.0	3.050000e-03	7.806660e-03	0.0	5.040000e-03	9.723902e-03	0.0	7.520000e-03	1.154817e-02	0.0	1.049000e-02	1.329444e-02	0.0	1.395000e-02	1.497324e-02	0.0	1.790000e-02	1.659248e-02	0.0	2.232000e-02	1.815177e-02	0.0	2.723000e-02	1.966427e-02	0.0	3.260000e-02	2.112584e-02	0.0	3.844000e-02	2.254418e-02	0.0	4.474000e-02	2.392066e-02	0.0	5.149000e-02	2.525665e-02	0.0	5.869000e-02	2.655516e-02	0.0	6.633000e-02	2.781694e-02	0.0	7.440000e-02	2.904263e-02	0.0	8.290000e-02	3.023416e-02	0.0	9.181000e-02	3.139042e-02	0.0	1.011300e-01	3.251293e-02	0.0	1.108500e-01	3.360165e-02	0.0	1.209500e-01	3.465544e-02	0.0	1.314400e-01	3.567617e-02	0.0	1.422900e-01	3.666155e-02	0.0	1.534900e-01	3.761131e-02	0.0	1.650400e-01	3.852582e-02	0.0	1.769300e-01	3.940438e-02	0.0	1.891400e-01	4.024554e-02	0.0	2.016600e-01	4.104851e-02	0.0	2.144700e-01	4.181177e-02	0.0	2.275700e-01	4.253494e-02	0.0	2.409400e-01	4.321629e-02	0.0	2.545700e-01	4.385457e-02	0.0	2.684500e-01	4.444839e-02	0.0	2.825500e-01	4.499544e-02	0.0	2.968700e-01	4.549454e-02	0.0	3.114000e-01	4.594391e-02	0.0	3.261100e-01	4.634109e-02	0.0	3.409900e-01	4.668421e-02	0.0	3.560400e-01	4.697140e-02	0.0	3.712300e-01	4.720009e-02	0.0	3.865400e-01	4.736797e-02	0.0	4.019700e-01	4.747290e-02	0.0	4.175000e-01	4.751242e-02	0.0	4.331100e-01	4.748419e-02	0.0	4.487800e-01	4.738597e-02	0.0	4.645100e-01	4.721542e-02	0.0	4.802700e-01	4.697055e-02	0.0	4.960500e-01	4.664935e-02	0.0	5.118400e-01	4.624989e-02	0.0	5.276100e-01	4.577103e-02	0.0	5.433600e-01	4.521109e-02	0.0	5.590600e-01	4.456971e-02	0.0	5.747100e-01	4.384575e-02	0.0	5.902800e-01	4.303986e-02	0.0	6.057600e-01	4.215232e-02	0.0	6.211300e-01	4.118450e-02	0.0	6.363800e-01	4.013779e-02	0.0	6.515000e-01	3.901416e-02	0.0	6.664700e-01	3.781694e-02	0.0	6.812700e-01	3.655036e-02	0.0	6.958900e-01	3.521856e-02	0.0	7.103200e-01	3.382635e-02	0.0	7.245300e-01	3.238130e-02	0.0	7.385200e-01	3.088875e-02	0.0	7.522800e-01	2.935563e-02	0.0	7.657800e-01	2.779185e-02	0.0	7.790100e-01	2.620580e-02	0.0	7.919700e-01	2.460510e-02	0.0	8.046400e-01	2.300029e-02	0.0	8.170100e-01	2.140100e-02	0.0	8.290500e-01	1.981959e-02	0.0	8.407700e-01	1.826284e-02	0.0	8.521600e-01	1.673921e-02	0.0	8.631800e-01	1.525953e-02	0.0	8.738500e-01	1.382428e-02	0.0	8.841500e-01	1.243668e-02	0.0	8.940600e-01	1.109794e-02	0.0	9.035800e-01	9.806370e-03	0.0	9.127000e-01	8.564674e-03	0.0	9.214000e-01	7.383797e-03	0.0	9.296900e-01	6.280300e-03	0.0	9.375400e-01	5.285146e-03	0.0	9.449600e-01	4.427477e-03	0.0	9.519400e-01	3.732208e-03	0.0	9.584700e-01	3.205455e-03	0.0	9.645400e-01	2.827042e-03	0.0	9.701500e-01	2.552114e-03	0.0	9.752800e-01	2.324872e-03	0.0	9.799500e-01	2.093085e-03	0.0	9.841300e-01	1.827037e-03	0.0	9.878400e-01	1.519906e-03	0.0	9.910500e-01	1.190204e-03	0.0	9.937800e-01	8.630224e-04	0.0	9.960200e-01	5.666265e-04	0.0	9.977600e-01	3.231883e-04	0.0	9.990000e-01	1.450783e-04	0.0	9.997500e-01	3.632619e-05	0.0	1.000000e+00	0.000000e+00	0.0	
CELLS 200	600
2	149	150	2	150	151	2	151	152	2	152	153	2	153	154	2	154	155	2	155	156	2	156	157	2	157	158	2	158	159	2	159	160	2	160	161	2	161	162	2	162	163	2	163	164	2	164	165	2	165	166	2	166	167	2	167	168	2	168	169	2	169	170	2	170	171	2	171	172	2	172	173	2	173	174	2	174	175	2	175	176	2	176	177	2	177	178	2	178	179	2	179	180	2	180	181	2	181	182	2	31	32	2	32	33	2	33	34	2	34	35	2	35	36	2	36	37	2	37	38	2	38	39	2	39	40	2	40	41	2	41	42	2	42	43	2	43	44	2	44	45	2	45	46	2	46	47	2	47	48	2	48	49	2	49	50	2	50	51	2	51	52	2	52	53	2	53	54	2	54	55	2	55	56	2	56	57	2	57	58	2	58	59	2	59	60	2	60	61	2	61	62	2	62	63	2	63	64	2	64	65	2	65	66	2	66	67	2	67	68	2	68	69	2	69	70	2	70	71	2	71	72	2	72	73	2	73	74	2	74	75	2	75	76	2	76	77	2	77	78	2	78	79	2	79	80	2	80	81	2	81	82	2	82	83	2	83	84	2	113	114	2	114	115	2	115	116	2	116	117	2	117	118	2	118	119	2	119	120	2	120	121	2	121	122	2	122	123	2	123	124	2	124	125	2	125	126	2	126	127	2	127	128	2	128	129	2	129	130	2	130	131	2	131	132	2	132	133	2	133	134	2	134	135	2	135	136	2	136	137	2	137	138	2	138	139	2	139	140	2	140	141	2	141	142	2	142	143	2	143	144	2	144	145	2	145	146	2	146	147	2	147	148	2	148	149	2	84	85	2	85	86	2	86	87	2	87	88	2	88	89	2	89	90	2	90	91	2	91	92	2	92	93	2	93	94	2	94	95	2	95	96	2	96	97	2	97	98	2	98	99	2	99	100	2	100	101	2	101	102	2	102	103	2	103	104	2	104	105	2	105	106	2	106	107	2	107	108	2	108	109	2	109	110	2	110	111	2	111	112	2	112	113	2	199	0	2	0	1	2	1	2	2	2	3	2	3	4	2	4	5	2	5	6	2	6	7	2	182	183	2	183	184	2	184	185	2	185	186	2	186	187	2	187	188	2	188	189	2	189	190	2	190	191	2	191	192	2	192	193	2	193	194	2	194	195	2	195	196	2	196	197	2	197	198	2	198	199	2	7	8	2	8	9	2	9	10	2	10	11	2	11	12	2	12	13	2	13	14	2	14	15	2	15	16	2	16	17	2	17	18	2	18	19	2	19	20	2	20	21	2	21	22	2	22	23	2	23	24	2	24	25	2	25	26	2	26	27	2	27	28	2	28	29	2	29	30	2	30	31	
CELL_TYPES 200
3	3	3	3	3	3	3	3	3	3	3	3	3	3	3	3	3	3	3	3	3	3	3	3	3	3	3	3	3	3	3	3	3	3	3	3	3	3	3	3	3	3	3	3	3	3	3	3	3	3	3	3	3	3	3	3	3	3	3	3	3	3	3	3	3	3	3	3	3	3	3	3	3	3	3	3	3	3	3	3	3	3	3	3	3	3	3	3	3	3	3	3	3	3	3	3	3	3	3	3	3	3	3	3	3	3	3	3	3	3	3	3	3	3	3	3	3	3	3	3	3	3	3	3	3	3	3	3	3	3	3	3	3	3	3	3	3	3	3	3	3	3	3	3	3	3	3	3	3	3	3	3	3	3	3	3	3	3	3	3	3	3	3	3	3	3	3	3	3	3	3	3	3	3	3	3	3	3	3	3	3	3	3	3	3	3	3	3	3	3	3	3	3	3	3	3	3	3	3	3	
POINT_DATA 200

SCALARS Conservative_1 float 1
LOOKUP_TABLE default
-1.709446e-01	-2.155571e-01	-2.125687e-01	-2.103630e-01	-2.104203e-01	-2.078120e-01	-2.010095e-01	-1.877223e-01	-1.662530e-01	-1.361086e-01	-9.887274e-02	-5.842637e-02	-2.097666e-02	6.945994e-03	2.166262e-02	2.465810e-02	2.139886e-02	1.743897e-02	1.624313e-02	1.873004e-02	2.455542e-02	3.274513e-02	4.220061e-02	5.214595e-02	6.199111e-02	7.155390e-02	8.078032e-02	8.975732e-02	9.868043e-02	1.076122e-01	1.166759e-01	1.258634e-01	1.351369e-01	1.444282e-01	1.536742e-01	1.628311e-01	1.719219e-01	1.809863e-01	1.899776e-01	1.988265e-01	2.074587e-01	2.158456e-01	2.239607e-01	2.318152e-01	2.394084e-01	2.467575e-01	2.538742e-01	2.607851e-01	2.675841e-01	2.743270e-01	2.810384e-01	2.876268e-01	2.938098e-01	2.993494e-01	3.043961e-01	3.094200e-01	3.148893e-01	3.210032e-01	3.277513e-01	3.350000e-01	3.427732e-01	3.510777e-01	3.598521e-01	3.685784e-01	3.761866e-01	3.810307e-01	3.814548e-01	3.764028e-01	3.663356e-01	3.531764e-01	3.396335e-01	3.276689e-01	3.175440e-01	3.078847e-01	2.968831e-01	2.837670e-01	2.688051e-01	2.525284e-01	2.349489e-01	2.159180e-01	1.953057e-01	1.729960e-01	1.488200e-01	1.225466e-01	9.389889e-02	6.264576e-02	2.839916e-02	-9.109120e-03	-5.036737e-02	-9.559439e-02	-1.451867e-01	-1.989046e-01	-2.567294e-01	-3.162685e-01	-3.758904e-01	-4.279441e-01	-4.693408e-01	-4.965446e-01	-4.931305e-01	-4.650665e-01	-4.267567e-01	-3.397345e-01	-1.988969e-01	-4.694826e-02	9.235003e-02	2.073249e-01	2.936267e-01	3.555148e-01	3.984841e-01	4.277750e-01	4.470665e-01	4.586597e-01	4.648101e-01	4.672677e-01	4.674027e-01	4.664427e-01	4.649506e-01	4.630430e-01	4.608519e-01	4.584851e-01	4.558341e-01	4.524882e-01	4.483696e-01	4.439456e-01	4.397117e-01	4.358096e-01	4.319903e-01	4.279846e-01	4.237620e-01	4.193992e-01	4.149928e-01	4.105252e-01	4.059196e-01	4.011428e-01	3.960460e-01	3.904907e-01	3.843083e-01	3.776225e-01	3.707446e-01	3.641097e-01	3.578153e-01	3.516501e-01	3.453326e-01	3.387061e-01	3.316400e-01	3.239649e-01	3.155372e-01	3.065101e-01	2.973551e-01	2.883409e-01	2.791960e-01	2.694026e-01	2.584904e-01	2.465234e-01	2.338686e-01	2.207375e-01	2.072138e-01	1.932800e-01	1.789646e-01	1.642568e-01	1.492347e-01	1.339492e-01	1.184266e-01	1.027569e-01	8.695206e-02	7.111753e-02	5.529607e-02	3.962122e-02	2.412851e-02	8.917398e-03	-5.988264e-03	-2.046973e-02	-3.444053e-02	-4.777000e-02	-6.045659e-02	-7.234000e-02	-8.366106e-02	-9.464680e-02	-1.057608e-01	-1.175420e-01	-1.304441e-01	-1.444971e-01	-1.591238e-01	-1.729830e-01	-1.843475e-01	-1.914334e-01	-1.929485e-01	-1.885862e-01	-1.795157e-01	-1.687097e-01	-1.605698e-01	-1.595494e-01	-1.678687e-01	-1.847254e-01	-2.075985e-01	-2.346440e-01	-2.599966e-01	-2.846827e-01	-3.865625e-01	-2.907976e-01	
SCALARS Conservative_2 float 1
LOOKUP_TABLE default
1.035337e-01	2.226026e-01	2.417150e-01	2.503717e-01	2.584156e-01	2.608336e-01	2.566173e-01	2.428781e-01	2.175138e-01	1.799848e-01	1.326678e-01	8.085154e-02	3.249793e-02	-4.238131e-03	-2.470092e-02	-3.038638e-02	-2.765826e-02	-2.330623e-02	-2.172669e-02	-2.429088e-02	-3.075122e-02	-4.002429e-02	-5.084119e-02	-6.225634e-02	-7.357288e-02	-8.454377e-02	-9.510109e-02	-1.053380e-01	-1.154617e-01	-1.255573e-01	-1.357486e-01	-1.460349e-01	-1.563753e-01	-1.666995e-01	-1.769339e-01	-1.870313e-01	-1.970153e-01	-2.069282e-01	-2.167220e-01	-2.263211e-01	-2.356516e-01	-2.446824e-01	-2.533897e-01	-2.617846e-01	-2.698718e-01	-2.776674e-01	-2.851901e-01	-2.924681e-01	-2.995951e-01	-3.066304e-01	-3.136056e-01	-3.204253e-01	-3.268074e-01	-3.325164e-01	-3.377026e-01	-3.428396e-01	-3.483914e-01	-3.545483e-01	-3.612805e-01	-3.684560e-01	-3.760879e-01	-3.841925e-01	-3.927006e-01	-4.011118e-01	-4.083622e-01	-4.128409e-01	-4.129043e-01	-4.075165e-01	-3.970966e-01	-3.835267e-01	-3.694323e-01	-3.567320e-01	-3.456488e-01	-3.348021e-01	-3.223723e-01	-3.075346e-01	-2.905024e-01	-2.717245e-01	-2.511370e-01	-2.284933e-01	-2.035427e-01	-1.760267e-01	-1.455923e-01	-1.117829e-01	-7.404817e-02	-3.179328e-02	1.582094e-02	6.960937e-02	1.307738e-01	2.003838e-01	2.798906e-01	3.699556e-01	4.720295e-01	5.832006e-01	7.018640e-01	8.173170e-01	9.179364e-01	9.833272e-01	1.008445e+00	9.925133e-01	9.354954e-01	8.120709e-01	5.864855e-01	3.509416e-01	1.351484e-01	-3.795819e-02	-1.665490e-01	-2.593212e-01	-3.250406e-01	-3.713096e-01	-4.035233e-01	-4.251462e-01	-4.392231e-01	-4.480134e-01	-4.532486e-01	-4.564039e-01	-4.582635e-01	-4.591278e-01	-4.592443e-01	-4.588282e-01	-4.578451e-01	-4.559750e-01	-4.531776e-01	-4.499177e-01	-4.466934e-01	-4.436672e-01	-4.406265e-01	-4.373327e-01	-4.337572e-01	-4.299845e-01	-4.261144e-01	-4.221318e-01	-4.179764e-01	-4.136081e-01	-4.088978e-01	-4.037041e-01	-3.978735e-01	-3.915150e-01	-3.849375e-01	-3.785581e-01	-3.724794e-01	-3.664924e-01	-3.603228e-01	-3.538109e-01	-3.468251e-01	-3.391951e-01	-3.307647e-01	-3.216787e-01	-3.123937e-01	-3.031756e-01	-2.937628e-01	-2.836180e-01	-2.722664e-01	-2.597500e-01	-2.464347e-01	-2.325205e-01	-2.180830e-01	-2.031047e-01	-1.875895e-01	-1.715434e-01	-1.550174e-01	-1.380749e-01	-1.207283e-01	-1.030793e-01	-8.513260e-02	-6.700864e-02	-4.875020e-02	-3.051330e-02	-1.233918e-02	5.648803e-03	2.341653e-02	4.081292e-02	5.772743e-02	7.400405e-02	8.960464e-02	1.043782e-01	1.185913e-01	1.325554e-01	1.468601e-01	1.621992e-01	1.791383e-01	1.976882e-01	2.170389e-01	2.353636e-01	2.502936e-01	2.594002e-01	2.609675e-01	2.547140e-01	2.424628e-01	2.284722e-01	2.187734e-01	2.192248e-01	2.325407e-01	2.576494e-01	2.912342e-01	3.310550e-01	3.676085e-01	4.021638e-01	5.570918e-01	2.870582e-01	
SCALARS Conservative_3 float 1
LOOKUP_TABLE default
-1.189482e-01	-9.737806e-02	-9.776189e-02	-9.821352e-02	-1.043520e-01	-1.161433e-01	-1.329125e-01	-1.531172e-01	-1.741553e-01	-1.925212e-01	-2.044463e-01	-2.069040e-01	-1.990038e-01	-1.831311e-01	-1.642103e-01	-1.472948e-01	-1.353533e-01	-1.286282e-01	-1.258739e-01	-1.253326e-01	-1.255625e-01	-1.256353e-01	-1.250810e-01	-1.238737e-01	-1.221008e-01	-1.199799e-01	-1.176481e-01	-1.151910e-01	-1.126783e-01	-1.100812e-01	-1.074126e-01	-1.046376e-01	-1.017312e-01	-9.866902e-02	-9.543935e-02	-9.203931e-02	-8.848419e-02	-8.478012e-02	-8.093648e-02	-7.696315e-02	-7.286761e-02	-6.866380e-02	-6.436188e-02	-5.997487e-02	-5.551165e-02	-5.098215e-02	-4.639569e-02	-4.174604e-02	-3.705439e-02	-3.231439e-02	-2.750881e-02	-2.260642e-02	-1.759711e-02	-1.248229e-02	-7.267863e-03	-1.930547e-03	3.559513e-03	9.249489e-03	1.516692e-02	2.136502e-02	2.787529e-02	3.475796e-02	4.207340e-02	4.986899e-02	5.817069e-02	6.691424e-02	7.598238e-02	8.522562e-02	9.457101e-02	1.041385e-01	1.141761e-01	1.249678e-01	1.366412e-01	1.490646e-01	1.620201e-01	1.753954e-01	1.892914e-01	2.038792e-01	2.191718e-01	2.351612e-01	2.518639e-01	2.692732e-01	2.874051e-01	3.061781e-01	3.254859e-01	3.451756e-01	3.649475e-01	3.843199e-01	4.025025e-01	4.183036e-01	4.299295e-01	4.344092e-01	4.278319e-01	4.048492e-01	3.584755e-01	2.816722e-01	1.712904e-01	4.131947e-02	-1.031022e-01	-2.017250e-01	-2.940505e-01	-4.639491e-01	-6.181360e-01	-6.826365e-01	-6.834774e-01	-6.469195e-01	-5.925893e-01	-5.339454e-01	-4.780268e-01	-4.273075e-01	-3.824254e-01	-3.429797e-01	-3.084435e-01	-2.782583e-01	-2.518981e-01	-2.288523e-01	-2.086056e-01	-1.906588e-01	-1.746813e-01	-1.603517e-01	-1.473715e-01	-1.354651e-01	-1.244679e-01	-1.143473e-01	-1.050423e-01	-9.642694e-02	-8.836501e-02	-8.073202e-02	-7.347955e-02	-6.658186e-02	-5.998357e-02	-5.364367e-02	-4.750533e-02	-4.153267e-02	-3.569492e-02	-2.992898e-02	-2.420812e-02	-1.850224e-02	-1.283822e-02	-7.217505e-03	-1.620351e-03	4.008331e-03	9.690412e-03	1.543330e-02	2.124071e-02	2.714157e-02	3.314550e-02	3.922564e-02	4.534827e-02	5.149606e-02	5.770124e-02	6.398889e-02	7.031450e-02	7.662056e-02	8.284502e-02	8.898517e-02	9.503079e-02	1.009383e-01	1.066719e-01	1.121732e-01	1.174075e-01	1.223503e-01	1.269260e-01	1.311335e-01	1.348936e-01	1.382124e-01	1.410149e-01	1.433252e-01	1.450654e-01	1.462631e-01	1.468531e-01	1.468786e-01	1.463301e-01	1.453002e-01	1.438509e-01	1.422046e-01	1.404706e-01	1.388318e-01	1.373186e-01	1.357243e-01	1.335153e-01	1.298590e-01	1.238328e-01	1.147991e-01	1.027987e-01	8.880594e-02	7.473646e-02	6.315914e-02	5.676983e-02	5.748404e-02	6.548334e-02	7.861510e-02	9.297181e-02	1.050101e-01	1.130934e-01	1.172327e-01	1.185712e-01	1.324183e-01	1.244668e-01	-2.852480e-01	
SCALARS Conservative_4 float 1
LOOKUP_TABLE default
-1.489265e-02	-4.773870e-02	-4.962303e-02	-5.016813e-02	-5.111297e-02	-5.096841e-02	-4.959778e-02	-4.649640e-02	-4.126545e-02	-3.378132e-02	-2.443142e-02	-1.419906e-02	-4.648682e-03	2.494157e-03	6.232284e-03	6.923375e-03	5.970882e-03	4.860288e-03	4.467610e-03	5.051853e-03	6.498871e-03	8.557567e-03	1.095102e-02	1.345645e-02	1.594334e-02	1.834733e-02	2.067317e-02	2.294174e-02	2.518607e-02	2.744442e-02	2.972204e-02	3.203450e-02	3.437161e-02	3.672080e-02	3.906004e-02	4.137538e-02	4.367416e-02	4.596199e-02	4.823363e-02	5.046611e-02	5.264723e-02	5.476380e-02	5.681502e-02	5.879764e-02	6.071756e-02	6.257345e-02	6.437352e-02	6.612231e-02	6.783821e-02	6.953730e-02	7.123614e-02	7.290355e-02	7.446921e-02	7.587589e-02	7.715810e-02	7.843725e-02	7.982861e-02	8.138599e-02	8.309675e-02	8.493895e-02	8.690467e-02	8.900764e-02	9.121141e-02	9.339496e-02	9.526817e-02	9.643532e-02	9.647103e-02	9.514874e-02	9.257609e-02	8.926488e-02	8.586045e-02	8.285490e-02	8.028756e-02	7.781531e-02	7.500170e-02	7.165056e-02	6.785422e-02	6.372380e-02	5.926690e-02	5.444493e-02	4.923084e-02	4.359306e-02	3.749748e-02	3.088490e-02	2.370048e-02	1.587580e-02	7.341234e-03	-1.972154e-03	-1.214758e-02	-2.327813e-02	-3.531593e-02	-4.836729e-02	-6.212345e-02	-7.629064e-02	-8.997840e-02	-1.023271e-01	-1.108527e-01	-1.119650e-01	-1.083237e-01	-1.044902e-01	-9.765680e-02	-7.356694e-02	-3.839472e-02	-2.732939e-03	2.960292e-02	5.582544e-02	7.574166e-02	9.015248e-02	1.004752e-01	1.075700e-01	1.123826e-01	1.153071e-01	1.169087e-01	1.175826e-01	1.176695e-01	1.174624e-01	1.171184e-01	1.166662e-01	1.161343e-01	1.155649e-01	1.149173e-01	1.141024e-01	1.130881e-01	1.119861e-01	1.109242e-01	1.099422e-01	1.089846e-01	1.079880e-01	1.069286e-01	1.058327e-01	1.047242e-01	1.035946e-01	1.024374e-01	1.012273e-01	9.994668e-02	9.854402e-02	9.699263e-02	9.530573e-02	9.357079e-02	9.188754e-02	9.029081e-02	8.872649e-02	8.712361e-02	8.544066e-02	8.364918e-02	8.170655e-02	7.957021e-02	7.727974e-02	7.495199e-02	7.265463e-02	7.034609e-02	6.786890e-02	6.510966e-02	6.208123e-02	5.887424e-02	5.555760e-02	5.214130e-02	4.862235e-02	4.499377e-02	4.127757e-02	3.747646e-02	3.361032e-02	2.968418e-02	2.571932e-02	2.172259e-02	1.771615e-02	1.371570e-02	9.751119e-03	5.830216e-03	1.976633e-03	-1.799941e-03	-5.470868e-03	-9.006066e-03	-1.239256e-02	-1.558517e-02	-1.860545e-02	-2.146715e-02	-2.425134e-02	-2.706847e-02	-3.007125e-02	-3.336745e-02	-3.697589e-02	-4.072933e-02	-4.429120e-02	-4.720612e-02	-4.902201e-02	-4.941134e-02	-4.830016e-02	-4.600567e-02	-4.330866e-02	-4.136765e-02	-4.132994e-02	-4.368933e-02	-4.822599e-02	-5.428611e-02	-6.190127e-02	-6.864047e-02	-7.594433e-02	-1.296628e-01	-7.769401e-02	
SCALARS Surface_Sensitivity float 1
LOOKUP_TABLE default
-5.379036e+02	1.184322e+02	5.572455e+00	3.790108e+00	3.108295e+00	1.760842e+00	1.305056e+00	1.001228e+00	7.143922e-01	4.435154e-01	2.546533e-01	2.299783e-02	-2.860669e-01	-3.794929e-01	-1.442217e-01	1.758024e-01	3.173559e-01	2.854756e-01	1.956241e-01	1.194208e-01	6.316249e-02	2.879871e-02	1.570305e-02	1.199731e-02	1.757528e-02	2.487695e-02	3.191075e-02	3.573569e-02	2.950829e-02	1.882172e-02	8.381874e-03	8.115221e-03	1.730390e-02	2.676312e-02	3.124287e-02	2.992774e-02	2.119383e-02	9.789369e-03	3.358760e-03	1.915499e-03	5.805141e-03	1.221242e-02	2.020482e-02	2.209999e-02	1.469288e-02	-1.548101e-03	-1.152128e-02	-1.690480e-03	2.281252e-02	1.802503e-02	-5.692497e-02	-1.760094e-01	-2.465584e-01	-1.894853e-01	1.932174e-02	3.435775e-01	6.861661e-01	8.909002e-01	8.165384e-01	4.552662e-01	-6.574277e-02	-5.797050e-01	-9.713412e-01	-1.166975e+00	-1.125439e+00	-8.335709e-01	-3.394723e-01	2.386660e-01	7.045404e-01	8.837914e-01	7.105719e-01	3.020562e-01	-9.156456e-02	-2.462313e-01	-1.526044e-01	2.896869e-03	5.905717e-02	3.046535e-02	2.403018e-04	-1.421707e-02	-2.210885e-02	-2.648284e-02	-2.092623e-02	1.007626e-02	4.279387e-02	8.599359e-02	1.696602e-01	2.889278e-01	4.732166e-01	7.916051e-01	1.276777e+00	1.982155e+00	3.064388e+00	4.127440e+00	4.526010e+00	5.012609e+00	4.407090e+00	1.188446e+01	7.628148e+00	-7.487307e+00	3.000861e+01	3.217627e+01	2.272690e+01	1.826094e+01	8.984650e+00	4.117527e+00	2.724621e+00	2.014337e+00	1.303613e+00	7.039230e-01	2.129413e-01	-1.328840e-01	-3.373674e-01	-4.464294e-01	-3.279895e-01	-4.334591e-02	1.974155e-01	2.870305e-01	2.301252e-01	1.110365e-01	4.152458e-02	6.894571e-02	1.429342e-01	1.693094e-01	1.220797e-01	5.618010e-02	1.664450e-03	-3.097450e-02	-3.262034e-02	1.231783e-03	4.352313e-02	6.405178e-02	4.833943e-02	1.191777e-03	-7.080425e-02	-1.651642e-01	-2.677570e-01	-3.490909e-01	-3.667192e-01	-3.060638e-01	-2.011835e-01	-1.030336e-01	-3.556031e-02	1.106424e-02	4.930063e-02	7.972078e-02	1.066245e-01	1.419682e-01	1.744366e-01	1.554135e-01	7.033660e-02	-3.169025e-02	-7.616095e-02	-4.402878e-02	-1.030511e-03	-4.543875e-03	-3.493088e-02	-4.286713e-02	-2.581486e-02	-4.400830e-03	1.915612e-03	-3.360244e-03	-1.005357e-02	-1.607248e-02	-2.036140e-02	-2.329962e-02	-2.259657e-02	-2.225200e-02	-1.867743e-02	-2.008274e-02	-2.285863e-02	-2.700864e-02	-3.215380e-02	-3.499339e-02	-3.166744e-02	-3.390402e-02	-3.693818e-02	-4.833412e-02	-7.055913e-02	-1.048739e-01	-1.435556e-01	-1.765987e-01	-1.849040e-01	-1.609867e-01	-9.973667e-02	-1.333896e-02	7.532249e-02	1.264940e-01	8.383349e-02	-1.437075e-01	-6.603121e-01	-1.340195e+00	-1.984154e+00	-2.752469e+00	-4.873817e+00	-6.247972e+00	-1.022331e+01	-2.039317e+02	3.598199e+02	4.194221e+02	
SCALARS Solution_Sensor float 1
LOOKUP_TABLE default
0.000000e+00	0.000000e+00	0.000000e+00	0.000000e+00	0.000000e+00	0.000000e+00	0.000000e+00	0.000000e+00	0.000000e+00	0.000000e+00	0.000000e+00	0.000000e+00	0.000000e+00	0.000000e+00	0.000000e+00	0.000000e+00	0.000000e+00	0.000000e+00	0.000000e+00	0.000000e+00	0.000000e+00	0.000000e+00	0.000000e+00	0.000000e+00	0.000000e+00	0.000000e+00	0.000000e+00	0.000000e+00	0.000000e+00	0.000000e+00	0.000000e+00	0.000000e+00	0.000000e+00	0.000000e+00	0.000000e+00	0.000000e+00	0.000000e+00	0.000000e+00	0.000000e+00	0.000000e+00	0.000000e+00	0.000000e+00	0.000000e+00	0.000000e+00	0.000000e+00	0.000000e+00	0.000000e+00	0.000000e+00	0.000000e+00	0.000000e+00	0.000000e+00	0.000000e+00	0.000000e+00	0.000000e+00	0.000000e+00	0.000000e+00	0.000000e+00	0.000000e+00	0.000000e+00	0.000000e+00	0.000000e+00	0.000000e+00	0.000000e+00	0.000000e+00	0.000000e+00	0.000000e+00	0.000000e+00	0.000000e+00	0.000000e+00	0.000000e+00	0.000000e+00	0.000000e+00	0.000000e+00	0.000000e+00	0.000000e+00	0.000000e+00	0.000000e+00	0.000000e+00	0.000000e+00	0.000000e+00	0.000000e+00	0.000000e+00	0.000000e+00	0.000000e+00	0.000000e+00	0.000000e+00	0.000000e+00	0.000000e+00	0.000000e+00	0.000000e+00	0.000000e+00	0.000000e+00	0.000000e+00	0.000000e+00	0.000000e+00	0.000000e+00	0.000000e+00	0.000000e+00	0.000000e+00	0.000000e+00	0.000000e+00	0.000000e+00	0.000000e+00	0.000000e+00	0.000000e+00	0.000000e+00	0.000000e+00	0.000000e+00	0.000000e+00	0.000000e+00	0.000000e+00	0.000000e+00	0.000000e+00	0.000000e+00	0.000000e+00	0.000000e+00	0.000000e+00	0.000000e+00	0.000000e+00	0.000000e+00	0.000000e+00	0.000000e+00	0.000000e+00	0.000000e+00	0.000000e+00	0.000000e+00	0.000000e+00	0.000000e+00	0.000000e+00	0.000000e+00	0.000000e+00	0.000000e+00	0.000000e+00	0.000000e+00	0.000000e+00	0.000000e+00	0.000000e+00	0.000000e+00	0.000000e+00	0.000000e+00	0.000000e+00	0.000000e+00	0.000000e+00	0.000000e+00	0.000000e+00	0.000000e+00	0.000000e+00	0.000000e+00	0.000000e+00	0.000000e+00	0.000000e+00	0.000000e+00	0.000000e+00	0.000000e+00	0.000000e+00	0.000000e+00	0.000000e+00	0.000000e+00	0.000000e+00	0.000000e+00	0.000000e+00	0.000000e+00	0.000000e+00	0.000000e+00	0.000000e+00	0.000000e+00	0.000000e+00	0.000000e+00	0.000000e+00	0.000000e+00	0.000000e+00	0.000000e+00	0.000000e+00	0.000000e+00	0.000000e+00	0.000000e+00	0.000000e+00	0.000000e+00	0.000000e+00	0.000000e+00	0.000000e+00	0.000000e+00	0.000000e+00	0.000000e+00	0.000000e+00	0.000000e+00	0.000000e+00	0.000000e+00	0.000000e+00	0.000000e+00	0.000000e+00	0.000000e+00	0.000000e+00	0.000000e+00	0.000000e+00	0.000000e+00	0.000000e+00	0.000000e+00	0.000000e+00	0.000000e+00	