TITLE = "SU2 Simulation"
VARIABLES = "Iteration","CLift","CDrag","CSideForce","CMx","CMy","CMz","CFx","CFy","CFz","CL/CD","Res_Flow[0]","Res_Flow[1]","Res_Flow[2]","Res_Flow[3]","Res_Flow[4]","Linear_Solver_Iterations","CFL_Number","Time(min)"
ZONE T= "Convergence history"
           0, 9.30618094e-02, 1.67315734e-01, 0.00000000e+00, 0.00000000e+00, 0.00000000e+00, 2.48641369e-02, 1.65245785e-01, 9.66896367e-02, 0.00000000e+00, 5.56204771e-01, -3.58539099e+00, -3.60934035e+00, -5.27048406e+00, -2.98901385e+00, 0.00000000e+00, 2.0000000000, 10.0000000000, 0.0003130317
           1, 7.89022253e-02, 9.18457916e-02, 0.00000000e+00, 0.00000000e+00, 0.00000000e+00, 1.53374639e-02, 9.01026918e-02, 8.08870541e-02, 0.00000000e+00, 8.59072842e-01, -3.62007496e+00, -3.57067641e+00, -3.67385291e+00, -3.00079756e+00, 0.00000000e+00, 2.0000000000, 10.0000000000, 0.0006108840
           2, 9.05886550e-02, 7.79688527e-02, 0.00000000e+00, 0.00000000e+00, 0.00000000e+00, 1.56829737e-02, 7.59741172e-02, 9.22679789e-02, 0.00000000e+00, 1.16185697e+00, -3.70673426e+00, -3.66092017e+00, -3.66497547e+00, -3.10159275e+00, 0.00000000e+00, 2.0000000000, 10.0000000000, 0.0008820812
           3, 1.09713166e-01, 7.34421645e-02, 0.00000000e+00, 0.00000000e+00, 0.00000000e+00, 1.83463178e-02, 7.10313071e-02, 1.11289190e-01, 0.00000000e+00, 1.49387163e+00, -3.65682850e+00, -3.61286797e+00, -3.63261640e+00, -3.04926632e+00, 0.00000000e+00, 2.0000000000, 10.0000000000, 0.0011590838
           4, 1.23943174e-01, 6.54277083e-02, 0.00000000e+00, 0.00000000e+00, 0.00000000e+00, 1.93230460e-02, 6.27083322e-02, 1.25340977e-01, 0.00000000e+00, 1.89435298e+00, -3.59638964e+00, -3.53480956e+00, -3.57493493e+00, -2.98737924e+00, 0.00000000e+00, 2.0000000000, 10.0000000000, 0.0014368494
           5, 1.34335154e-01, 5.80767735e-02, 0.00000000e+00, 0.00000000e+00, 0.00000000e+00, 1.91700120e-02, 5.51324469e-02, 1.35570124e-01, 0.00000000e+00, 2.31306160e+00, -3.55082284e+00, -3.49272157e+00, -3.53588881e+00, -2.94386223e+00, 0.00000000e+00, 2.0000000000, 10.0000000000, 0.0017163992
           6, 1.41823062e-01, 5.25537828e-02, 0.00000000e+00, 0.00000000e+00, 0.00000000e+00, 1.82263442e-02, 4.94474226e-02, 1.42935766e-01, 0.00000000e+00, 2.69862709e+00, -3.51597340e+00, -3.46216689e+00, -3.52646762e+00, -2.91095793e+00, 0.00000000e+00, 2.0000000000, 10.0000000000, 0.0019831816
           7, 1.47590212e-01, 4.92790335e-02, 0.00000000e+00, 0.00000000e+00, 0.00000000e+00, 1.75556670e-02, 4.60476429e-02, 1.48630106e-01, 0.00000000e+00, 2.99498999e+00, -3.49458969e+00, -3.43127348e+00, -3.53629612e+00, -2.89019920e+00, 0.00000000e+00, 2.0000000000, 10.0000000000, 0.0022579153
           8, 1.54775975e-01, 4.48340547e-02, 0.00000000e+00, 0.00000000e+00, 0.00000000e+00, 1.91297022e-02, 4.14469653e-02, 1.55717193e-01, 0.00000000e+00, 3.45219669e+00, -3.50469078e+00, -3.42584353e+00, -3.57588363e+00, -2.90246329e+00, 0.00000000e+00, 2.0000000000, 10.0000000000, 0.0025268515
           9, 1.65783666e-01, 3.99686808e-02, 0.00000000e+00, 0.00000000e+00, 0.00000000e+00, 2.23186570e-02, 3.63426177e-02, 1.66616126e-01, 0.00000000e+00, 4.14783933e+00, -3.52023046e+00, -3.42215666e+00, -3.60551370e+00, -2.91886451e+00, 0.00000000e+00, 2.0000000000, 10.0000000000, 0.0027978659
          10, 1.77996086e-01, 3.60847734e-02, 0.00000000e+00, 0.00000000e+00, 0.00000000e+00, 2.50315269e-02, 3.21932220e-02, 1.78740913e-01, 0.00000000e+00, 4.93272008e+00, -3.53342640e+00, -3.41689227e+00, -3.62198310e+00, -2.93102197e+00, 0.00000000e+00, 2.0000000000, 10.0000000000, 0.0031300823
          11, 1.89629481e-01, 3.35263858e-02, 0.00000000e+00, 0.00000000e+00, 0.00000000e+00, 2.68732523e-02, 2.93816621e-02, 1.90315729e-01, 0.00000000e+00, 5.65612656e+00, -3.54225825e+00, -3.40910941e+00, -3.63024852e+00, -2.93665419e+00, 0.00000000e+00, 2.0000000000, 10.0000000000, 0.0034559488
          12, 1.99230843e-01, 3.18836578e-02, 0.00000000e+00, 0.00000000e+00, 0.00000000e+00, 2.76003572e-02, 2.75298724e-02, 1.99878970e-01, 0.00000000e+00, 6.24868214e+00, -3.54663653e+00, -3.40000742e+00, -3.63296208e+00, -2.93656769e+00, 0.00000000e+00, 2.0000000000, 10.0000000000, 0.0037496010
          13, 2.07465514e-01, 3.05211359e-02, 0.00000000e+00, 0.00000000e+00, 0.00000000e+00, 2.78556667e-02, 2.59880363e-02, 2.08081958e-01, 0.00000000e+00, 6.79743751e+00, -3.55313524e+00, -3.39981595e+00, -3.64040759e+00, -2.93929172e+00, 0.00000000e+00, 2.0000000000, 10.0000000000, 0.0040198485
          14, 2.14742223e-01, 2.93747700e-02, 0.00000000e+00, 0.00000000e+00, 0.00000000e+00, 2.76254764e-02, 2.46832027e-02, 2.15331927e-01, 0.00000000e+00, 7.31043077e+00, -3.56312176e+00, -3.40661524e+00, -3.65345189e+00, -2.94662015e+00, 0.00000000e+00, 2.0000000000, 10.0000000000, 0.0042993665
          15, 2.21227609e-01, 2.85129958e-02, 0.00000000e+00, 0.00000000e+00, 0.00000000e+00, 2.70134302e-02, 2.36801556e-02, 2.21796970e-01, 0.00000000e+00, 7.75883428e+00, -3.57739882e+00, -3.41740120e+00, -3.67199890e+00, -2.95916825e+00, 0.00000000e+00, 2.0000000000, 10.0000000000, 0.0045722842
          16, 2.26747658e-01, 2.78743956e-02, 0.00000000e+00, 0.00000000e+00, 0.00000000e+00, 2.61822581e-02, 2.29212881e-02, 2.27301775e-01, 0.00000000e+00, 8.13462152e+00, -3.59481527e+00, -3.42811175e+00, -3.69476110e+00, -2.97528341e+00, 0.00000000e+00, 2.0000000000, 10.0000000000, 0.0048463504
          17, 2.31156989e-01, 2.73897847e-02, 0.00000000e+00, 0.00000000e+00, 0.00000000e+00, 2.52209066e-02, 2.23406035e-02, 2.31699485e-01, 0.00000000e+00, 8.43953289e+00, -3.61262503e+00, -3.43466190e+00, -3.71934702e+00, -2.99160410e+00, 0.00000000e+00, 2.0000000000, 10.0000000000, 0.0051523646
          18, 2.34654463e-01, 2.70824560e-02, 0.00000000e+00, 0.00000000e+00, 0.00000000e+00, 2.42452984e-02, 2.19570510e-02, 2.35189423e-01, 0.00000000e+00, 8.66444547e+00, -3.62853965e+00, -3.43566795e+00, -3.74385114e+00, -3.00542348e+00, 0.00000000e+00, 2.0000000000, 10.0000000000, 0.0054357489
          19, 2.37564127e-01, 2.69507556e-02, 0.00000000e+00, 0.00000000e+00, 0.00000000e+00, 2.33919556e-02, 2.17619079e-02, 2.38095521e-01, 0.00000000e+00, 8.81474832e+00, -3.64102163e+00, -3.43207147e+00, -3.76667199e+00, -3.01517142e+00, 0.00000000e+00, 2.0000000000, 10.0000000000, 0.0057074149
          20, 2.40133683e-01, 2.69427821e-02, 0.00000000e+00, 0.00000000e+00, 0.00000000e+00, 2.27459787e-02, 2.16978818e-02, 2.40664291e-01, 0.00000000e+00, 8.91272779e+00, -3.64979372e+00, -3.42607792e+00, -3.78709888e+00, -3.02090106e+00, 0.00000000e+00, 2.0000000000, 10.0000000000, 0.0059805830
          21, 2.42552747e-01, 2.70078659e-02, 0.00000000e+00, 0.00000000e+00, 0.00000000e+00, 2.23441914e-02, 2.17101784e-02, 2.43084200e-01, 0.00000000e+00, 8.98081872e+00, -3.65563995e+00, -3.41985997e+00, -3.80512816e+00, -3.02384878e+00, 0.00000000e+00, 2.0000000000, 10.0000000000, 0.0062707345
          22, 2.45023411e-01, 2.71141411e-02, 0.00000000e+00, 0.00000000e+00, 0.00000000e+00, 2.22120947e-02, 2.17625311e-02, 2.45556594e-01, 0.00000000e+00, 9.03673881e+00, -3.66011569e+00, -3.41525070e+00, -3.82104337e+00, -3.02592118e+00, 0.00000000e+00, 2.0000000000, 10.0000000000, 0.0065525850
          23, 2.47740138e-01, 2.72306650e-02, 0.00000000e+00, 0.00000000e+00, 0.00000000e+00, 2.23665416e-02, 2.18197622e-02, 2.48275217e-01, 0.00000000e+00, 9.09783652e+00, -3.66481332e+00, -3.41359985e+00, -3.83492856e+00, -3.02887078e+00, 0.00000000e+00, 2.0000000000, 10.0000000000, 0.0068512678
          24, 2.50835423e-01, 2.73179432e-02, 0.00000000e+00, 0.00000000e+00, 0.00000000e+00, 2.27949342e-02, 2.18394964e-02, 2.51371669e-01, 0.00000000e+00, 9.18207572e+00, -3.67105293e+00, -3.41596829e+00, -3.84687153e+00, -3.03401240e+00, 0.00000000e+00, 2.0000000000, 10.0000000000, 0.0071256995
          25, 2.54362514e-01, 2.73248056e-02, 0.00000000e+00, 0.00000000e+00, 0.00000000e+00, 2.34516822e-02, 2.17694141e-02, 2.54898070e-01, 0.00000000e+00, 9.30884990e+00, -3.68017375e+00, -3.42366777e+00, -3.85753241e+00, -3.04262087e+00, 0.00000000e+00, 2.0000000000, 10.0000000000, 0.0073936820
          26, 2.58323056e-01, 2.71923638e-02, 0.00000000e+00, 0.00000000e+00, 0.00000000e+00, 2.42801631e-02, 2.15506049e-02, 2.58854780e-01, 0.00000000e+00, 9.49983820e+00, -3.69388117e+00, -3.43862387e+00, -3.86850798e+00, -3.05637009e+00, 0.00000000e+00, 2.0000000000, 10.0000000000, 0.0076751510
          27, 2.62735817e-01, 2.68598607e-02, 0.00000000e+00, 0.00000000e+00, 0.00000000e+00, 2.52437774e-02, 2.11219172e-02, 2.63259238e-01, 0.00000000e+00, 9.78172670e+00, -3.71541974e+00, -3.46463284e+00, -3.88329737e+00, -3.07862842e+00, 0.00000000e+00, 2.0000000000, 10.0000000000, 0.0079459349
          28, 2.67704512e-01, 2.62468802e-02, 0.00000000e+00, 0.00000000e+00, 0.00000000e+00, 2.63192005e-02, 2.04006910e-02, 2.68213378e-01, 0.00000000e+00, 1.01994793e+01, -3.75249287e+00, -3.51091900e+00, -3.90980234e+00, -3.11766598e+00, 0.00000000e+00, 2.0000000000, 10.0000000000, 0.0082225005
          29, 2.73912505e-01, 2.49111165e-02, 0.00000000e+00, 0.00000000e+00, 0.00000000e+00, 2.78095334e-02, 1.89298185e-02, 2.74390754e-01, 0.00000000e+00, 1.09955933e+01, -3.82628732e+00, -3.60339924e+00, -3.96990718e+00, -3.19680939e+00, 0.00000000e+00, 2.0000000000, 10.0000000000, 0.0085014145
          30, 2.79510539e-01, 2.28949922e-02, 0.00000000e+00, 0.00000000e+00, 0.00000000e+00, 2.90137813e-02, 1.67920535e-02, 2.79943475e-01, 0.00000000e+00, 1.22083702e+01, -3.99964699e+00, -3.81923578e+00, -4.13718067e+00, -3.39039810e+00, 0.00000000e+00, 2.0000000000, 10.0000000000, 0.0087895830
          31, 2.84981082e-01, 2.27157497e-02, 0.00000000e+00, 0.00000000e+00, 0.00000000e+00, 3.00294492e-02, 1.64935144e-02, 2.85408806e-01, 0.00000000e+00, 1.25455284e+01, -4.17515101e+00, -4.04881972e+00, -4.33825360e+00, -3.60426630e+00, 0.00000000e+00, 2.0000000000, 10.0000000000, 0.0090625167
          32, 2.89419368e-01, 2.30436271e-02, 0.00000000e+00, 0.00000000e+00, 0.00000000e+00, 3.08829645e-02, 1.67244931e-02, 2.89853188e-01, 0.00000000e+00, 1.25596273e+01, -4.15218395e+00, -4.01537612e+00, -4.33495437e+00, -3.57266968e+00, 0.00000000e+00, 2.0000000000, 10.0000000000, 0.0093382676
          33, 2.92464245e-01, 2.25857313e-02, 0.00000000e+00, 0.00000000e+00, 0.00000000e+00, 3.13366928e-02, 1.62002826e-02, 2.92887352e-01, 0.00000000e+00, 1.29490713e+01, -4.12853741e+00, -3.97906297e+00, -4.30638927e+00, -3.53968142e+00, 0.00000000e+00, 2.0000000000, 10.0000000000, 0.0097346346
          34, 2.95424295e-01, 2.22814091e-02, 0.00000000e+00, 0.00000000e+00, 0.00000000e+00, 3.16418542e-02, 1.58314597e-02, 2.95840058e-01, 0.00000000e+00, 1.32587797e+01, -4.13588938e+00, -3.99138725e+00, -4.31714654e+00, -3.54773583e+00, 0.00000000e+00, 2.0000000000, 10.0000000000, 0.0100048502
          35, 2.98525218e-01, 2.21848602e-02, 0.00000000e+00, 0.00000000e+00, 0.00000000e+00, 3.21075339e-02, 1.56672875e-02, 2.98938137e-01, 0.00000000e+00, 1.34562587e+01, -4.13322511e+00, -3.99519051e+00, -4.31962634e+00, -3.54478659e+00, 0.00000000e+00, 2.0000000000, 10.0000000000, 0.0102793177
          36, 3.01343434e-01, 2.20046632e-02, 0.00000000e+00, 0.00000000e+00, 0.00000000e+00, 3.25423066e-02, 1.54256543e-02, 3.01751751e-01, 0.00000000e+00, 1.36945261e+01, -4.12850370e+00, -3.99735191e+00, -4.32075356e+00, -3.53950099e+00, 0.00000000e+00, 2.0000000000, 10.0000000000, 0.0105514487
          37, 3.03792172e-01, 2.17678906e-02, 0.00000000e+00, 0.00000000e+00, 0.00000000e+00, 3.28353409e-02, 1.51355191e-02, 3.04194742e-01, 0.00000000e+00, 1.39559766e+01, -4.13092800e+00, -4.00961200e+00, -4.33005339e+00, -3.54341916e+00, 0.00000000e+00, 2.0000000000, 10.0000000000, 0.0108328342
          38, 3.05929785e-01, 2.15679572e-02, 0.00000000e+00, 0.00000000e+00, 0.00000000e+00, 3.30160485e-02, 1.48890015e-02, 3.06327485e-01, 0.00000000e+00, 1.41844581e+01, -4.13820449e+00, -4.02600508e+00, -4.34286091e+00, -3.55225186e+00, 0.00000000e+00, 2.0000000000, 10.0000000000, 0.0111209989
          39, 3.07801284e-01, 2.14050472e-02, 0.00000000e+00, 0.00000000e+00, 0.00000000e+00, 3.31328010e-02, 1.46853038e-02, 3.08194984e-01, 0.00000000e+00, 1.43798460e+01, -4.14672220e+00, -4.03951568e+00, -4.35253351e+00, -3.56089721e+00, 0.00000000e+00, 2.0000000000, 10.0000000000, 0.0113963842
          40, 3.09414184e-01, 2.12693659e-02, 0.00000000e+00, 0.00000000e+00, 0.00000000e+00, 3.31853204e-02, 1.45144695e-02, 3.09804540e-01, 0.00000000e+00, 1.45474099e+01, -4.15587688e+00, -4.05065531e+00, -4.35896496e+00, -3.56948822e+00, 0.00000000e+00, 2.0000000000, 10.0000000000, 0.0116612156
          41, 3.10809270e-01, 2.11725068e-02, 0.00000000e+00, 0.00000000e+00, 0.00000000e+00, 3.31868982e-02, 1.43871998e-02, 3.11197182e-01, 0.00000000e+00, 1.46798522e+01, -4.16546812e+00, -4.06067119e+00, -4.36315027e+00, -3.57838267e+00, 0.00000000e+00, 2.0000000000, 10.0000000000, 0.0119427482
          42, 3.12049480e-01, 2.11136725e-02, 0.00000000e+00, 0.00000000e+00, 0.00000000e+00, 3.31700470e-02, 1.43013245e-02, 3.12435813e-01, 0.00000000e+00, 1.47794979e+01, -4.17497419e+00, -4.06861529e+00, -4.36477020e+00, -3.58681178e+00, 0.00000000e+00, 2.0000000000, 10.0000000000, 0.0122269829
          43, 3.13177060e-01, 2.10817459e-02, 0.00000000e+00, 0.00000000e+00, 0.00000000e+00, 3.31584897e-02, 1.42448075e-02, 3.13562428e-01, 0.00000000e+00, 1.48553664e+01, -4.18501458e+00, -4.07529494e+00, -4.36542090e+00, -3.59543651e+00, 0.00000000e+00, 2.0000000000, 10.0000000000, 0.0125438492
          44, 3.14220408e-01, 2.10732846e-02, 0.00000000e+00, 0.00000000e+00, 0.00000000e+00, 3.31572758e-02, 1.42135877e-02, 3.14605343e-01, 0.00000000e+00, 1.49108416e+01, -4.19637349e+00, -4.08224695e+00, -4.36677129e+00, -3.60530755e+00, 0.00000000e+00, 2.0000000000, 10.0000000000, 0.0129672011
          45, 3.15198721e-01, 2.10845815e-02, 0.00000000e+00, 0.00000000e+00, 0.00000000e+00, 3.31683399e-02, 1.42035401e-02, 3.15583670e-01, 0.00000000e+00, 1.49492519e+01, -4.20854733e+00, -4.09007116e+00, -4.36997384e+00, -3.61610594e+00, 0.00000000e+00, 2.0000000000, 10.0000000000, 0.0133109172
          46, 3.16137554e-01, 2.11110956e-02, 0.00000000e+00, 0.00000000e+00, 0.00000000e+00, 3.32022167e-02, 1.42095673e-02, 3.16522858e-01, 0.00000000e+00, 1.49749478e+01, -4.22224135e+00, -4.09975230e+00, -4.37654534e+00, -3.62870662e+00, 0.00000000e+00, 2.0000000000, 10.0000000000, 0.0135798176
          47, 3.17067120e-01, 2.11490766e-02, 0.00000000e+00, 0.00000000e+00, 0.00000000e+00, 3.32676323e-02, 1.42272609e-02, 3.17453031e-01, 0.00000000e+00, 1.49920077e+01, -4.23815196e+00, -4.11219383e+00, -4.38794309e+00, -3.64397631e+00, 0.00000000e+00, 2.0000000000, 10.0000000000, 0.0138693849
          48, 3.18010194e-01, 2.11943241e-02, 0.00000000e+00, 0.00000000e+00, 0.00000000e+00, 3.33656577e-02, 1.42519246e-02, 3.18396868e-01, 0.00000000e+00, 1.50044980e+01, -4.25608347e+00, -4.12746217e+00, -4.40418000e+00, -3.66181971e+00, 0.00000000e+00, 2.0000000000, 10.0000000000, 0.0141834497
          49, 3.18972587e-01, 2.12413676e-02, 0.00000000e+00, 0.00000000e+00, 0.00000000e+00, 3.34901239e-02, 1.42779624e-02, 3.19360059e-01, 0.00000000e+00, 1.50165749e+01, -4.27603241e+00, -4.14570185e+00, -4.42529588e+00, -3.68225640e+00, 0.00000000e+00, 2.0000000000, 10.0000000000, 0.0144728343
          50, 3.19942979e-01, 2.12841702e-02, 0.00000000e+00, 0.00000000e+00, 0.00000000e+00, 3.36281232e-02, 1.42995858e-02, 3.20331153e-01, 0.00000000e+00, 1.50319687e+01, -4.29849243e+00, -4.16742582e+00, -4.45133587e+00, -3.70584544e+00, 0.00000000e+00, 2.0000000000, 10.0000000000, 0.0147445321
          51, 3.20908475e-01, 2.13185329e-02, 0.00000000e+00, 0.00000000e+00, 0.00000000e+00, 3.37709017e-02, 1.43128782e-02, 3.21297169e-01, 0.00000000e+00, 1.50530281e+01, -4.32438610e+00, -4.19323965e+00, -4.48267145e+00, -3.73345808e+00, 0.00000000e+00, 2.0000000000, 10.0000000000, 0.0150220156
          52, 3.21856380e-01, 2.13421447e-02, 0.00000000e+00, 0.00000000e+00, 0.00000000e+00, 3.39116080e-02, 1.43158060e-02, 3.22245363e-01, 0.00000000e+00, 1.50807889e+01, -4.35446856e+00, -4.22364386e+00, -4.51949001e+00, -3.76586333e+00, 0.00000000e+00, 2.0000000000, 10.0000000000, 0.0152964830
          53, 3.22766475e-01, 2.13543172e-02, 0.00000000e+00, 0.00000000e+00, 0.00000000e+00, 3.40387287e-02, 1.43081219e-02, 3.23155507e-01, 0.00000000e+00, 1.51148113e+01, -4.38874327e+00, -4.25814632e+00, -4.56070740e+00, -3.80288335e+00, 0.00000000e+00, 2.0000000000, 10.0000000000, 0.0155741016
          54, 3.23614802e-01, 2.13557776e-02, 0.00000000e+00, 0.00000000e+00, 0.00000000e+00, 3.41420128e-02, 1.42910758e-02, 3.24003664e-01, 0.00000000e+00, 1.51535012e+01, -4.42596557e+00, -4.29505463e+00, -4.60439190e+00, -3.84284505e+00, 0.00000000e+00, 2.0000000000, 10.0000000000, 0.0158495148
          55, 3.24392756e-01, 2.13501811e-02, 0.00000000e+00, 0.00000000e+00, 0.00000000e+00, 3.42212786e-02, 1.42685097e-02, 3.24781311e-01, 0.00000000e+00, 1.51939112e+01, -4.46364445e+00, -4.33184694e+00, -4.64859971e+00, -3.88274113e+00, 0.00000000e+00, 2.0000000000, 10.0000000000, 0.0161525488
          56, 3.25097656e-01, 2.13420053e-02, 0.00000000e+00, 0.00000000e+00, 0.00000000e+00, 3.42817416e-02, 1.42449585e-02, 3.25485865e-01, 0.00000000e+00, 1.52327605e+01, -4.50065431e+00, -4.36687904e+00, -4.69189993e+00, -3.92106341e+00, 0.00000000e+00, 2.0000000000, 10.0000000000, 0.0164444645
          57, 3.25736403e-01, 2.13355348e-02, 0.00000000e+00, 0.00000000e+00, 0.00000000e+00, 3.43335717e-02, 1.42245554e-02, 3.26124319e-01, 0.00000000e+00, 1.52673184e+01, -4.53700558e+00, -4.39963514e+00, -4.73374481e+00, -3.95770796e+00, 0.00000000e+00, 2.0000000000, 10.0000000000, 0.0167111516
          58, 3.26317866e-01, 2.13336918e-02, 0.00000000e+00, 0.00000000e+00, 0.00000000e+00, 3.43848985e-02, 1.42100282e-02, 3.26705604e-01, 0.00000000e+00, 1.52958929e+01, -4.57302833e+00, -4.43115771e+00, -4.77456597e+00, -3.99319312e+00, 0.00000000e+00, 2.0000000000, 10.0000000000, 0.0169935147
          59, 3.26851114e-01, 2.13379867e-02, 0.00000000e+00, 0.00000000e+00, 0.00000000e+00, 3.44389232e-02, 1.42026894e-02, 3.27238818e-01, 0.00000000e+00, 1.53178047e+01, -4.60760620e+00, -4.46093027e+00, -4.81352852e+00, -4.02664871e+00, 0.00000000e+00, 2.0000000000, 10.0000000000, 0.0172683835
          60, 3.27346749e-01, 2.13490755e-02, 0.00000000e+00, 0.00000000e+00, 0.00000000e+00, 3.44982990e-02, 1.42029633e-02, 3.27734577e-01, 0.00000000e+00, 1.53330644e+01, -4.64058157e+00, -4.48964364e+00, -4.85032851e+00, -4.05839569e+00, 0.00000000e+00, 2.0000000000, 10.0000000000, 0.0175414324
          61, 3.27811464e-01, 2.13659428e-02, 0.00000000e+00, 0.00000000e+00, 0.00000000e+00, 3.45631100e-02, 1.42096889e-02, 3.28199549e-01, 0.00000000e+00, 1.53427100e+01, -4.67264456e+00, -4.51829272e+00, -4.88516188e+00, -4.08946620e+00, 0.00000000e+00, 2.0000000000, 10.0000000000, 0.0178215981
          62, 3.28250403e-01, 2.13867766e-02, 0.00000000e+00, 0.00000000e+00, 0.00000000e+00, 3.46312669e-02, 1.42209423e-02, 3.28638839e-01, 0.00000000e+00, 1.53482878e+01, -4.70521124e+00, -4.54808152e+00, -4.91905970e+00, -4.12151494e+00, 0.00000000e+00, 2.0000000000, 10.0000000000, 0.0181000511
          63, 3.28663725e-01, 2.14094923e-02, 0.00000000e+00, 0.00000000e+00, 0.00000000e+00, 3.47001436e-02, 1.42346361e-02, 3.29052558e-01, 0.00000000e+00, 1.53513087e+01, -4.73900613e+00, -4.57984987e+00, -4.95311356e+00, -4.15540543e+00, 0.00000000e+00, 2.0000000000, 10.0000000000, 0.0183905005
          64, 3.29053401e-01, 2.14325918e-02, 0.00000000e+00, 0.00000000e+00, 0.00000000e+00, 3.47679794e-02, 1.42492294e-02, 3.29442645e-01, 0.00000000e+00, 1.53529449e+01, -4.77480714e+00, -4.61397516e+00, -4.98846800e+00, -4.19191587e+00, 0.00000000e+00, 2.0000000000, 10.0000000000, 0.0186650515
          65, 3.29421093e-01, 2.14549978e-02, 0.00000000e+00, 0.00000000e+00, 0.00000000e+00, 3.48339141e-02, 1.42636088e-02, 3.29810738e-01, 0.00000000e+00, 1.53540492e+01, -4.81279951e+00, -4.65058645e+00, -5.02614945e+00, -4.23118574e+00, 0.00000000e+00, 2.0000000000, 10.0000000000, 0.0189286311
          66, 3.29767534e-01, 2.14760788e-02, 0.00000000e+00, 0.00000000e+00, 0.00000000e+00, 3.48982452e-02, 1.42771272e-02, 3.30157557e-01, 0.00000000e+00, 1.53551092e+01, -4.85287902e+00, -4.68948952e+00, -5.06665178e+00, -4.27303559e+00, 0.00000000e+00, 2.0000000000, 10.0000000000, 0.0192129334
          67, 3.30091579e-01, 2.14951636e-02, 0.00000000e+00, 0.00000000e+00, 0.00000000e+00, 3.49592038e-02, 1.42891385e-02, 3.30481941e-01, 0.00000000e+00, 1.53565511e+01, -4.89524511e+00, -4.73049981e+00, -5.10995147e+00, -4.31755367e+00, 0.00000000e+00, 2.0000000000, 10.0000000000, 0.0194780827
          68, 3.30392588e-01, 2.15120320e-02, 0.00000000e+00, 0.00000000e+00, 0.00000000e+00, 3.50151722e-02, 1.42994364e-02, 3.30783246e-01, 0.00000000e+00, 1.53585020e+01, -4.93947949e+00, -4.77335873e+00, -5.15590073e+00, -4.36426827e+00, 0.00000000e+00, 2.0000000000, 10.0000000000, 0.0198138674
          69, 3.30671264e-01, 2.15269790e-02, 0.00000000e+00, 0.00000000e+00, 0.00000000e+00, 3.50663832e-02, 1.43083006e-02, 3.31062181e-01, 0.00000000e+00, 1.53607835e+01, -4.98503278e+00, -4.81735845e+00, -5.20365598e+00, -4.41234630e+00, 0.00000000e+00, 2.0000000000, 10.0000000000, 0.0201331655
          70, 3.30928251e-01, 2.15404706e-02, 0.00000000e+00, 0.00000000e+00, 0.00000000e+00, 3.51132231e-02, 1.43161827e-02, 3.31319402e-01, 0.00000000e+00, 1.53630930e+01, -5.03078163e+00, -4.86251056e+00, -5.25346761e+00, -4.46077646e+00, 0.00000000e+00, 2.0000000000, 10.0000000000, 0.0204274178
          71, 3.31164198e-01, 2.15529562e-02, 0.00000000e+00, 0.00000000e+00, 0.00000000e+00, 3.51561645e-02, 1.43235183e-02, 3.31555565e-01, 0.00000000e+00, 1.53651404e+01, -5.07596441e+00, -4.90835088e+00, -5.30454011e+00, -4.50881247e+00, 0.00000000e+00, 2.0000000000, 10.0000000000, 0.0207070986
          72, 3.31380359e-01, 2.15648709e-02, 0.00000000e+00, 0.00000000e+00, 0.00000000e+00, 3.51956540e-02, 1.43307146e-02, 3.31771935e-01, 0.00000000e+00, 1.53666749e+01, -5.12046083e+00, -4.95451399e+00, -5.35590117e+00, -4.55625807e+00, 0.00000000e+00, 2.0000000000, 10.0000000000, 0.0209768653
          73, 3.31576697e-01, 2.15763751e-02, 0.00000000e+00, 0.00000000e+00, 0.00000000e+00, 3.52312372e-02, 1.43379330e-02, 3.31968477e-01, 0.00000000e+00, 1.53675812e+01, -5.16454758e+00, -5.00133257e+00, -5.40749303e+00, -4.60340828e+00, 0.00000000e+00, 2.0000000000, 10.0000000000, 0.0212464333
          74, 3.31754645e-01, 2.15876993e-02, 0.00000000e+00, 0.00000000e+00, 0.00000000e+00, 3.52631935e-02, 1.43453725e-02, 3.32146630e-01, 0.00000000e+00, 1.53677630e+01, -5.20774063e+00, -5.04942947e+00, -5.45998001e+00, -4.64992643e+00, 0.00000000e+00, 2.0000000000, 10.0000000000, 0.0215233485
          75, 3.31915097e-01, 2.15987709e-02, 0.00000000e+00, 0.00000000e+00, 0.00000000e+00, 3.52913994e-02, 1.43529413e-02, 3.32307285e-01, 0.00000000e+00, 1.53673141e+01, -5.24902037e+00, -5.09754054e+00, -5.51163304e+00, -4.69443257e+00, 0.00000000e+00, 2.0000000000, 10.0000000000, 0.0217993339
          76, 3.32058799e-01, 2.16094888e-02, 0.00000000e+00, 0.00000000e+00, 0.00000000e+00, 3.53157755e-02, 1.43605218e-02, 3.32451187e-01, 0.00000000e+00, 1.53663422e+01, -5.28828963e+00, -5.14557098e+00, -5.56170543e+00, -4.73681493e+00, 0.00000000e+00, 2.0000000000, 10.0000000000, 0.0220703165
          77, 3.32186545e-01, 2.16196799e-02, 0.00000000e+00, 0.00000000e+00, 0.00000000e+00, 3.53363283e-02, 1.43679237e-02, 3.32579124e-01, 0.00000000e+00, 1.53650076e+01, -5.32584625e+00, -5.19396813e+00, -5.61021121e+00, -4.77750804e+00, 0.00000000e+00, 2.0000000000, 10.0000000000, 0.0223455151
          78, 3.32297885e-01, 2.16290351e-02, 0.00000000e+00, 0.00000000e+00, 0.00000000e+00, 3.53528413e-02, 1.43748479e-02, 3.32690642e-01, 0.00000000e+00, 1.53635094e+01, -5.36181547e+00, -5.24279820e+00, -5.65703988e+00, -4.81660502e+00, 0.00000000e+00, 2.0000000000, 10.0000000000, 0.0226178010
          79, 3.32394058e-01, 2.16374715e-02, 0.00000000e+00, 0.00000000e+00, 0.00000000e+00, 3.53657234e-02, 1.43811842e-02, 3.32786976e-01, 0.00000000e+00, 1.53619640e+01, -5.39610824e+00, -5.29144213e+00, -5.70141226e+00, -4.85376017e+00, 0.00000000e+00, 2.0000000000, 10.0000000000, 0.0228935679
          80, 3.32474948e-01, 2.16448612e-02, 0.00000000e+00, 0.00000000e+00, 0.00000000e+00, 3.53750190e-02, 1.43868075e-02, 3.32868009e-01, 0.00000000e+00, 1.53604565e+01, -5.42898283e+00, -5.33984633e+00, -5.74318997e+00, -4.88921446e+00, 0.00000000e+00, 2.0000000000, 10.0000000000, 0.0231776992
          81, 3.32540492e-01, 2.16510372e-02, 0.00000000e+00, 0.00000000e+00, 0.00000000e+00, 3.53803033e-02, 1.43915522e-02, 3.32933672e-01, 0.00000000e+00, 1.53591022e+01, -5.46028097e+00, -5.38728476e+00, -5.78043504e+00, -4.92259126e+00, 0.00000000e+00, 2.0000000000, 10.0000000000, 0.0234513680
          82, 3.32592108e-01, 2.16559896e-02, 0.00000000e+00, 0.00000000e+00, 0.00000000e+00, 3.53819388e-02, 1.43953775e-02, 3.32985383e-01, 0.00000000e+00, 1.53579732e+01, -5.48864646e+00, -5.43141629e+00, -5.81165201e+00, -4.95201410e+00, 0.00000000e+00, 2.0000000000, 10.0000000000, 0.0237268329
          83, 3.32629636e-01, 2.16596350e-02, 0.00000000e+00, 0.00000000e+00, 0.00000000e+00, 3.53796104e-02, 1.43982033e-02, 3.33022982e-01, 0.00000000e+00, 1.53571210e+01, -5.51469477e+00, -5.47256208e+00, -5.83841777e+00, -4.97850636e+00, 0.00000000e+00, 2.0000000000, 10.0000000000, 0.0240025679
          84, 3.32652784e-01, 2.16619800e-02, 0.00000000e+00, 0.00000000e+00, 0.00000000e+00, 3.53730994e-02, 1.44000428e-02, 3.33046175e-01, 0.00000000e+00, 1.53565271e+01, -5.53914927e+00, -5.51163527e+00, -5.86255835e+00, -5.00322785e+00, 0.00000000e+00, 2.0000000000, 10.0000000000, 0.0242731333
          85, 3.32661668e-01, 2.16631356e-02, 0.00000000e+00, 0.00000000e+00, 0.00000000e+00, 3.53624224e-02, 1.44010043e-02, 3.33055083e-01, 0.00000000e+00, 1.53561181e+01, -5.56210057e+00, -5.54854131e+00, -5.88441932e+00, -5.02628994e+00, 0.00000000e+00, 2.0000000000, 10.0000000000, 0.0245483001
          86, 3.32656725e-01, 2.16632299e-02, 0.00000000e+00, 0.00000000e+00, 0.00000000e+00, 3.53477755e-02, 1.44012065e-02, 3.33050142e-01, 0.00000000e+00, 1.53558230e+01, -5.58377422e+00, -5.58338576e+00, -5.90439323e+00, -5.04796209e+00, 0.00000000e+00, 2.0000000000, 10.0000000000, 0.0248133659
          87, 3.32638123e-01, 2.16623078e-02, 0.00000000e+00, 0.00000000e+00, 0.00000000e+00, 3.53291901e-02, 1.44006903e-02, 3.33031525e-01, 0.00000000e+00, 1.53556180e+01, -5.60498443e+00, -5.61713240e+00, -5.92378869e+00, -5.06929513e+00, 0.00000000e+00, 2.0000000000, 10.0000000000, 0.0250842333
          88, 3.32606274e-01, 2.16604623e-02, 0.00000000e+00, 0.00000000e+00, 0.00000000e+00, 3.53068225e-02, 1.43995400e-02, 3.32999644e-01, 0.00000000e+00, 1.53554559e+01, -5.62674463e+00, -5.65127512e+00, -5.94437049e+00, -5.09155792e+00, 0.00000000e+00, 2.0000000000, 10.0000000000, 0.0253740668
          89, 3.32561623e-01, 2.16578079e-02, 0.00000000e+00, 0.00000000e+00, 0.00000000e+00, 3.52809408e-02, 1.43978604e-02, 3.32954945e-01, 0.00000000e+00, 1.53552762e+01, -5.65031913e+00, -5.68795445e+00, -5.96844592e+00, -5.11632295e+00, 0.00000000e+00, 2.0000000000, 10.0000000000, 0.0256483674
          90, 3.32505160e-01, 2.16545022e-02, 0.00000000e+00, 0.00000000e+00, 0.00000000e+00, 3.52521249e-02, 1.43957871e-02, 3.32898423e-01, 0.00000000e+00, 1.53550129e+01, -5.67615815e+00, -5.72805130e+00, -5.99694893e+00, -5.14397645e+00, 0.00000000e+00, 2.0000000000, 10.0000000000, 0.0259399335
          91, 3.32437998e-01, 2.16506785e-02, 0.00000000e+00, 0.00000000e+00, 0.00000000e+00, 3.52209335e-02, 1.43934295e-02, 3.32831194e-01, 0.00000000e+00, 1.53546226e+01, -5.70423903e+00, -5.77182268e+00, -6.03002398e+00, -5.17433405e+00, 0.00000000e+00, 2.0000000000, 10.0000000000, 0.0262206674
          92, 3.32361440e-01, 2.16464775e-02, 0.00000000e+00, 0.00000000e+00, 0.00000000e+00, 3.51880929e-02, 1.43908996e-02, 3.32754562e-01, 0.00000000e+00, 1.53540658e+01, -5.73390219e+00, -5.81853607e+00, -6.06667658e+00, -5.20642665e+00, 0.00000000e+00, 2.0000000000, 10.0000000000, 0.0265004675
          93, 3.32277022e-01, 2.16419450e-02, 0.00000000e+00, 0.00000000e+00, 0.00000000e+00, 3.51540599e-02, 1.43882097e-02, 3.32670066e-01, 0.00000000e+00, 1.53533808e+01, -5.76385711e+00, -5.86597505e+00, -6.10414221e+00, -5.23846618e+00, 0.00000000e+00, 2.0000000000, 10.0000000000, 0.0267894348
          94, 3.32185922e-01, 2.16370319e-02, 0.00000000e+00, 0.00000000e+00, 0.00000000e+00, 3.51191572e-02, 1.43852852e-02, 3.32578881e-01, 0.00000000e+00, 1.53526567e+01, -5.79135552e+00, -5.91037273e+00, -6.13789980e+00, -5.26709598e+00, 0.00000000e+00, 2.0000000000, 10.0000000000, 0.0270551006
          95, 3.32086491e-01, 2.16314947e-02, 0.00000000e+00, 0.00000000e+00, 0.00000000e+00, 3.50823458e-02, 1.43819184e-02, 3.32479352e-01, 0.00000000e+00, 1.53519900e+01, -5.81652770e+00, -5.95164936e+00, -6.16758927e+00, -5.29296716e+00, 0.00000000e+00, 2.0000000000, 10.0000000000, 0.0273291349
          96, 3.31978406e-01, 2.16257328e-02, 0.00000000e+00, 0.00000000e+00, 0.00000000e+00, 3.50428608e-02, 1.43785157e-02, 3.32371167e-01, 0.00000000e+00, 1.53510824e+01, -5.84405153e+00, -5.99541050e+00, -6.20588377e+00, -5.32216323e+00, 0.00000000e+00, 2.0000000000, 10.0000000000, 0.0276027481
          97, 3.31869430e-01, 2.16200271e-02, 0.00000000e+00, 0.00000000e+00, 0.00000000e+00, 3.50047897e-02, 1.43751887e-02, 3.32262092e-01, 0.00000000e+00, 1.53500931e+01, -5.86637295e+00, -6.03078515e+00, -6.23607644e+00, -5.34492201e+00, 0.00000000e+00, 2.0000000000, 10.0000000000, 0.0279125015
          98, 3.31755583e-01, 2.16134239e-02, 0.00000000e+00, 0.00000000e+00, 0.00000000e+00, 3.49664015e-02, 1.43710705e-02, 3.32148128e-01, 0.00000000e+00, 1.53495154e+01, -5.87196576e+00, -6.03509261e+00, -6.23000266e+00, -5.34578907e+00, 0.00000000e+00, 2.0000000000, 10.0000000000, 0.0283189495