# vtk DataFile Version 3.0
vtk output
ASCII
DATASET UNSTRUCTURED_GRID
POINTS 5233 float
9.997500e-01	-3.633650e-05	0.0	9.990000e-01	-1.457287e-04	0.0	9.977600e-01	-3.303104e-04	0.0	9.960200e-01	-6.049839e-04	0.0	9.937800e-01	-1.001065e-03	0.0	9.910500e-01	-1.569525e-03	0.0	9.878400e-01	-2.375117e-03	0.0	9.841300e-01	-3.485161e-03	0.0	9.799500e-01	-4.916644e-03	0.0	9.752800e-01	-6.637404e-03	0.0	9.701500e-01	-8.524346e-03	0.0	9.645400e-01	-1.042084e-02	0.0	9.584700e-01	-1.215204e-02	0.0	9.519400e-01	-1.360063e-02	0.0	9.449600e-01	-1.473324e-02	0.0	9.375400e-01	-1.560648e-02	0.0	9.296900e-01	-1.633786e-02	0.0	9.214000e-01	-1.706359e-02	0.0	9.127000e-01	-1.789381e-02	0.0	9.035800e-01	-1.889618e-02	0.0	8.940600e-01	-2.008403e-02	0.0	8.841500e-01	-2.142895e-02	0.0	8.738500e-01	-2.287728e-02	0.0	8.631800e-01	-2.436202e-02	0.0	8.521600e-01	-2.581899e-02	0.0	8.407700e-01	-2.720029e-02	0.0	8.290500e-01	-2.846565e-02	0.0	8.170100e-01	-2.959488e-02	0.0	8.046400e-01	-3.058339e-02	0.0	7.919700e-01	-3.143434e-02	0.0	7.790100e-01	-3.216051e-02	0.0	7.657800e-01	-3.277855e-02	0.0	7.522800e-01	-3.330745e-02	0.0	7.385200e-01	-3.376479e-02	0.0	7.245300e-01	-3.416540e-02	0.0	7.103200e-01	-3.452185e-02	0.0	6.958900e-01	-3.484376e-02	0.0	6.812700e-01	-3.513733e-02	0.0	6.664700e-01	-3.540710e-02	0.0	6.515000e-01	-3.565627e-02	0.0	6.363800e-01	-3.588727e-02	0.0	6.211300e-01	-3.610266e-02	0.0	6.057600e-01	-3.630568e-02	0.0	5.902800e-01	-3.650034e-02	0.0	5.747100e-01	-3.669142e-02	0.0	5.590600e-01	-3.688453e-02	0.0	5.433600e-01	-3.708545e-02	0.0	5.276100e-01	-3.730043e-02	0.0	5.118400e-01	-3.753493e-02	0.0	4.960500e-01	-3.779405e-02	0.0	4.802700e-01	-3.808130e-02	0.0	4.645100e-01	-3.839902e-02	0.0	4.487800e-01	-3.874793e-02	0.0	4.331100e-01	-3.912653e-02	0.0	4.175000e-01	-3.953226e-02	0.0	4.019700e-01	-3.996038e-02	0.0	3.865400e-01	-4.040461e-02	0.0	3.712300e-01	-4.085730e-02	0.0	3.560400e-01	-4.131039e-02	0.0	3.409900e-01	-4.175442e-02	0.0	3.261100e-01	-4.217914e-02	0.0	3.114000e-01	-4.257495e-02	0.0	2.968700e-01	-4.293194e-02	0.0	2.825500e-01	-4.323994e-02	0.0	2.684500e-01	-4.348975e-02	0.0	2.545700e-01	-4.367277e-02	0.0	2.409400e-01	-4.378060e-02	0.0	2.275700e-01	-4.380595e-02	0.0	2.144700e-01	-4.374222e-02	0.0	2.016600e-01	-4.358371e-02	0.0	1.891400e-01	-4.332525e-02	0.0	1.769300e-01	-4.296279e-02	0.0	1.650400e-01	-4.249288e-02	0.0	1.534900e-01	-4.191342e-02	0.0	1.422900e-01	-4.122283e-02	0.0	1.314400e-01	-4.041955e-02	0.0	1.209500e-01	-3.950325e-02	0.0	1.108500e-01	-3.847664e-02	0.0	1.011300e-01	-3.733954e-02	0.0	9.181000e-02	-3.609579e-02	0.0	8.290000e-02	-3.474934e-02	0.0	7.440000e-02	-3.330349e-02	0.0	6.633000e-02	-3.176595e-02	0.0	5.869000e-02	-3.014206e-02	0.0	5.149000e-02	-2.843998e-02	0.0	4.474000e-02	-2.666920e-02	0.0	3.844000e-02	-2.483741e-02	0.0	3.260000e-02	-2.295573e-02	0.0	2.723000e-02	-2.103638e-02	0.0	2.232000e-02	-1.908431e-02	0.0	1.790000e-02	-1.712037e-02	0.0	1.395000e-02	-1.514386e-02	0.0	1.049000e-02	-1.317093e-02	0.0	7.520000e-03	-1.120665e-02	0.0	5.040000e-03	-9.251660e-03	0.0	3.050000e-03	-7.299161e-03	0.0	1.560000e-03	-5.343803e-03	0.0	5.600000e-04	-3.333343e-03	0.0	6.000000e-05	-1.182547e-03	0.0	0.000000e+00	0.000000e+00	0.0	6.000000e-05	1.143813e-03	0.0	5.600000e-04	3.137709e-03	0.0	1.560000e-03	4.924243e-03	0.0	3.050000e-03	6.604230e-03	0.0	5.040000e-03	8.237673e-03	0.0	7.520000e-03	9.840581e-03	0.0	1.049000e-02	1.142852e-02	0.0	1.395000e-02	1.300974e-02	0.0	1.790000e-02	1.458810e-02	0.0	2.232000e-02	1.615795e-02	0.0	2.723000e-02	1.772651e-02	0.0	3.260000e-02	1.928309e-02	0.0	3.844000e-02	2.082919e-02	0.0	4.474000e-02	2.235975e-02	0.0	5.149000e-02	2.386995e-02	0.0	5.869000e-02	2.535712e-02	0.0	6.633000e-02	2.681644e-02	0.0	7.440000e-02	2.824340e-02	0.0	8.290000e-02	2.963545e-02	0.0	9.181000e-02	3.098698e-02	0.0	1.011300e-01	3.229593e-02	0.0	1.108500e-01	3.355895e-02	0.0	1.209500e-01	3.477193e-02	0.0	1.314400e-01	3.593470e-02	0.0	1.422900e-01	3.704282e-02	0.0	1.534900e-01	3.809473e-02	0.0	1.650400e-01	3.908997e-02	0.0	1.769300e-01	4.002736e-02	0.0	1.891400e-01	4.090535e-02	0.0	2.016600e-01	4.172353e-02	0.0	2.144700e-01	4.248114e-02	0.0	2.275700e-01	4.317881e-02	0.0	2.409400e-01	4.381617e-02	0.0	2.545700e-01	4.439353e-02	0.0	2.684500e-01	4.491118e-02	0.0	2.825500e-01	4.536874e-02	0.0	2.968700e-01	4.576687e-02	0.0	3.114000e-01	4.610565e-02	0.0	3.261100e-01	4.638460e-02	0.0	3.409900e-01	4.660360e-02	0.0	3.560400e-01	4.676232e-02	0.0	3.712300e-01	4.685987e-02	0.0	3.865400e-01	4.689540e-02	0.0	4.019700e-01	4.686786e-02	0.0	4.175000e-01	4.677596e-02	0.0	4.331100e-01	4.661831e-02	0.0	4.487800e-01	4.639349e-02	0.0	4.645100e-01	4.609961e-02	0.0	4.802700e-01	4.573515e-02	0.0	4.960500e-01	4.529816e-02	0.0	5.118400e-01	4.478650e-02	0.0	5.276100e-01	4.419861e-02	0.0	5.433600e-01	4.353184e-02	0.0	5.590600e-01	4.278478e-02	0.0	5.747100e-01	4.195480e-02	0.0	5.902800e-01	4.104119e-02	0.0	6.057600e-01	4.004280e-02	0.0	6.211300e-01	3.896011e-02	0.0	6.363800e-01	3.779424e-02	0.0	6.515000e-01	3.654793e-02	0.0	6.664700e-01	3.522675e-02	0.0	6.812700e-01	3.383865e-02	0.0	6.958900e-01	3.239294e-02	0.0	7.103200e-01	3.090085e-02	0.0	7.245300e-01	2.937720e-02	0.0	7.385200e-01	2.783430e-02	0.0	7.522800e-01	2.628506e-02	0.0	7.657800e-01	2.474313e-02	0.0	7.790100e-01	2.321734e-02	0.0	7.919700e-01	2.171194e-02	0.0	8.046400e-01	2.022980e-02	0.0	8.170100e-01	1.876900e-02	0.0	8.290500e-01	1.732706e-02	0.0	8.407700e-01	1.589468e-02	0.0	8.521600e-01	1.446362e-02	0.0	8.631800e-01	1.302908e-02	0.0	8.738500e-01	1.157873e-02	0.0	8.841500e-01	1.010642e-02	0.0	8.940600e-01	8.609584e-03	0.0	9.035800e-01	7.090401e-03	0.0	9.127000e-01	5.566798e-03	0.0	9.214000e-01	4.080185e-03	0.0	9.296900e-01	2.692876e-03	0.0	9.375400e-01	1.495699e-03	0.0	9.449600e-01	5.786308e-04	0.0	9.519400e-01	1.362684e-05	0.0	9.584700e-01	-1.789011e-04	0.0	9.645400e-01	-4.856036e-05	0.0	9.701500e-01	2.914896e-04	0.0	9.752800e-01	6.941634e-04	0.0	9.799500e-01	1.026684e-03	0.0	9.841300e-01	1.201504e-03	0.0	9.878400e-01	1.197585e-03	0.0	9.910500e-01	1.047349e-03	0.0	9.937800e-01	8.110642e-04	0.0	9.960200e-01	5.521946e-04	0.0	9.977600e-01	3.205093e-04	0.0	9.990000e-01	1.448337e-04	0.0	9.997500e-01	3.632231e-05	0.0	1.000000e+00	0.000000e+00	0.0	1.984229e+01	2.506660e+00	0.0	1.937166e+01	4.973800e+00	0.0	1.859553e+01	7.362490e+00	0.0	1.752613e+01	9.635070e+00	0.0	1.618034e+01	1.175571e+01	0.0	1.457937e+01	1.369094e+01	0.0	1.274848e+01	1.541027e+01	0.0	1.071654e+01	1.688656e+01	0.0	8.515590e+00	1.809654e+01	0.0	6.180340e+00	1.902113e+01	0.0	3.747630e+00	1.964575e+01	0.0	1.255810e+00	1.996053e+01	0.0	-1.255810e+00	1.996053e+01	0.0	-3.747630e+00	1.964574e+01	0.0	-6.180340e+00	1.902113e+01	0.0	-8.515590e+00	1.809654e+01	0.0	-1.071654e+01	1.688656e+01	0.0	-1.274848e+01	1.541026e+01	0.0	-1.457937e+01	1.369094e+01	0.0	-1.618034e+01	1.175570e+01	0.0	-1.752613e+01	9.635070e+00	0.0	-1.859553e+01	7.362490e+00	0.0	-1.937166e+01	4.973800e+00	0.0	-1.984229e+01	2.506660e+00	0.0	-2.000000e+01	0.000000e+00	0.0	-1.984229e+01	-2.506670e+00	0.0	-1.937166e+01	-4.973800e+00	0.0	-1.859553e+01	-7.362490e+00	0.0	-1.752613e+01	-9.635080e+00	0.0	-1.618034e+01	-1.175571e+01	0.0	-1.457937e+01	-1.369094e+01	0.0	-1.274848e+01	-1.541027e+01	0.0	-1.071653e+01	-1.688656e+01	0.0	-8.515580e+00	-1.809654e+01	0.0	-6.180340e+00	-1.902113e+01	0.0	-3.747620e+00	-1.964575e+01	0.0	-1.255810e+00	-1.996053e+01	0.0	1.255810e+00	-1.996053e+01	0.0	3.747630e+00	-1.964574e+01	0.0	6.180340e+00	-1.902113e+01	0.0	8.515590e+00	-1.809654e+01	0.0	1.071654e+01	-1.688656e+01	0.0	1.274848e+01	-1.541026e+01	0.0	1.457937e+01	-1.369094e+01	0.0	1.618034e+01	-1.175570e+01	0.0	1.752614e+01	-9.635070e+00	0.0	1.859553e+01	-7.362490e+00	0.0	1.937166e+01	-4.973790e+00	0.0	1.984229e+01	-2.506660e+00	0.0	2.000000e+01	0.000000e+00	0.0	6.108363e-02	-3.783355e-02	0.0	6.595809e-01	-4.932240e-02	0.0	4.256123e-01	6.091732e-02	0.0	6.897905e-01	4.636021e-02	0.0	3.792400e-01	-5.491047e-02	0.0	9.994685e-01	-7.277937e-04	0.0	9.985577e-01	-1.337513e-03	0.0	7.733677e-01	-4.440357e-02	0.0	6.892533e-01	-4.842757e-02	0.0	-8.144337e-04	4.864526e-03	0.0	7.462583e-01	-4.604075e-02	0.0	5.833888e-01	5.557868e-02	0.0	9.928491e-01	-3.877460e-03	0.0	9.899909e-01	-5.024879e-03	0.0	5.989631e-01	5.453371e-02	0.0	7.181876e-01	-4.735034e-02	0.0	-1.240032e-03	5.770031e-04	0.0	9.866559e-01	-6.408999e-03	0.0	9.828482e-01	-8.039620e-03	0.0	-8.870276e-04	-5.208185e-03	0.0	6.445079e-01	-4.971492e-02	0.0	8.242201e-01	-3.977338e-02	0.0	7.993879e-01	-4.235027e-02	0.0	3.485219e-01	6.043838e-02	0.0	8.477158e-01	-3.670719e-02	0.0	2.473440e-01	5.659391e-02	0.0	8.698085e-01	-3.330604e-02	0.0	1.064683e-02	1.547244e-02	0.0	8.903966e-01	-2.989095e-02	0.0	7.735055e-02	-4.168345e-02	0.0	9.094254e-01	-2.679675e-02	0.0	-1.448156e-03	-2.610478e-03	0.0	9.425545e-01	-2.141358e-02	0.0	9.268375e-01	-2.409822e-02	0.0	1.838283e-02	-2.214427e-02	0.0	4.257265e-01	-5.391211e-02	0.0	8.589467e-01	-3.502899e-02	0.0	9.564856e-01	-1.813963e-02	0.0	9.785551e-01	-9.926981e-03	0.0	9.685093e-01	-1.410307e-02	0.0	1.586123e-01	-5.270626e-02	0.0	9.001113e-01	-2.828963e-02	0.0	7.599435e-01	-4.526882e-02	0.0	9.971445e-01	-2.110721e-03	0.0	5.985220e-01	-5.071795e-02	0.0	4.413824e-01	-5.358169e-02	0.0	5.359596e-01	-5.181493e-02	0.0	4.728573e-01	-5.294960e-02	0.0	5.044179e-01	-5.236302e-02	0.0	4.886263e-01	-5.264961e-02	0.0	1.252820e-01	-4.944876e-02	0.0	2.825025e-02	-2.688567e-02	0.0	3.946434e-01	-5.458267e-02	0.0	4.658159e-02	-3.365402e-02	0.0	4.101402e-01	-5.424857e-02	0.0	3.189729e-01	-5.601252e-02	0.0	3.488065e-01	-5.552437e-02	0.0	3.389753e-02	-2.918334e-02	0.0	2.898179e-01	-5.631447e-02	0.0	9.349137e-01	-2.279225e-02	0.0	1.471476e-01	-5.173725e-02	0.0	1.950061e-01	-5.489180e-02	0.0	8.612181e-02	-4.346063e-02	0.0	1.049133e-01	-4.669279e-02	0.0	5.673691e-01	-5.128806e-02	0.0	1.704205e-01	-5.355601e-02	0.0	6.139703e-01	-5.040622e-02	0.0	8.802983e-01	-3.157814e-02	0.0	2.308914e-02	-2.453455e-02	0.0	9.952399e-01	-2.932833e-03	0.0	7.198724e-03	-1.493388e-02	0.0	1.861496e-02	1.952917e-02	0.0	9.183360e-01	-2.541071e-02	0.0	9.497
[...]
POINT_DATA 5233

SCALARS Conservative_1 float 1
LOOKUP_TABLE default
1.394882e-01	-1.140195e-01	-1.276899e-01	-1.443523e-01	-1.641896e-01	-1.719055e-01	-1.673941e-01	-1.462918e-01	-1.040104e-01	-3.619163e-02	5.918488e-02	1.809600e-01	3.179938e-01	4.244856e-01	4.258215e-01	3.167936e-01	1.932460e-01	1.216275e-01	9.257006e-02	8.588148e-02	9.610143e-02	1.211233e-01	1.572040e-01	2.002549e-01	2.467236e-01	2.946158e-01	3.425089e-01	3.852946e-01	4.120014e-01	4.109871e-01	3.814026e-01	3.375987e-01	2.971669e-01	2.677427e-01	2.469685e-01	2.302935e-01	2.153932e-01	2.021378e-01	1.905850e-01	1.804396e-01	1.711116e-01	1.623143e-01	1.538856e-01	1.458715e-01	1.383025e-01	1.313282e-01	1.250869e-01	1.197622e-01	1.155096e-01	1.124857e-01	1.108159e-01	1.105962e-01	1.118840e-01	1.147116e-01	1.191241e-01	1.250858e-01	1.326094e-01	1.416387e-01	1.521474e-01	1.640599e-01	1.773318e-01	1.918704e-01	2.076700e-01	2.246773e-01	2.425961e-01	2.606643e-01	2.780665e-01	2.946907e-01	3.118972e-01	3.319192e-01	3.580970e-01	3.943687e-01	4.414609e-01	4.890290e-01	5.152687e-01	5.012277e-01	4.489964e-01	3.835199e-01	3.319547e-01	3.019296e-01	2.811524e-01	2.556916e-01	2.227618e-01	1.867290e-01	1.503453e-01	1.132219e-01	7.455627e-02	3.440674e-02	-7.185915e-03	-5.031872e-02	-9.539870e-02	-1.427803e-01	-1.935430e-01	-2.478505e-01	-3.075055e-01	-3.704503e-01	-4.299883e-01	-4.753975e-01	-4.967131e-01	-4.799319e-01	-4.400433e-01	-3.556420e-01	-2.275664e-01	-1.112470e-01	-2.503301e-02	3.466852e-02	7.525506e-02	1.050378e-01	1.289007e-01	1.491189e-01	1.663426e-01	1.816959e-01	1.992052e-01	2.221819e-01	2.451010e-01	2.530028e-01	2.361379e-01	2.086654e-01	2.067971e-01	2.604527e-01	3.646116e-01	4.798211e-01	5.613787e-01	5.886129e-01	5.702623e-01	5.288777e-01	4.832148e-01	4.414039e-01	4.043640e-01	3.710470e-01	3.412340e-01	3.151861e-01	2.930202e-01	2.744243e-01	2.588121e-01	2.456941e-01	2.346930e-01	2.256914e-01	2.184480e-01	2.124673e-01	2.072399e-01	2.028518e-01	2.001032e-01	1.993844e-01	2.003609e-01	2.011155e-01	2.003446e-01	1.975764e-01	1.929538e-01	1.872116e-01	1.807339e-01	1.735691e-01	1.652681e-01	1.557839e-01	1.452459e-01	1.336676e-01	1.212071e-01	1.076918e-01	9.324976e-02	7.792585e-02	6.188055e-02	4.546883e-02	2.883231e-02	1.246738e-02	-3.486108e-03	-1.855520e-02	-3.267862e-02	-4.549735e-02	-5.713986e-02	-6.751174e-02	-7.700051e-02	-8.572542e-02	-9.425994e-02	-1.028036e-01	-1.120256e-01	-1.222111e-01	-1.340209e-01	-1.480887e-01	-1.650279e-01	-1.852572e-01	-2.085852e-01	-2.338393e-01	-2.590494e-01	-2.815227e-01	-2.987623e-01	-3.085807e-01	-3.094902e-01	-3.007060e-01	-2.827399e-01	-2.582687e-01	-2.341151e-01	-2.214317e-01	-2.293847e-01	-2.577124e-01	-2.993928e-01	-3.510379e-01	-3.926531e-01	-4.374929e-01	-7.593389e-01	-3.113435e-01	-3.042173e-04	-3.086860e-04	-3.124203e-04	-3.178587e-04	-3.251655e-04	-3.301606e-04	-3.324796e-04	-3.233775e-04	-2.919590e-04	-2.610256e-04	-2.132828e-04	-1.333426e-04	-3.997896e-05	4.342778e-05	9.054443e-05	1.014387e-04	1.004770e-04	8.480523e-05	6.928019e-05	6.670857e-05	5.530678e-05	6.108102e-05	2.824549e-04	-1.273805e-05	-4.669410e-04	1.461461e-04	3.622509e-04	2.382258e-04	1.450571e-04	1.638975e-04	1.835698e-04	2.132590e-04	2.414467e-04	2.618377e-04	2.734648e-04	2.595845e-04	2.015223e-04	1.047052e-04	-1.904604e-05	-1.019737e-04	-1.655190e-04	-2.170086e-04	-2.496285e-04	-2.720194e-04	-2.838977e-04	-2.902208e-04	-2.947586e-04	-2.982359e-04	-2.971634e-04	-3.020396e-04	1.695280e-01	1.694238e-01	2.062777e-01	4.670730e-02	1.282249e-01	-1.009218e-02	-1.000390e-01	3.243347e-01	1.905986e-01	-3.267966e-01	2.544865e-01	1.458421e-01	-1.594467e-01	-1.592402e-01	1.340213e-01	2.173818e-01	-4.450939e-01	-1.474292e-01	-1.213667e-01	-4.408189e-01	1.605729e-01	3.183828e-01	3.706043e-01	2.163185e-01	2.332875e-01	2.863060e-01	1.542768e-01	3.170485e-02	9.631026e-02	2.343087e-01	8.237281e-02	-4.717374e-01	3.013200e-01	1.321427e-01	-1.007264e-01	1.091968e-01	1.924790e-01	2.641956e-01	-7.827195e-02	6.359460e-02	4.361948e-01	8.289001e-02	2.854001e-01	-1.284090e-01	1.371017e-01	1.057074e-01	1.127770e-01	1.029686e-01	1.055445e-01	1.036253e-01	4.386816e-01	-1.684820e-02	1.204693e-01	9.830623e-02	1.141132e-01	1.725122e-01	1.478155e-01	2.297214e-02	2.018749e-01	2.090007e-01	4.733984e-01	3.180864e-01	2.565017e-01	3.161741e-01	1.236641e-01	3.881370e-01	1.445102e-01	1.211255e-01	-5.801065e-02	-1.493867e-01	-2.414598e-01	9.653725e-02	9.555222e-02	3.296540e-01	-1.643951e-02	-2.332259e-01	2.757668e-01	2.515270e-01	1.178324e-01	2.332339e-01	3.585011e-01	3.752956e-01	2.818560e-01	1.301214e-01	1.792690e-01	1.340001e-01	-2.933451e-01	-1.453779e-01	1.373569e-01	3.471263e-01	9.246535e-02	2.670340e-01	2.785204e-01	1.866233e-01	2.349932e-01	1.036439e-01	2.034207e-01	-4.006326e-01	-3.984638e-01	1.756876e-01	-4.727619e-01	1.420097e-01	2.319775e-01	1.837577e-01	5.106707e-01	2.061772e-01	-3.567618e-01	1.833110e-01	2.009426e-01	-2.428088e-01	-2.724062e-01	-1.422791e-01	1.959299e-01	2.059376e-01	2.084927e-01	-2.236786e-01	-1.798714e-01	1.898138e-01	-2.223639e-01	-2.761692e-01	-2.608703e-01	2.905273e-01	2.321014e-01	2.447564e-01	2.699206e-01	4.585376e-01	2.276132e-01	2.043501e-01	2.066451e-01	5.440438e-01	5.689091e-01	1.076587e-01	3.867951e-01	3.291813e-01	7.808158e-02	1.567594e-01	-1.295771e-02	1.564214e-02	-5.805474e-02	-3.758088e-02	-9.351458e-02	-7.583093e-02	-1.598548e-01	-1.144360e-01	-2.720415e-01	-2.016299e-01	-2.607893e-01	-1.033556e-01	-1.272487e-01	-6.716122e-02	-8.451907e-02	-2.583916e-02	-4.829725e-02	3.097297e-02	8.998855e-04	9.319312e-02	6.247912e-02	1.668105e-01	1.213066e-01	3.562390e-01	3.059189e-01	5.009609e-01	4.206547e-01	2.106886e-01	5.741293e-01	6.712547e-02	1.612016e-01	2.977737e-01	-7.076504e-02	1.602676e-01	3.542633e-01	1.595639e-01	1.086332e-01	-1.440864e-01	1.212671e-01	-1.288453e-02	2.111052e-01	2.095178e-01	2.562143e-01	4.057523e-01	-2.068735e-01	-2.051565e-01	2.352771e-01	-2.217568e-01	-2.543124e-01	2.214589e-01	2.118999e-01	-2.441399e-01	-7.049499e-01	-4.269027e-01	-5.748425e-01	1.523310e-01	6.140640e-02	-2.999390e-01	1.900009e-01	-3.465664e-01	-1.922701e-01	2.043436e-01	4.770003e-01	2.181571e-01	1.849831e-01	-3.049654e-01	-3.650527e-01	1.955812e-01	1.805709e-01	8.290902e-02	-2.339457e-01	1.552090e-01	1.695204e-01	3.097834e-01	-1.439479e-01	1.549452e-01	1.836536e-01	2.568290e-01	2.326627e-01	-4.036416e-01	2.680846e-01	-1.465167e-01	1.350048e-01	4.235442e-01	1.926197e-01	1.512630e-01	9.774532e-02	2.112460e-01	1.162886e-01	8.235259e-02	3.281119e-01	-4.471110e-02	7.128733e-02	7.585327e-02	-7.915428e-02	4.440646e-01	6.076892e-02	4.738447e-01	-1.115472e-01	-2.058126e-01	2.235295e-01	1.908193e-01	-2.460443e-01	-1.252599e-01	-2.266803e-01	-2.459578e-01	-2.020276e-01	2.974895e-01	2.289234e-01	3.181352e-01	3.311925e-01	1.598329e-01	2.836096e-01	8.068624e-04	5.504061e-01	1.991764e-01	-2.283836e-01	-2.578339e-01	-1.408274e-01	3.816371e-01	-3.819857e-01	-3.479668e-01	-2.985541e-01	-9.997836e-02	-2.345127e-01	-2.796408e-01	-4.543214e-01	-4.439256e-01	-1.049135e-01	-2.078145e-01	1.526370e-01	-1.337955e-01	-1.518999e-01	2.108578e-01	1.064205e-01	-1.264187e-01	1.208392e-01	1.438964e-01	-1.518925e-01	-4.364832e-01	1.004334e-01	2.117647e-01	2.192443e-01	2.537191e-01	1.503789e-01	9.736264e-02	1.848809e-01	7.731142e-02	1.034516e-01	2.409674e-01	-2.569913e-02	2.077474e-01	6.102787e-02	-9.794102e-02	4.222643e-01	2.457482e-01	2.775087e-01	-1.459091e-01	9.633757e-02	9.617889e-02	9.719590e-02	-6.480430e-02	1.097110e-01	1.044080e-01	1.435209e-01	4.859065e-02	1.482040e-01	2.093627e-01	4.423318e-01	2.605810e-01	1.112072e-01	1.291713e-01	-3.147907e-03	-5.676254e-02	2.056487e-01	2.220185e-01	3.074877e-01	3.691991e-01	1.166695e-01	1.226757e-01	8.378391e-02	1.183653e-01	-1.897177e-01	1.332207e-01	1.241440e-01	3.383177e-01	3.054625e-01	2.548033e-01	2.411588e-01	1.810132e-01	1.674629e-01	2.264007e-01	-4.108432e-01	-3.243854e-01	1.722266e-01	-1.975602e-01	1.836894e-01	1.971010e-01	2.026999e-01	2.068925e-01	-2.142915e-01	-2.397612e-01	-1.958513e-01	2.092133e-01	2.101866e-01	2.132966e-01	-1.768742e-01	-2.400953e-01	2.057908e-01	2.138762e-01	2.801294e-01	2.656985e-01	5.150706e-01	5.619261e-01	5.285412e-01	-4.260387e-02	3.016955e-03	1.666837e-02	-3.248637e-02	-7.001688e-02	-1.582346e-01	-9.950517e-02	-8.881319e-02	-6.111575e-02	-5.201036e-02	-2.161223e-02	-9.741909e-03	3.093188e-02	4.575390e-02	9.064738e-02	1.050468e-01	1.659418e-01	1.755203e-01	1.187949e-01	1.317397e-01	3.424175e-01	3.702004e-01	4.011122e-01	4.354002e-01	3.897000e-02	1.456361e-01	1.222951e-01	3.216510e-01	2.938998e-01	9.930377e-02	1.024113e-01	-1.642599e-01	9.859391e-02	2.329011e-01	1.839169e-01	2.356164e-01	2.438044e-01	2.158190e-01	2.192151e-01	-2.289450e-01	-2.136850e-01	1.360821e-01	1.434327e-01	1.216108e-02	-3.675384e-01	2.109093e-01	-4.018099e-01	1.074781e-01	1.761955e-01	2.909366e-01	9.925947e-02	9.303090e-02	-2.186692e-01	-2.057940e-01	-2.261006e-01	-1.743289e-01	-2.381449e-01	-4.224167e-01	-4.340195e-01	-1.501820e-01	-2.784904e-01	-1.085440e-01	-3.881453e-01	2.121135e-01	1.191251e-01	-1.409963e-01	1.588499e-01	-1.035461e-01	-2.663766e-01	1.760909e-01	-3.425716e-01	1.877305e-01	-1.466950e-01	1.243332e-01	-2.260991e-01	1.405710e-01	1.500906e-01	1.652675e-01	-1.483219e-01	-1.861615e-01	-2.053304e-01	1.859696e-01	-2.250906e-01	8.189040e-02	-2.689019e-01	1.930269e-01	2.596062e-01	2.266297e-01	4.853540e-01	1.823584e-01	-4.528562e-01	-3.732511e-01	-2.906856e-01	1.583364e-02	-3.422167e-01	5.943570e-02	1.882318e-01	-4.264505e-01	3.705571e-01	9.273540e-02	-7.095061e-02	-6.705620e-02	-7.304075e-02	-3.492959e-02	6.736260e-02	-2.018641e-01	-2.277959e-01	-1.314553e-01	-1.175163e-01	2.328283e-01	2.490294e-01	3.065843e-01	3.640578e-01	1.468636e-01	1.554855e-01	2.547825e-01	-2.285857e-02	5.203018e-01	-2.127609e-01	-3.008672e-01	-1.178574e-01	-2.333040e-01	-3.055692e-01	-4.258631e-01	-3.414774e-02	-1.190597e-01	-9.913126e-02	6.607850e-03	-1.274642e-01	1.475073e-01	9.466934e-02	2.120378e-01	2.103492e-01	1.789054e-01	1.031401e-01	8.814927e-02	1.345609e-01	1.638130e-01	8.066025e-02	8.165710e-02	1.633398e-01	1.159994e-01	-1.067429e-01	2.457597e-01	2.722339e-01	-1.509875e-01	9.193039e-02	9.228116e-02	1.020339e-01	9.774313e-02	1.238046e-03	1.555030e-01	1.782396e-01	3.921769e-01	3.968728e-01	1.032334e-01	1.079257e-01	-3.945220e-02	-7.762682e-02	2.011608e-01	2.201267e-01	2.468732e-01	2.982112e-01	3.541597e-01	1.131798e-01	1.189763e-01	3.554991e-02	6.930123e-02	1.024884e-01	1.306729e-01	1.218185e-01	1.140883e-01	3.311409e-01	2.959908e-01	2.711148e-01	2.422523e-01	2.303534e-01	1.633759e-01	1.515036e-01	2.175338e-01	1.590338e-01	1.994295e-01	2.047171e-01	-2.205854e-01	2.079979e-01	2.096869e-01	2.108370e-01	2.135711e-01	-1.784941e-01	1.916571e-01	1.828999e-01	2.724463e-01	2.880373e-01	5.397888e-01	5.249404e-01	4.628889e-01	1.136106e-02	-1.624798e-01	-1.465136e-01	-1.048687e-01	-9.338151e-02	-8.291465e-02	-6.364958e-02	-5.408257e-02	-4.459457e-02	-2.439431e-02	-1.332088e-02	-1.274832e-03	2.481635e-02	3.861697e-02	5.299354e-02	9.602178e-02	1.693858e-01	1.781188e-01	1.098760e-01	1.229910e-01	1.356270e-01	3.284338e-01	3.534955e-01	3.815798e-01	4.126174e-01	4.473999e-01	1.312469e-01	1.049023e-01	2.917785e-01	2.730213e-01	2.432640e-01	9.367709e-02	9.603289e-02	7.838113e-02	4.917661e-02	2.619558e-01	1.935755e-01	1.728516e-01	2.402405e-01	2.156563e-01	2.182642e-01	2.217608e-01	-2.181583e-01	-2.074644e-01	-1.939802e-01	1.252101e-01	1.319128e-01	1.390824e-01	2.038164e-01	1.897928e-01	-3.665596e-01	1.942203e-01	-2.666478e-01	-2.039483e-01	9.934158e-02	-3.550358e-01	-1.483501e-01	1.022635e-01	1.211568e-01	-4.216091e-02	-2.277538e-01	1.895268e-01	-3.436213e-01	-4.072389e-02	-2.515673e-01	-2.143329e-01	-2.457763e-01	-2.730131e-01	8.337869e-02	-2.255151e-01	-3.193614e-01	-2.235784e-01	2.698675e-01	3.213472e-01	-1.108582e-01	1.023894e-01	1.675825e-01	9.252442e-02	1.608688e-01	-2.062876e-01	1.574557e-01	-2.132435e-01	-2.090977e-01	-3.225011e-02	4.869771e-01	2.619148e-01	-1.292634e-01	1.717514e-01	1.276628e-01	-3.214368e-01	-2.141328e-01	-1.534843e-01	-2.943606e-02	-1.456411e-01	1.654592e-01	-2.854549e-01	1.755275e-01	1.877478e-01	-1.807245e-01	-1.408079e-01	-2.166034e-01	-7.086742e-02	1.844107e-01	2.322935e-01	-3.169391e-01	-8.240895e-02	6.819902e-02	-1.266575e-01	2.252802e-01	2.405610e-01	2.501971e-01	1.469795e-01	1.554512e-01	-2.055974e-01	-1.276129e-01	-1.761176e-01	-3.171574e-01	-3.911876e-01	-7.577616e-02	9.532018e-03	-1.131592e-01	1.450876e-01	1.759509e-01	1.502842e-01	1.083479e-01	9.429357e-02	1.161638e-01	1.434015e-01	8.582330e-02	8.393345e-02	8.912783e-02	9.427185e-02	5.219427e-02	2.487762e-01	2.620683e-01	-1.483681e-01	9.126197e-02	9.102129e-02	9.798110e-02	9.470923e-02	1.336118e-01	1.251502e-01	3.526973e-01	3.484952e-01	1.036127e-01	-6.344734e-02	-9.155732e-02	2.017306e-01	2.254125e-01	2.326215e-01	2.827729e-01	3.283968e-01	1.081374e-01	1.134398e-01	-9.628752e-03	2.284540e-02	5.517968e-02	8.629220e-02	1.300772e-01	1.216969e-01	1.142031e-01	1.077938e-01	2.886841e-01	2.624978e-01	2.439857e-01	2.311673e-01	2.202156e-01	1.394935e-01	1.496983e-01	2.091767e-01	1.964042e-01	-2.092408e-01	-2.126824e-01	2.007630e-01	2.034262e-01	2.053055e-01	2.068355e-01	2.083087e-01	1.646526e-01	1.431379e-01	2.761340e-01	2.931463e-01	5.077989e-01	5.040389e-01	4.603284e-01	3.791196e-01	-1.670050e-01	-1.534121e-01	-1.398854e-01	-1.142029e-01	-1.023591e-01	-9.144617e-02	-8.057864e-02	-6.206805e-02	-5.106488e-02	-4.183218e-02	-2.096370e-02	-1.011920e-02	2.459452e-03	1.427242e-02	2.809477e-02	4.062133e-02	5.546931e-02	1.748009e-01	1.680794e-01	9.554900e-02	1.103650e-01	1.216719e-01	1.357019e-01	3.130545e-01	3.357831e-01	3.614385e-01	3.897396e-01	4.210374e-01	4.554938e-01	1.156423e-01	8.828923e-02	2.542699e-01	2.305255e-01	2.037778e-01	9.189173e-02	9.329596e-02	9.619800e-02	6.047466e-02	2.988179e-02	-3.466601e-03	2.837626e-01	2.078853e-01	1.713720e-01	1.673990e-01	2.099654e-01	2.122001e-01	2.148688e-01	2.193074e-01	-1.801134e-01	-2.017200e-01	-1.920677e-01	1.190966e-01	1.252352e-01	1.319251e-01	1.389854e-01	1.972804e-01	1.850321e-01	1.726388e-01	-1.750182e-01	-2.502313e-01	-2.622250e-02	-3.992432e-01	-2.066700e-01	1.812251e-01	1.770288e-01	-2.373381e-01	-2.008759e-01	-2.939410e-01	-8.022114e-02	2.795721e-01	4.716015e-01	-9.321041e-02	-2.164570e-01	-3.294208e-01	-4.053052e-01	-4.152068e-01	-3.813653e-01	-3.178503e-01	-1.524012e-01	2.204212e-01	-5.517771e-02	-1.327385e-01	1.000997e-01	2.400377e-01	9.970115e-02	-2.286452e-01	-1.690784e-01	-1.938133e-01	1.571943e-01	1.724750e-01	7.406389e-02	-2.441741e-02	1.829085e-01	9.977354e-02	2.150822e-01	-2.175689e-01	1.487969e-01	-3.688708e-01	-2.032272e-01	-3.975248e-01	-1.557389e-01	-1.466157e-01	9.953101e-02	-5.029539e-02	-3.370399e-01	-5.494814e-02	-2.664759e-01	-2.016895e-01	-2.566421e-01	-3.022262e-01	-2.407633e-01	-1.442449e-01	1.400411e-01	1.492548e-01	-2.085062e-01	1.406627e-01	-1.990230e-01	-1.190139e-01	1.607078e-01	-2.946400e-01	2.297214e-01	2.376880e-01	2.498007e-01	1.439786e-01	-1.334244e-01	-1.745940e-01	-3.568536e-01	-1.121092e-01	1.468767e-01	1.288545e-01	1.097406e-01	9.638352e-02	1.245242e-01	9.826391e-02	8.707490e-02	8.350538e-02	8.431511e-02	8.960956e-02	3.903838e-02	5.735650e-03	2.331846e-01	-1.429861e-01	9.235893e-02	9.191240e-02	9.621795e-02	9.406134e-02	9.128789e-02	6.980883e-02	3.122845e-01	3.087554e-01	-8.056753e-02	-1.018693e-01	2.053362e-01	2.198575e-01	2.691777e-01	2.962282e-01	1.078189e-01	-2.019727e-02	1.067253e-02	4.100171e-02	7.012929e-02	1.308519e-01	1.229790e-01	1.157184e-01	1.094836e-01	1.045851e-01	2.575810e-01	2.364592e-01	2.239931e-01	2.119264e-01	2.033541e-01	-2.008738e-01	-2.018194e-01	-2.024453e-01	1.907353e-01	1.927256e-01	1.970815e-01	1.976884e-01	2.008316e-01	1.461685e-01	1.259773e-01	2.619087e-01	2.786450e-01	4.802671e-01	4.448210e-01	3.775541e-01	-1.567472e-01	-1.454353e-01	-1.329895e-01	-1.213767e-01	-1.097668e-01	-9.877281e-02	-8.816962e-02	-7.347550e-02	-5.908871e-02	-4.399609e-02	-1.862099e-03	2.225472e-02	4.783793e-02	9.990992e-02	1.236908e-01	2.959439e-01	3.180548e-01	3.405267e-01	3.680299e-01	3.927103e-01	4.250834e-01	4.537757e-01	9.914383e-02	7.157045e-02	2.157457e-01	1.968965e-01	1.720680e-01	9.218779e-02	9.436990e-02	4.387879e-02	1.309804e-02	-2.015370e-02	2.931087e-01	2.182179e-01	1.730370e-01	1.573116e-01	1.544875e-01	2.007956e-01	2.039043e-01	2.042993e-01	2.081593e-01	-1.868057e-01	-1.780177e-01	1.179253e-01	1.299098e-01	1.916649e-01	1.821486e-01	1.701762e-01	1.601766e-01	-1.391436e-01	-3.575945e-01	-2.234469e-01	-3.512503e-01	-2.087923e-01	-7.377355e-02	-2.080761e-01	-2.732225e-01	-1.912496e-01	-1.570979e-01	-1.103904e-01	-3.246817e-01	-8.439859e-02	-1.965750e-01	2.046536e-01	-3.266676e-01	-1.360795e-01	-2.408327e-01	-1.693711e-01	-5.172424e-02	9.667383e-02	-2.013033e-01	1.366423e-01	6.550162e-02	7.827693e-02	1.208126e-01	1.633039e-01	2.407836e-01	-2.933721e-01	9.681540e-02	1.067016e-01	1.300152e-01	4.282955e-01	-1.944558e-01	-1.610597e-01	-3.037520e-01	-1.004352e-01	-2.732836e-02	-3.725842e-01	-1.968772e-01	-4.000398e-01	-3.102812e-01	-1.251613e-01	1.839898e-01	1.667429e-01	1.790675e-01	-2.167463e-01	-2.633728e-01	-2.556618e-01	-3.726722e-01	-1.596874e-01	-5.746868e-02	-2.721486e-01	-2.486199e-01	1.379582e-01	-1.124071e-01	-1.890039e-01	-1.851214e-01	1.530669e-01	2.196020e-01	2.409541e-01	1.632143e-01	-1.714339e-01	-2.068514e-01	-1.419108e-01	1.161915e-01	9.109289e-02	8.144871e-02	7.977099e-02	7.782096e-02	-1.550036e-03	-1.374402e-01	9.342729e-02	4.725502e-02	2.436374e-02	2.710119e-01	-9.329577e-02	2.060439e-01	2.156241e-01	2.239812e-01	2.636437e-01	1.026266e-01	-2.928257e-02	8.712630e-04	3.118814e-02	5.380139e-02	1.212102e-01	1.094952e-01	1.021364e-01	2.122789e-01	1.924589e-01	-1.932967e-01	-1.925176e-01	1.862308e-01	1.903465e-01	1.090775e-01	2.705051e-01	3.658391e-01	-5.299258e-02	-1.414341e-01	-1.198345e-01	-9.914790e-02	-8.186060e-02	-6.723206e-02	-3.647450e-02	-1.635584e-02	5.711162e-03	2.894247e-02	5.318069e-02	7.775544e-02	1.012803e-01	1.213177e-01	3.094516e-01	3.547092e-01	3.929677e-01	4.238963e-01	4.345139e-01	8.218736e-02	5.524044e-02	2.007202e-01	1.737671e-01	1.424439e-01	9.259443e-02	9.344382e-02	2.833433e-02	-1.085337e-03	-3.371979e-02	-6.634313e-02	2.886053e-01	2.189898e-01	1.723188e-01	1.493446e-01	1.381877e-01	1.318328e-01	1.929325e-01	1.950668e-01	-1.810745e-01	-1.730754e-01	1.108006e-01	1.326266e-01	1.464725e-01	1.736507e-01	1.545656e-01	-2.235359e-01	-1.539950e-01	-1.511656e-01	-2.697937e-01	5.790474e-03	-2.074601e-01	-2.846838e-01	-1.545460e-01	-2.320101e-01	-1.635979e-01	-1.589274e-01	-1.455536e-01	-1.671286e-01	-2.800301e-01	-2.970854e-01	-1.844186e-01	1.830988e-01	1.883156e-01	-2.423453e-01	6.844104e-02	-1.120111e-01	1.018406e-01	-1.363960e-01	-2.101977e-01	9.874716e-02	3.010094e-02	1.231739e-01	9.849143e-02	-7.001347e-02	-8.772116e-02	-8.782852e-02	-6.298157e-02	-3.409173e-01	-1.933670e-01	-1.988750e-01	-1.799669e-01	2.183962e-01	1.200880e-01	1.488913e-01	6.924910e-02	-3.280916e-01	-3.406105e-01	-3.679365e-01	-5.078436e-02	-1.824599e-01	-2.337462e-01	-1.035687e-01	-2.535600e-01	-1.869349e-01	9.442382e-02	-2.857488e-01	8.769634e-02	1.134860e-01	-1.892753e-01	-3.231591e-01	-3.047266e-02	-1.186533e-01	1.657023e-01	-3.412487e-01	-1.802114e-01	4.003960e-02	-2.702869e-01	-2.519421e-01	1.502871e-01	-1.384626e-01	-1.766041e-01	1.358007e-01	2.000093e-01	1.022726e-01	-1.972466e-01	-2.259931e-01	9.210290e-02	7.656271e-02	6.106302e-02	4.800716e-02	-1.322756e-01	9.466559e-02	1.115689e-02	-9.498873e-03	1.046732e-01	1.622160e-01	1.376156e-01	1.924091e-01	1.541939e-01	2.034120e-01	2.327025e-01	-3.475428e-02	1.251745e-01	1.130785e-01	2.303715e-01	2.092391e-01	1.348992e-01	-1.864956e-01	1.631883e-01	1.726330e-01	3.479167e-01	-1.448596e-01	-1.269640e-01	-6.096237e-02	-1.079436e-01	-9.040987e-02	-7.504491e-02	-4.605365e-02	-2.844455e-02	-8.364328e-03	1.310477e-02	3.548704e-02	5.857304e-02	8.145942e-02	2.441991e-01	2.780957e-01	3.178906e-01	3.576557e-01	3.919053e-01	3.905838e-01	6.602141e-02	3.848353e-02	1.841190e-01	1.138750e-01	9.284650e-02	9.274604e-02	1.334619e-02	-1.346140e-02	-4.394809e-02	-7.484851e-02	-1.051155e-01	2.761654e-01	2.097432e-01	1.648758e-01	1.390126e-01	1.2255