# vtk DataFile Version 3.0
vtk output
ASCII
DATASET UNSTRUCTURED_GRID
POINTS 200 float
9.997500e-01	-3.633650e-05	0.0	9.990000e-01	-1.457287e-04	0.0	9.977600e-01	-3.303104e-04	0.0	9.960200e-01	-6.049839e-04	0.0	9.937800e-01	-1.001065e-03	0.0	9.910500e-01	-1.569525e-03	0.0	9.878400e-01	-2.375117e-03	0.0	9.841300e-01	-3.485161e-03	0.0	9.799500e-01	-4.916644e-03	0.0	9.752800e-01	-6.637404e-03	0.0	9.701500e-01	-8.524346e-03	0.0	9.645400e-01	-1.042084e-02	0.0	9.584700e-01	-1.215204e-02	0.0	9.519400e-01	-1.360063e-02	0.0	9.449600e-01	-1.473324e-02	0.0	9.375400e-01	-1.560648e-02	0.0	9.296900e-01	-1.633786e-02	0.0	9.214000e-01	-1.706359e-02	0.0	9.127000e-01	-1.789381e-02	0.0	9.035800e-01	-1.889618e-02	0.0	8.940600e-01	-2.008403e-02	0.0	8.841500e-01	-2.142895e-02	0.0	8.738500e-01	-2.287728e-02	0.0	8.631800e-01	-2.436202e-02	0.0	8.521600e-01	-2.581899e-02	0.0	8.407700e-01	-2.720029e-02	0.0	8.290500e-01	-2.846565e-02	0.0	8.170100e-01	-2.959488e-02	0.0	8.046400e-01	-3.058339e-02	0.0	7.919700e-01	-3.143434e-02	0.0	7.790100e-01	-3.216051e-02	0.0	7.657800e-01	-3.277855e-02	0.0	7.522800e-01	-3.330745e-02	0.0	7.385200e-01	-3.376479e-02	0.0	7.245300e-01	-3.416540e-02	0.0	7.103200e-01	-3.452185e-02	0.0	6.958900e-01	-3.484376e-02	0.0	6.812700e-01	-3.513733e-02	0.0	6.664700e-01	-3.540710e-02	0.0	6.515000e-01	-3.565627e-02	0.0	6.363800e-01	-3.588727e-02	0.0	6.211300e-01	-3.610266e-02	0.0	6.057600e-01	-3.630568e-02	0.0	5.902800e-01	-3.650034e-02	0.0	5.747100e-01	-3.669142e-02	0.0	5.590600e-01	-3.688453e-02	0.0	5.433600e-01	-3.708545e-02	0.0	5.276100e-01	-3.730043e-02	0.0	5.118400e-01	-3.753493e-02	0.0	4.960500e-01	-3.779405e-02	0.0	4.802700e-01	-3.808130e-02	0.0	4.645100e-01	-3.839902e-02	0.0	4.487800e-01	-3.874793e-02	0.0	4.331100e-01	-3.912653e-02	0.0	4.175000e-01	-3.953226e-02	0.0	4.019700e-01	-3.996038e-02	0.0	3.865400e-01	-4.040461e-02	0.0	3.712300e-01	-4.085730e-02	0.0	3.560400e-01	-4.131039e-02	0.0	3.409900e-01	-4.175442e-02	0.0	3.261100e-01	-4.217914e-02	0.0	3.114000e-01	-4.257495e-02	0.0	2.968700e-01	-4.293194e-02	0.0	2.825500e-01	-4.323994e-02	0.0	2.684500e-01	-4.348975e-02	0.0	2.545700e-01	-4.367277e-02	0.0	2.409400e-01	-4.378060e-02	0.0	2.275700e-01	-4.380595e-02	0.0	2.144700e-01	-4.374222e-02	0.0	2.016600e-01	-4.358371e-02	0.0	1.891400e-01	-4.332525e-02	0.0	1.769300e-01	-4.296279e-02	0.0	1.650400e-01	-4.249288e-02	0.0	1.534900e-01	-4.191342e-02	0.0	1.422900e-01	-4.122283e-02	0.0	1.314400e-01	-4.041955e-02	0.0	1.209500e-01	-3.950325e-02	0.0	1.108500e-01	-3.847664e-02	0.0	1.011300e-01	-3.733954e-02	0.0	9.181000e-02	-3.609579e-02	0.0	8.290000e-02	-3.474934e-02	0.0	7.440000e-02	-3.330349e-02	0.0	6.633000e-02	-3.176595e-02	0.0	5.869000e-02	-3.014206e-02	0.0	5.149000e-02	-2.843998e-02	0.0	4.474000e-02	-2.666920e-02	0.0	3.844000e-02	-2.483741e-02	0.0	3.260000e-02	-2.295573e-02	0.0	2.723000e-02	-2.103638e-02	0.0	2.232000e-02	-1.908431e-02	0.0	1.790000e-02	-1.712037e-02	0.0	1.395000e-02	-1.514386e-02	0.0	1.049000e-02	-1.317093e-02	0.0	7.520000e-03	-1.120665e-02	0.0	5.040000e-03	-9.251660e-03	0.0	3.050000e-03	-7.299161e-03	0.0	1.560000e-03	-5.343803e-03	0.0	5.600000e-04	-3.333343e-03	0.0	6.000000e-05	-1.182547e-03	0.0	0.000000e+00	0.000000e+00	0.0	6.000000e-05	1.143813e-03	0.0	5.600000e-04	3.137709e-03	0.0	1.560000e-03	4.924243e-03	0.0	3.050000e-03	6.604230e-03	0.0	5.040000e-03	8.237673e-03	0.0	7.520000e-03	9.840581e-03	0.0	1.049000e-02	1.142852e-02	0.0	1.395000e-02	1.300974e-02	0.0	1.790000e-02	1.458810e-02	0.0	2.232000e-02	1.615795e-02	0.0	2.723000e-02	1.772651e-02	0.0	3.260000e-02	1.928309e-02	0.0	3.844000e-02	2.082919e-02	0.0	4.474000e-02	2.235975e-02	0.0	5.149000e-02	2.386995e-02	0.0	5.869000e-02	2.535712e-02	0.0	6.633000e-02	2.681644e-02	0.0	7.440000e-02	2.824340e-02	0.0	8.290000e-02	2.963545e-02	0.0	9.181000e-02	3.098698e-02	0.0	1.011300e-01	3.229593e-02	0.0	1.108500e-01	3.355895e-02	0.0	1.209500e-01	3.477193e-02	0.0	1.314400e-01	3.593470e-02	0.0	1.422900e-01	3.704282e-02	0.0	1.534900e-01	3.809473e-02	0.0	1.650400e-01	3.908997e-02	0.0	1.769300e-01	4.002736e-02	0.0	1.891400e-01	4.090535e-02	0.0	2.016600e-01	4.172353e-02	0.0	2.144700e-01	4.248114e-02	0.0	2.275700e-01	4.317881e-02	0.0	2.409400e-01	4.381617e-02	0.0	2.545700e-01	4.439353e-02	0.0	2.684500e-01	4.491118e-02	0.0	2.825500e-01	4.536874e-02	0.0	2.968700e-01	4.576687e-02	0.0	3.114000e-01	4.610565e-02	0.0	3.261100e-01	4.638460e-02	0.0	3.409900e-01	4.660360e-02	0.0	3.560400e-01	4.676232e-02	0.0	3.712300e-01	4.685987e-02	0.0	3.865400e-01	4.689540e-02	0.0	4.019700e-01	4.686786e-02	0.0	4.175000e-01	4.677596e-02	0.0	4.331100e-01	4.661831e-02	0.0	4.487800e-01	4.639349e-02	0.0	4.645100e-01	4.609961e-02	0.0	4.802700e-01	4.573515e-02	0.0	4.960500e-01	4.529816e-02	0.0	5.118400e-01	4.478650e-02	0.0	5.276100e-01	4.419861e-02	0.0	5.433600e-01	4.353184e-02	0.0	5.590600e-01	4.278478e-02	0.0	5.747100e-01	4.195480e-02	0.0	5.902800e-01	4.104119e-02	0.0	6.057600e-01	4.004280e-02	0.0	6.211300e-01	3.896011e-02	0.0	6.363800e-01	3.779424e-02	0.0	6.515000e-01	3.654793e-02	0.0	6.664700e-01	3.522675e-02	0.0	6.812700e-01	3.383865e-02	0.0	6.958900e-01	3.239294e-02	0.0	7.103200e-01	3.090085e-02	0.0	7.245300e-01	2.937720e-02	0.0	7.385200e-01	2.783430e-02	0.0	7.522800e-01	2.628506e-02	0.0	7.657800e-01	2.474313e-02	0.0	7.790100e-01	2.321734e-02	0.0	7.919700e-01	2.171194e-02	0.0	8.046400e-01	2.022980e-02	0.0	8.170100e-01	1.876900e-02	0.0	8.290500e-01	1.732706e-02	0.0	8.407700e-01	1.589468e-02	0.0	8.521600e-01	1.446362e-02	0.0	8.631800e-01	1.302908e-02	0.0	8.738500e-01	1.157873e-02	0.0	8.841500e-01	1.010642e-02	0.0	8.940600e-01	8.609584e-03	0.0	9.035800e-01	7.090401e-03	0.0	9.127000e-01	5.566798e-03	0.0	9.214000e-01	4.080185e-03	0.0	9.296900e-01	2.692876e-03	0.0	9.375400e-01	1.495699e-03	0.0	9.449600e-01	5.786308e-04	0.0	9.519400e-01	1.362684e-05	0.0	9.584700e-01	-1.789011e-04	0.0	9.645400e-01	-4.856036e-05	0.0	9.701500e-01	2.914896e-04	0.0	9.752800e-01	6.941634e-04	0.0	9.799500e-01	1.026684e-03	0.0	9.841300e-01	1.201504e-03	0.0	9.878400e-01	1.197585e-03	0.0	9.910500e-01	1.047349e-03	0.0	9.937800e-01	8.110642e-04	0.0	9.960200e-01	5.521946e-04	0.0	9.977600e-01	3.205093e-04	0.0	9.990000e-01	1.448337e-04	0.0	9.997500e-01	3.632231e-05	0.0	1.000000e+00	0.000000e+00	0.0	
CELLS 200	600
2	199	0	2	0	1	2	1	2	2	2	3	2	3	4	2	4	5	2	5	6	2	6	7	2	7	8	2	8	9	2	9	10	2	10	11	2	11	12	2	12	13	2	13	14	2	14	15	2	15	16	2	16	17	2	17	18	2	18	19	2	19	20	2	20	21	2	21	22	2	22	23	2	23	24	2	24	25	2	25	26	2	26	27	2	27	28	2	28	29	2	29	30	2	30	31	2	31	32	2	32	33	2	33	34	2	34	35	2	35	36	2	36	37	2	37	38	2	38	39	2	39	40	2	40	41	2	41	42	2	42	43	2	43	44	2	44	45	2	45	46	2	46	47	2	47	48	2	48	49	2	49	50	2	50	51	2	51	52	2	52	53	2	53	54	2	54	55	2	55	56	2	56	57	2	57	58	2	58	59	2	59	60	2	60	61	2	61	62	2	62	63	2	63	64	2	64	65	2	65	66	2	66	67	2	67	68	2	68	69	2	69	70	2	70	71	2	71	72	2	72	73	2	73	74	2	74	75	2	75	76	2	76	77	2	77	78	2	78	79	2	79	80	2	80	81	2	81	82	2	82	83	2	83	84	2	84	85	2	85	86	2	86	87	2	87	88	2	88	89	2	89	90	2	90	91	2	91	92	2	92	93	2	93	94	2	94	95	2	95	96	2	96	97	2	97	98	2	98	99	2	99	100	2	100	101	2	101	102	2	102	103	2	103	104	2	104	105	2	105	106	2	106	107	2	107	108	2	108	109	2	109	110	2	110	111	2	111	112	2	112	113	2	113	114	2	114	115	2	115	116	2	116	117	2	117	118	2	118	119	2	119	120	2	120	121	2	121	122	2	122	123	2	123	124	2	124	125	2	125	126	2	126	127	2	127	128	2	128	129	2	129	130	2	130	131	2	131	132	2	132	133	2	133	134	2	134	135	2	135	136	2	136	137	2	137	138	2	138	139	2	139	140	2	140	141	2	141	142	2	142	143	2	143	144	2	144	145	2	145	146	2	146	147	2	147	148	2	148	149	2	149	150	2	150	151	2	151	152	2	152	153	2	153	154	2	154	155	2	155	156	2	156	157	2	157	158	2	158	159	2	159	160	2	160	161	2	161	162	2	162	163	2	163	164	2	164	165	2	165	166	2	166	167	2	167	168	2	168	169	2	169	170	2	170	171	2	171	172	2	172	173	2	173	174	2	174	175	2	175	176	2	176	177	2	177	178	2	178	179	2	179	180	2	180	181	2	181	182	2	182	183	2	183	184	2	184	185	2	185	186	2	186	187	2	187	188	2	188	189	2	189	190	2	190	191	2	191	192	2	192	193	2	193	194	2	194	195	2	195	196	2	196	197	2	197	198	2	198	199	
CELL_TYPES 200
3	3	3	3	3	3	3	3	3	3	3	3	3	3	3	3	3	3	3	3	3	3	3	3	3	3	3	3	3	3	3	3	3	3	3	3	3	3	3	3	3	3	3	3	3	3	3	3	3	3	3	3	3	3	3	3	3	3	3	3	3	3	3	3	3	3	3	3	3	3	3	3	3	3	3	3	3	3	3	3	3	3	3	3	3	3	3	3	3	3	3	3	3	3	3	3	3	3	3	3	3	3	3	3	3	3	3	3	3	3	3	3	3	3	3	3	3	3	3	3	3	3	3	3	3	3	3	3	3	3	3	3	3	3	3	3	3	3	3	3	3	3	3	3	3	3	3	3	3	3	3	3	3	3	3	3	3	3	3	3	3	3	3	3	3	3	3	3	3	3	3	3	3	3	3	3	3	3	3	3	3	3	3	3	3	3	3	3	3	3	3	3	3	3	3	3	3	3	3	3	
POINT_DATA 200

SCALARS Conservative_1 float 1
LOOKUP_TABLE default
1.394882e-01	-1.140195e-01	-1.276899e-01	-1.443523e-01	-1.641896e-01	-1.719055e-01	-1.673941e-01	-1.462918e-01	-1.040104e-01	-3.619163e-02	5.918488e-02	1.809600e-01	3.179938e-01	4.244856e-01	4.258215e-01	3.167936e-01	1.932460e-01	1.216275e-01	9.257006e-02	8.588148e-02	9.610143e-02	1.211233e-01	1.572040e-01	2.002549e-01	2.467236e-01	2.946158e-01	3.425089e-01	3.852946e-01	4.120014e-01	4.109871e-01	3.814026e-01	3.375987e-01	2.971669e-01	2.677427e-01	2.469685e-01	2.302935e-01	2.153932e-01	2.021378e-01	1.905850e-01	1.804396e-01	1.711116e-01	1.623143e-01	1.538856e-01	1.458715e-01	1.383025e-01	1.313282e-01	1.250869e-01	1.197622e-01	1.155096e-01	1.124857e-01	1.108159e-01	1.105962e-01	1.118840e-01	1.147116e-01	1.191241e-01	1.250858e-01	1.326094e-01	1.416387e-01	1.521474e-01	1.640599e-01	1.773318e-01	1.918704e-01	2.076700e-01	2.246773e-01	2.425961e-01	2.606643e-01	2.780665e-01	2.946907e-01	3.118972e-01	3.319192e-01	3.580970e-01	3.943687e-01	4.414609e-01	4.890290e-01	5.152687e-01	5.012277e-01	4.489964e-01	3.835199e-01	3.319547e-01	3.019296e-01	2.811524e-01	2.556916e-01	2.227618e-01	1.867290e-01	1.503453e-01	1.132219e-01	7.455627e-02	3.440674e-02	-7.185915e-03	-5.031872e-02	-9.539870e-02	-1.427803e-01	-1.935430e-01	-2.478505e-01	-3.075055e-01	-3.704503e-01	-4.299883e-01	-4.753975e-01	-4.967131e-01	-4.799319e-01	-4.400433e-01	-3.556420e-01	-2.275664e-01	-1.112470e-01	-2.503301e-02	3.466852e-02	7.525506e-02	1.050378e-01	1.289007e-01	1.491189e-01	1.663426e-01	1.816959e-01	1.992052e-01	2.221819e-01	2.451010e-01	2.530028e-01	2.361379e-01	2.086654e-01	2.067971e-01	2.604527e-01	3.646116e-01	4.798211e-01	5.613787e-01	5.886129e-01	5.702623e-01	5.288777e-01	4.832148e-01	4.414039e-01	4.043640e-01	3.710470e-01	3.412340e-01	3.151861e-01	2.930202e-01	2.744243e-01	2.588121e-01	2.456941e-01	2.346930e-01	2.256914e-01	2.184480e-01	2.124673e-01	2.072399e-01	2.028518e-01	2.001032e-01	1.993844e-01	2.003609e-01	2.011155e-01	2.003446e-01	1.975764e-01	1.929538e-01	1.872116e-01	1.807339e-01	1.735691e-01	1.652681e-01	1.557839e-01	1.452459e-01	1.336676e-01	1.212071e-01	1.076918e-01	9.324976e-02	7.792585e-02	6.188055e-02	4.546883e-02	2.883231e-02	1.246738e-02	-3.486108e-03	-1.855520e-02	-3.267862e-02	-4.549735e-02	-5.713986e-02	-6.751174e-02	-7.700051e-02	-8.572542e-02	-9.425994e-02	-1.028036e-01	-1.120256e-01	-1.222111e-01	-1.340209e-01	-1.480887e-01	-1.650279e-01	-1.852572e-01	-2.085852e-01	-2.338393e-01	-2.590494e-01	-2.815227e-01	-2.987623e-01	-3.085807e-01	-3.094902e-01	-3.007060e-01	-2.827399e-01	-2.582687e-01	-2.341151e-01	-2.214317e-01	-2.293847e-01	-2.577124e-01	-2.993928e-01	-3.510379e-01	-3.926531e-01	-4.374929e-01	-7.593389e-01	-3.113435e-01	
SCALARS Conservative_2 float 1
LOOKUP_TABLE default
-5.532427e-01	-2.712521e-02	4.638456e-02	1.001772e-01	1.516875e-01	1.800066e-01	1.882133e-01	1.709854e-01	1.232395e-01	4.077149e-02	-7.671761e-02	-2.224558e-01	-3.788273e-01	-5.003393e-01	-5.130043e-01	-4.027896e-01	-2.669762e-01	-1.840789e-01	-1.478074e-01	-1.366433e-01	-1.452137e-01	-1.712119e-01	-2.099945e-01	-2.564939e-01	-3.063759e-01	-3.570168e-01	-4.066424e-01	-4.503159e-01	-4.775907e-01	-4.770589e-01	-4.475117e-01	-4.029304e-01	-3.611637e-01	-3.303143e-01	-3.081686e-01	-2.901426e-01	-2.738737e-01	-2.592911e-01	-2.464825e-01	-2.351571e-01	-2.246872e-01	-2.147728e-01	-2.052348e-01	-1.961325e-01	-1.874984e-01	-1.795044e-01	-1.723093e-01	-1.661283e-01	-1.611364e-01	-1.575214e-01	-1.554281e-01	-1.549671e-01	-1.562021e-01	-1.591701e-01	-1.639084e-01	-1.703731e-01	-1.785614e-01	-1.883961e-01	-1.998220e-01	-2.127398e-01	-2.270707e-01	-2.426886e-01	-2.595491e-01	-2.775656e-01	-2.964024e-01	-3.152694e-01	-3.332998e-01	-3.503357e-01	-3.676470e-01	-3.873758e-01	-4.126456e-01	-4.472576e-01	-4.919491e-01	-5.368599e-01	-5.609499e-01	-5.457510e-01	-4.930208e-01	-4.266782e-01	-3.731064e-01	-3.399280e-01	-3.151912e-01	-2.850012e-01	-2.462914e-01	-2.031930e-01	-1.583630e-01	-1.112344e-01	-6.074653e-02	-6.645724e-03	5.142083e-02	1.140866e-01	1.825322e-01	2.580767e-01	3.435803e-01	4.407719e-01	5.545593e-01	6.831994e-01	8.207174e-01	9.415935e-01	9.970061e-01	9.935516e-01	9.383794e-01	8.038236e-01	5.768309e-01	3.816671e-01	2.325744e-01	1.288092e-01	5.707520e-02	4.752751e-03	-3.572055e-02	-6.854803e-02	-9.566228e-02	-1.189527e-01	-1.428718e-01	-1.709198e-01	-1.979199e-01	-2.095487e-01	-1.965829e-01	-1.729517e-01	-1.737947e-01	-2.280414e-01	-3.308203e-01	-4.441042e-01	-5.248248e-01	-5.530297e-01	-5.370724e-01	-4.986359e-01	-4.557976e-01	-4.164707e-01	-3.816167e-01	-3.502808e-01	-3.222426e-01	-2.977418e-01	-2.768865e-01	-2.593752e-01	-2.446632e-01	-2.322811e-01	-2.218779e-01	-2.133312e-01	-2.064240e-01	-2.006853e-01	-1.956399e-01	-1.913685e-01	-1.886274e-01	-1.877829e-01	-1.885696e-01	-1.890629e-01	-1.879192e-01	-1.846599e-01	-1.795005e-01	-1.731897e-01	-1.660833e-01	-1.581836e-01	-1.490503e-01	-1.385902e-01	-1.269512e-01	-1.141104e-01	-1.001999e-01	-8.506279e-02	-6.875749e-02	-5.137200e-02	-3.302523e-02	-1.411677e-02	5.210770e-03	2.440061e-02	4.328336e-02	6.131144e-02	7.839720e-02	9.411878e-02	1.086054e-01	1.217506e-01	1.340065e-01	1.455349e-01	1.570245e-01	1.687712e-01	1.815345e-01	1.957907e-01	2.123637e-01	2.321231e-01	2.559329e-01	2.844182e-01	3.174173e-01	3.534537e-01	3.898734e-01	4.229284e-01	4.489702e-01	4.647967e-01	4.683028e-01	4.586399e-01	4.370948e-01	4.081180e-01	3.816882e-01	3.727160e-01	3.922337e-01	4.399400e-01	5.077389e-01	5.938860e-01	6.723585e-01	7.736680e-01	1.334028e+00	3.548422e-01	
SCALARS Conservative_3 float 1
LOOKUP_TABLE default
-1.663205e-01	-1.045796e-01	-1.284615e-01	-1.305818e-01	-1.443911e-01	-1.692910e-01	-2.040878e-01	-2.465272e-01	-2.922195e-01	-3.341567e-01	-3.624089e-01	-3.672068e-01	-3.378613e-01	-2.687617e-01	-1.831436e-01	-1.213989e-01	-9.501306e-02	-8.983296e-02	-9.736210e-02	-1.123206e-01	-1.284100e-01	-1.412897e-01	-1.488018e-01	-1.500801e-01	-1.452444e-01	-1.353649e-01	-1.214655e-01	-1.042950e-01	-8.529790e-02	-6.687414e-02	-5.113403e-02	-3.858177e-02	-2.842418e-02	-2.014746e-02	-1.365765e-02	-8.881144e-03	-5.305764e-03	-2.483624e-03	-7.900106e-05	1.965997e-03	3.715323e-03	5.123218e-03	6.202912e-03	6.877470e-03	7.133881e-03	6.918711e-03	6.242125e-03	5.110719e-03	3.576296e-03	1.701221e-03	-4.274025e-04	-2.717247e-03	-5.061446e-03	-7.340191e-03	-9.451763e-03	-1.126666e-02	-1.268727e-02	-1.360031e-02	-1.391567e-02	-1.352984e-02	-1.236937e-02	-1.035602e-02	-7.422423e-03	-3.486068e-03	1.566080e-03	7.810997e-03	1.519754e-02	2.360207e-02	3.287765e-02	4.342063e-02	5.568023e-02	7.021061e-02	8.788000e-02	1.087199e-01	1.305089e-01	1.495527e-01	1.640182e-01	1.763591e-01	1.911815e-01	2.106228e-01	2.324562e-01	2.533082e-01	2.723779e-01	2.908493e-01	3.094443e-01	3.277859e-01	3.453521e-01	3.619997e-01	3.775974e-01	3.918575e-01	4.043300e-01	4.139771e-01	4.193100e-01	4.168675e-01	4.002073e-01	3.588914e-01	2.717429e-01	1.314673e-01	-2.264450e-02	-1.128647e-01	-2.144128e-01	-3.944721e-01	-5.226966e-01	-5.482783e-01	-5.242414e-01	-4.833343e-01	-4.400813e-01	-4.006462e-01	-3.664805e-01	-3.368172e-01	-3.105390e-01	-2.869968e-01	-2.669201e-01	-2.509744e-01	-2.370097e-01	-2.202946e-01	-1.981952e-01	-1.746182e-01	-1.579838e-01	-1.534872e-01	-1.578856e-01	-1.621737e-01	-1.589707e-01	-1.471577e-01	-1.304432e-01	-1.132272e-01	-9.782695e-02	-8.444823e-02	-7.256782e-02	-6.180967e-02	-5.204535e-02	-4.325156e-02	-3.530104e-02	-2.804676e-02	-2.136411e-02	-1.510887e-02	-9.247139e-03	-3.716504e-03	1.521197e-03	6.603659e-03	1.166870e-02	1.675338e-02	2.178602e-02	2.657306e-02	3.107518e-02	3.593070e-02	4.106349e-02	4.632009e-02	5.160562e-02	5.689717e-02	6.221762e-02	6.767158e-02	7.321636e-02	7.885873e-02	8.452892e-02	9.017915e-02	9.582221e-02	1.012884e-01	1.065304e-01	1.113850e-01	1.156980e-01	1.194204e-01	1.223318e-01	1.245025e-01	1.257819e-01	1.263643e-01	1.262228e-01	1.256849e-01	1.248182e-01	1.240066e-01	1.233281e-01	1.231312e-01	1.234137e-01	1.244199e-01	1.260160e-01	1.283167e-01	1.311361e-01	1.342156e-01	1.370328e-01	1.385451e-01	1.372857e-01	1.316049e-01	1.201295e-01	1.024145e-01	7.910785e-02	5.205302e-02	2.404202e-02	-1.225466e-03	-1.936851e-02	-2.596958e-02	-1.793468e-02	3.733403e-03	3.150219e-02	5.546082e-02	7.051192e-02	7.499683e-02	7.058196e-02	1.042436e-01	5.278371e-02	-1.232654e+00	
SCALARS Conservative_4 float 1
LOOKUP_TABLE default
1.590082e-01	-6.120819e-03	-1.717848e-02	-2.497520e-02	-3.372557e-02	-3.738651e-02	-3.741495e-02	-3.288532e-02	-2.278290e-02	-6.042594e-03	1.788371e-02	4.878137e-02	8.378931e-02	1.109133e-01	1.111186e-01	8.265963e-02	5.046914e-02	3.215655e-02	2.469427e-02	2.276322e-02	2.518812e-02	3.147594e-02	4.062798e-02	5.156146e-02	6.337903e-02	7.555132e-02	8.764744e-02	9.831505e-02	1.047674e-01	1.042125e-01	9.663704e-02	8.565195e-02	7.556167e-02	6.820774e-02	6.296484e-02	5.872309e-02	5.493563e-02	5.157023e-02	4.864428e-02	4.606883e-02	4.370572e-02	4.147249e-02	3.933839e-02	3.730647e-02	3.539115e-02	3.362437e-02	3.204411e-02	3.069671e-02	2.962067e-02	2.885629e-02	2.843272e-02	2.837598e-02	2.870049e-02	2.941821e-02	3.053314e-02	3.204757e-02	3.395264e-02	3.624454e-02	3.890721e-02	4.193067e-02	4.529426e-02	4.898480e-02	5.298960e-02	5.730147e-02	6.183197e-02	6.639940e-02	7.079561e-02	7.502564e-02	7.942891e-02	8.464123e-02	9.143038e-02	1.007227e-01	1.125305e-01	1.241834e-01	1.303010e-01	1.263919e-01	1.132287e-01	9.698753e-02	8.425775e-02	7.677865e-02	7.149235e-02	6.499856e-02	5.666021e-02	4.757322e-02	3.842956e-02	2.910567e-02	1.940955e-02	9.361291e-03	-1.010814e-03	-1.174640e-02	-2.284436e-02	-3.449454e-02	-4.668879e-02	-5.964984e-02	-7.329256e-02	-8.718111e-02	-1.006259e-01	-1.091890e-01	-1.090738e-01	-1.072994e-01	-1.026879e-01	-7.882082e-02	-4.829928e-02	-2.320192e-02	-4.226046e-03	9.103588e-03	1.857791e-02	2.570154e-02	3.158628e-02	3.659779e-02	4.093598e-02	4.478495e-02	4.916180e-02	5.491214e-02	6.074847e-02	6.297903e-02	5.909364e-02	5.240235e-02	5.175120e-02	6.468972e-02	9.030585e-02	1.190971e-01	1.399423e-01	1.474167e-01	1.433646e-01	1.332778e-01	1.218663e-01	1.113102e-01	1.019073e-01	9.345728e-02	8.588486e-02	7.926401e-02	7.362233e-02	6.887974e-02	6.490252e-02	6.155480e-02	5.874826e-02	5.644597e-02	5.459336e-02	5.307296e-02	5.174234e-02	5.062563e-02	4.990037e-02	4.969848e-02	4.995034e-02	5.009428e-02	4.986506e-02	4.914125e-02	4.797440e-02	4.651614e-02	4.489298e-02	4.306930e-02	4.096671e-02	3.856051e-02	3.587927e-02	3.296318e-02	2.980235e-02	2.639405e-02	2.273096e-02	1.884907e-02	1.479242e-02	1.062157e-02	6.413854e-03	2.245957e-03	-1.794063e-03	-5.640269e-03	-9.221364e-03	-1.250149e-02	-1.546071e-02	-1.813008e-02	-2.054802e-02	-2.280393e-02	-2.497462e-02	-2.718714e-02	-2.952133e-02	-3.212922e-02	-3.513494e-02	-3.871012e-02	-4.301503e-02	-4.817207e-02	-5.411214e-02	-6.056019e-02	-6.697523e-02	-7.271854e-02	-7.715211e-02	-7.976684e-02	-8.018711e-02	-7.822840e-02	-7.401804e-02	-6.824550e-02	-6.271530e-02	-6.040786e-02	-6.351195e-02	-7.178947e-02	-8.374134e-02	-1.000219e-01	-1.128174e-01	-1.316506e-01	-3.145927e-01	-8.182535e-02	
SCALARS Surface_Sensitivity float 1
LOOKUP_TABLE default
-1.846758e+03	5.850353e+02	2.445029e+01	1.767297e+01	1.269613e+01	6.521000e+00	4.651513e+00	3.718195e+00	3.050707e+00	2.504683e+00	6.073851e+00	9.298482e+00	-2.664405e+00	-1.417256e+01	-5.375734e+00	5.889812e+00	5.609066e+00	1.207176e+00	-9.722463e-02	3.276281e-01	4.430330e-01	2.076503e-01	-8.396297e-03	3.552899e-01	1.540430e+00	1.971253e+00	6.287671e-02	-2.518867e+00	-3.054650e+00	-1.229467e+00	9.527692e-01	1.698856e+00	1.101770e+00	2.955054e-01	-4.898217e-02	-1.542235e-02	8.365097e-02	9.927027e-02	6.854639e-02	4.364189e-02	4.006002e-02	3.991681e-02	4.025312e-02	3.849861e-02	3.896649e-02	3.863884e-02	3.843164e-02	3.645509e-02	3.469710e-02	3.248493e-02	3.109886e-02	2.931759e-02	2.813546e-02	2.719708e-02	2.738113e-02	3.101279e-02	3.623275e-02	3.799663e-02	2.716962e-02	1.475188e-02	4.314620e-02	1.381174e-01	1.718956e-01	-7.801924e-02	-5.254039e-01	-4.598456e-01	1.023266e+00	3.768888e+00	5.293931e+00	3.099851e+00	-1.658162e+00	-6.307658e+00	-9.003186e+00	-8.275572e+00	-3.791085e+00	2.364544e+00	6.431177e+00	6.038910e+00	2.454651e+00	-7.891274e-01	-1.512299e+00	-5.271105e-01	2.803812e-01	3.043348e-01	8.385934e-02	5.010083e-02	1.437329e-01	2.204601e-01	3.081682e-01	4.965733e-01	7.947741e-01	1.298823e+00	2.283114e+00	3.840120e+00	6.033462e+00	8.864219e+00	7.108844e+00	1.762853e+01	1.223526e+01	-1.118158e+01	3.807758e+01	4.228598e+01	2.624779e+01	1.537719e+01	6.149587e+00	3.022792e+00	1.763664e+00	9.125535e-01	4.350446e-01	1.193180e-02	-3.701286e-01	-7.849533e-02	1.247732e+00	2.226116e+00	5.251727e-01	-4.131011e+00	-8.077630e+00	-6.323828e+00	2.153578e+00	1.253427e+01	1.803233e+01	1.554014e+01	7.493947e+00	-1.020762e+00	-6.399486e+00	-8.163682e+00	-7.814580e+00	-6.868276e+00	-5.996362e+00	-5.214354e+00	-4.443972e+00	-3.691942e+00	-3.027784e+00	-2.485614e+00	-2.058047e+00	-1.699029e+00	-1.344962e+00	-1.011753e+00	-8.863289e-01	-1.192679e+00	-1.574403e+00	-4.072793e-01	4.322402e+00	1.082429e+01	1.064379e+01	3.990748e+00	-1.305809e+00	-2.788501e+00	-1.988967e+00	-8.480844e-01	-2.386826e-01	-1.340086e-01	-1.896024e-01	-1.794057e-01	-1.062341e-01	-5.543171e-02	-5.651460e-02	-6.783998e-02	-6.828224e-02	-5.816784e-02	-4.868528e-02	-4.911637e-02	-4.884229e-02	-5.418133e-02	-5.477745e-02	-5.806406e-02	-5.423329e-02	-5.539876e-02	-5.178670e-02	-5.717867e-02	-6.045494e-02	-7.294739e-02	-8.324174e-02	-1.011562e-01	-1.152905e-01	-1.409267e-01	-1.768274e-01	-2.319063e-01	-3.062040e-01	-3.870309e-01	-4.518526e-01	-4.890128e-01	-4.725790e-01	-4.101436e-01	-3.110826e-01	-1.978333e-01	-7.804333e-02	8.224641e-03	1.820405e-02	-2.387375e-01	-1.518318e+00	-4.439992e+00	-7.812503e+00	-1.097872e+01	-1.879324e+01	-2.249451e+01	-3.938128e+01	-7.215292e+02	1.790797e+03	4.068390e+02	