TITLE = "Visualization of the volumetric solution"
VARIABLES = "x""y""Conservative_1""Conservative_2""Conservative_3""Conservative_4""Pressure""Temperature""C<sub>p</sub>""Mach"
ZONE NODES= 5233, ELEMENTS= 10216, DATAPACKING=POINT, ZONETYPE=FEQUADRILATERAL
9.997500e-01	-3.633236e-05	1.199683e+00	7.198545e-01	1.010323e-01	3.446047e+00	1.290329e+00	1.075558e+00	6.480564e-01	4.937794e-01	
9.990000e-01	-1.454683e-04	1.181374e+00	7.463336e-01	1.067001e-01	3.400227e+00	1.263864e+00	1.069825e+00	5.889819e-01	5.214572e-01	
9.977600e-01	-3.274631e-04	1.170847e+00	7.645641e-01	1.128751e-01	3.374685e+00	1.247845e+00	1.065763e+00	5.532264e-01	5.403826e-01	
9.960200e-01	-5.896882e-04	1.164291e+00	7.755386e-01	1.197036e-01	3.358875e+00	1.237771e+00	1.063111e+00	5.307384e-01	5.524603e-01	
9.937800e-01	-9.462311e-04	1.159603e+00	7.816085e-01	1.299798e-01	3.347440e+00	1.230696e+00	1.061309e+00	5.149473e-01	5.605558e-01	
9.910500e-01	-1.419707e-03	1.155044e+00	7.865416e-01	1.443726e-01	3.336335e+00	1.223804e+00	1.059530e+00	4.995624e-01	5.684575e-01	
9.878400e-01	-2.040081e-03	1.148111e+00	7.924612e-01	1.625447e-01	3.319119e+00	1.213649e+00	1.057083e+00	4.768955e-01	5.791942e-01	
9.841300e-01	-2.842997e-03	1.137210e+00	8.021642e-01	1.826118e-01	3.291973e+00	1.197758e+00	1.053243e+00	4.414252e-01	5.957523e-01	
9.799500e-01	-3.840381e-03	1.121128e+00	8.171076e-01	2.014673e-01	3.251846e+00	1.174392e+00	1.047509e+00	3.892668e-01	6.198640e-01	
9.752800e-01	-5.029370e-03	1.099963e+00	8.373377e-01	2.152473e-01	3.198989e+00	1.143688e+00	1.039752e+00	3.207325e-01	6.514616e-01	
9.701500e-01	-6.363782e-03	1.074953e+00	8.611540e-01	2.208262e-01	3.136419e+00	1.107519e+00	1.030295e+00	2.399985e-01	6.886133e-01	
9.645400e-01	-7.786109e-03	1.048697e+00	8.852752e-01	2.166658e-01	3.070497e+00	1.069782e+00	1.020106e+00	1.557631e-01	7.272337e-01	
9.584700e-01	-9.222216e-03	1.025501e+00	9.061287e-01	2.037462e-01	3.012090e+00	1.036609e+00	1.010832e+00	8.171731e-02	7.613083e-01	
9.519400e-01	-1.061768e-02	1.009247e+00	9.213827e-01	1.858148e-01	2.971147e+00	1.013383e+00	1.004098e+00	2.987256e-02	7.855017e-01	
9.449600e-01	-1.194505e-02	1.001010e+00	9.304649e-01	1.675151e-01	2.950425e+00	1.001585e+00	1.000574e+00	3.537932e-03	7.979935e-01	
9.375400e-01	-1.320869e-02	9.989661e-01	9.343650e-01	1.524479e-01	2.945272e+00	9.986676e-01	9.997012e-01	-2.974009e-03	8.010720e-01	
9.296900e-01	-1.443551e-02	1.000026e+00	9.351109e-01	1.422190e-01	2.947893e+00	1.000230e+00	1.000204e+00	5.139956e-04	7.992986e-01	
9.214000e-01	-1.566326e-02	1.001410e+00	9.347646e-01	1.365878e-01	2.951303e+00	1.002284e+00	1.000873e+00	5.098938e-03	7.969377e-01	
9.127000e-01	-1.691881e-02	1.001403e+00	9.347622e-01	1.342226e-01	2.951192e+00	1.002367e+00	1.000963e+00	5.284461e-03	7.966195e-01	
9.035800e-01	-1.822293e-02	9.994145e-01	9.357066e-01	1.335167e-01	2.946064e+00	9.996462e-01	1.000232e+00	-7.898193e-04	7.992020e-01	
8.940600e-01	-1.957925e-02	9.956599e-01	9.376507e-01	1.331934e-01	2.936467e+00	9.944192e-01	9.987539e-01	-1.245718e-02	8.044051e-01	
8.841500e-01	-2.098326e-02	9.906847e-01	9.402977e-01	1.324989e-01	2.923774e+00	9.874707e-01	9.967558e-01	-2.796714e-02	8.114111e-01	
8.738500e-01	-2.242690e-02	9.850634e-01	9.432768e-01	1.311497e-01	2.909426e+00	9.796256e-01	9.944797e-01	-4.547865e-02	8.193522e-01	
8.631800e-01	-2.389821e-02	9.792594e-01	9.463016e-01	1.291713e-01	2.894597e+00	9.715404e-01	9.921175e-01	-6.352596e-02	8.275515e-01	
8.521600e-01	-2.538663e-02	9.735458e-01	9.491862e-01	1.267278e-01	2.879976e+00	9.636039e-01	9.897879e-01	-8.124122e-02	8.355964e-01	
8.407700e-01	-2.688904e-02	9.680333e-01	9.518650e-01	1.240149e-01	2.865848e+00	9.559683e-01	9.875366e-01	-9.828493e-02	8.433337e-01	
8.290500e-01	-2.839621e-02	9.627149e-01	9.543320e-01	1.211642e-01	2.852195e+00	9.486238e-01	9.853632e-01	-1.146789e-01	8.507696e-01	
8.170100e-01	-2.990431e-02	9.575463e-01	9.566279e-01	1.182642e-01	2.838912e+00	9.415014e-01	9.832438e-01	-1.305772e-01	8.579902e-01	
8.046400e-01	-3.141249e-02	9.524649e-01	9.587629e-01	1.153412e-01	2.825833e+00	9.345190e-01	9.811586e-01	-1.461628e-01	8.650652e-01	
7.919700e-01	-3.291510e-02	9.474398e-01	9.607686e-01	1.123840e-01	2.812883e+00	9.276300e-01	9.790912e-01	-1.615402e-01	8.720524e-01	
7.790100e-01	-3.440891e-02	9.424555e-01	9.626797e-01	1.093822e-01	2.800029e+00	9.208052e-01	9.770278e-01	-1.767741e-01	8.790001e-01	
7.657800e-01	-3.588932e-02	9.374693e-01	9.644887e-01	1.063161e-01	2.787156e+00	9.139934e-01	9.749583e-01	-1.919790e-01	8.859428e-01	
7.522800e-01	-3.735380e-02	9.324473e-01	9.662094e-01	1.031745e-01	2.774174e+00	9.071477e-01	9.728675e-01	-2.072596e-01	8.929315e-01	
7.385200e-01	-3.879854e-02	9.274050e-01	9.678404e-01	9.995041e-02	2.761126e+00	9.002884e-01	9.707608e-01	-2.225705e-01	8.999488e-01	
7.245300e-01	-4.021770e-02	9.223912e-01	9.693695e-01	9.662991e-02	2.748138e+00	8.934825e-01	9.686589e-01	-2.377623e-01	9.069260e-01	
7.103200e-01	-4.160768e-02	9.174519e-01	9.707844e-01	9.322750e-02	2.735327e+00	8.867928e-01	9.665823e-01	-2.526946e-01	9.137965e-01	
6.958900e-01	-4.296595e-02	9.126052e-01	9.721002e-01	8.973923e-02	2.722746e+00	8.802389e-01	9.645341e-01	-2.673240e-01	9.205512e-01	
6.812700e-01	-4.428733e-02	9.078539e-01	9.732971e-01	8.618280e-02	2.710396e+00	8.738306e-01	9.625234e-01	-2.816281e-01	9.271622e-01	
6.664700e-01	-4.556881e-02	9.032088e-01	9.743858e-01	8.256417e-02	2.698308e+00	8.675794e-01	9.605525e-01	-2.955817e-01	9.336235e-01	
6.515000e-01	-4.680760e-02	8.986846e-01	9.753810e-01	7.889429e-02	2.686526e+00	8.615005e-01	9.586238e-01	-3.091507e-01	9.399287e-01	
6.363800e-01	-4.800038e-02	8.942807e-01	9.762639e-01	7.518595e-02	2.675040e+00	8.555993e-01	9.567458e-01	-3.223231e-01	9.460525e-01	
6.211300e-01	-4.914420e-02	8.900058e-01	9.770687e-01	7.144486e-02	2.663885e+00	8.498773e-01	9.549120e-01	-3.350954e-01	9.520165e-01	
6.057600e-01	-5.023714e-02	8.858412e-01	9.777695e-01	6.768933e-02	2.653002e+00	8.443187e-01	9.531264e-01	-3.475029e-01	9.578103e-01	
5.902800e-01	-5.127751e-02	8.818013e-01	9.784023e-01	6.391997e-02	2.642439e+00	8.389317e-01	9.513840e-01	-3.595275e-01	9.634510e-01	
5.747100e-01	-5.226319e-02	8.779010e-01	9.789347e-01	6.014408e-02	2.632225e+00	8.337468e-01	9.497048e-01	-3.711009e-01	9.688755e-01	
5.590600e-01	-5.319291e-02	8.741927e-01	9.794059e-01	5.635170e-02	2.622510e+00	8.288212e-01	9.480990e-01	-3.820954e-01	9.740525e-01	
5.433600e-01	-5.406449e-02	8.706680e-01	9.797939e-01	5.254622e-02	2.613264e+00	8.241520e-01	9.465743e-01	-3.925178e-01	9.789588e-01	
5.276100e-01	-5.487763e-02	8.672619e-01	9.801500e-01	4.873945e-02	2.604331e+00	8.196379e-01	9.450870e-01	-4.025939e-01	9.837362e-01	
5.118400e-01	-5.563057e-02	8.638246e-01	9.804432e-01	4.495667e-02	2.595305e+00	8.150930e-01	9.435862e-01	-4.127388e-01	9.885488e-01	
4.960500e-01	-5.632314e-02	8.603496e-01	9.807105e-01	4.120223e-02	2.586182e+00	8.104964e-01	9.420547e-01	-4.229991e-01	9.934516e-01	
4.802700e-01	-5.695387e-02	8.570571e-01	9.808909e-01	3.743720e-02	2.577522e+00	8.061581e-01	9.406120e-01	-4.326827e-01	9.980626e-01	
4.645100e-01	-5.752225e-02	8.543220e-01	9.810097e-01	3.360074e-02	2.570316e+00	8.025654e-01	9.394179e-01	-4.407023e-01	1.001873e+00	
4.487800e-01	-5.802770e-02	8.522556e-01	9.810541e-01	2.966748e-02	2.564853e+00	7.998710e-01	9.385341e-01	-4.467165e-01	1.004691e+00	
4.331100e-01	-5.846902e-02	8.505207e-01	9.810864e-01	2.562640e-02	2.560263e+00	7.976114e-01	9.377920e-01	-4.517602e-01	1.007055e+00	
4.175000e-01	-5.884587e-02	8.483608e-01	9.811321e-01	2.152097e-02	2.554566e+00	7.947807e-01	9.368428e-01	-4.580788e-01	1.010076e+00	
4.019700e-01	-5.915726e-02	8.449535e-01	9.812208e-01	1.740836e-02	2.545614e+00	7.902809e-01	9.352952e-01	-4.681230e-01	1.014995e+00	
3.865400e-01	-5.940221e-02	8.398184e-01	9.812622e-01	1.333868e-02	2.532121e+00	7.835003e-01	9.329402e-01	-4.832582e-01	1.022466e+00	
3.712300e-01	-5.957977e-02	8.332556e-01	9.811556e-01	9.281097e-03	2.514852e+00	7.748588e-01	9.299173e-01	-5.025473e-01	1.032031e+00	
3.560400e-01	-5.968906e-02	8.263718e-01	9.807736e-01	5.095057e-03	2.496675e+00	7.658589e-01	9.267727e-01	-5.226364e-01	1.041954e+00	
3.409900e-01	-5.972889e-02	8.205214e-01	9.802386e-01	6.513327e-04	2.481175e+00	7.582610e-01	9.241209e-01	-5.395961e-01	1.050300e+00	
3.261100e-01	-5.969811e-02	8.165040e-01	9.797307e-01	-4.066392e-03	2.470498e+00	7.530776e-01	9.223195e-01	-5.511662e-01	1.055960e+00	
3.114000e-01	-5.959556e-02	8.143657e-01	9.793407e-01	-9.024610e-03	2.464786e+00	7.503472e-01	9.213885e-01	-5.572606e-01	1.058881e+00	
2.968700e-01	-5.941987e-02	8.137291e-01	9.791253e-01	-1.421100e-02	2.463070e+00	7.495504e-01	9.211301e-01	-5.590393e-01	1.059692e+00	
2.825500e-01	-5.916995e-02	8.141253e-01	9.790071e-01	-1.961683e-02	2.464097e+00	7.500878e-01	9.213419e-01	-5.578398e-01	1.059028e+00	
2.684500e-01	-5.884455e-02	8.152511e-01	9.789809e-01	-2.528337e-02	2.467074e+00	7.515543e-01	9.218686e-01	-5.545662e-01	1.057375e+00	
2.545700e-01	-5.844203e-02	8.169277e-01	9.789565e-01	-3.123946e-02	2.471508e+00	7.537400e-01	9.226520e-01	-5.496876e-01	1.054916e+00	
2.409400e-01	-5.796159e-02	8.191230e-01	9.789566e-01	-3.754055e-02	2.477325e+00	7.565902e-01	9.236589e-01	-5.433254e-01	1.051753e+00	
2.275700e-01	-5.740202e-02	8.217645e-01	9.789110e-01	-4.420274e-02	2.484315e+00	7.600287e-01	9.248742e-01	-5.356502e-01	1.047931e+00	
2.144700e-01	-5.676212e-02	8.247707e-01	9.788326e-01	-5.125863e-02	2.492274e+00	7.639382e-01	9.262431e-01	-5.269238e-01	1.043622e+00	
2.016600e-01	-5.604130e-02	8.280284e-01	9.786553e-01	-5.872703e-02	2.500888e+00	7.681857e-01	9.277287e-01	-5.174426e-01	1.038940e+00	
1.891400e-01	-5.523801e-02	8.315478e-01	9.783913e-01	-6.665217e-02	2.510193e+00	7.727756e-01	9.293219e-01	-5.071974e-01	1.033912e+00	
1.769300e-01	-5.435194e-02	8.354802e-01	9.779858e-01	-7.509555e-02	2.520574e+00	7.779200e-01	9.311052e-01	-4.957143e-01	1.028276e+00	
1.650400e-01	-5.338240e-02	8.400664e-01	9.774384e-01	-8.412602e-02	2.532671e+00	7.839288e-01	9.331748e-01	-4.823019e-01	1.021722e+00	
1.534900e-01	-5.232974e-02	8.453806e-01	9.766688e-01	-9.377561e-02	2.546665e+00	7.909161e-01	9.355741e-01	-4.667051e-01	1.014109e+00	
1.422900e-01	-5.119386e-02	8.513554e-01	9.756637e-01	-1.040864e-01	2.562385e+00	7.987844e-01	9.382502e-01	-4.491420e-01	1.005596e+00	
1.314400e-01	-4.997362e-02	8.578463e-01	9.742841e-01	-1.151075e-01	2.579421e+00	8.073742e-01	9.411642e-01	-4.299683e-01	9.962986e-01	
1.209500e-01	-4.866895e-02	8.649110e-01	9.725499e-01	-1.269471e-01	2.597951e+00	8.167368e-01	9.443015e-01	-4.090696e-01	9.862561e-01	
1.108500e-01	-4.728282e-02	8.727208e-01	9.703657e-01	-1.396688e-01	2.618413e+00	8.271076e-01	9.477345e-01	-3.859205e-01	9.752263e-01	
1.011300e-01	-4.581320e-02	8.813322e-01	9.675047e-01	-1.533471e-01	2.640911e+00	8.386075e-01	9.515226e-01	-3.602510e-01	9.630028e-01	
9.181000e-02	-4.426237e-02	8.907834e-01	9.638110e-01	-1.681024e-01	2.665530e+00	8.513022e-01	9.556781e-01	-3.319146e-01	9.495266e-01	
8.290000e-02	-4.263164e-02	9.011851e-01	9.591963e-01	-1.840506e-01	2.692575e+00	8.653237e-01	9.602064e-01	-3.006168e-01	9.347564e-01	
7.440000e-02	-4.092051e-02	9.125944e-01	9.533732e-01	-2.013010e-01	2.722155e+00	8.807867e-01	9.651459e-01	-2.661011e-01	9.185358e-01	
6.633000e-02	-3.913269e-02	9.251590e-01	9.460811e-01	-2.200059e-01	2.754648e+00	8.979001e-01	9.705360e-01	-2.279015e-01	9.006961e-01	
5.869000e-02	-3.726804e-02	9.389943e-01	9.369104e-01	-2.402977e-01	2.790311e+00	9.168591e-01	9.764267e-01	-1.855823e-01	8.810191e-01	
5.149000e-02	-3.532871e-02	9.542858e-01	9.253540e-01	-2.622944e-01	2.829586e+00	9.379555e-01	9.828874e-01	-1.384921e-01	8.592012e-01	
4.474000e-02	-3.331736e-02	9.713050e-01	9.106929e-01	-2.861141e-01	2.873115e+00	9.616176e-01	9.900264e-01	-8.567498e-02	8.347747e-01	
3.844000e-02	-3.123381e-02	9.902760e-01	8.920103e-01	-3.118308e-01	2.921406e+00	9.882248e-01	9.979286e-01	-2.628403e-02	8.073028e-01	
3.260000e-02	-2.908101e-02	1.011553e+00	8.682483e-01	-3.393976e-01	2.975327e+00	1.018307e+00	1.006676e+00	4.086374e-02	7.762893e-01	
2.723000e-02	-2.686271e-02	1.035617e+00	8.378538e-01	-3.684445e-01	3.036019e+00	1.052620e+00	1.016418e+00	1.174554e-01	7.408970e-01	
2.232000e-02	-2.457398e-02	1.062783e+00	7.986991e-01	-3.982717e-01	3.104135e+00	1.091757e+00	1.027262e+00	2.048143e-01	7.002524e-01	
1.790000e-02	-2.222878e-02	1.093586e+00	7.483145e-01	-4.274521e-01	3.180949e+00	1.136553e+00	1.039290e+00	3.048057e-01	6.533087e-01	
1.395000e-02	-1.981632e-02	1.128509e+00	6.836506e-01	-4.529572e-01	3.267549e+00	1.187827e+00	1.052564e+00	4.192571e-01	5.986441e-01	
1.049000e-02	-1.734775e-02	1.167434e+00	6.010077e-01	-4.698099e-01	3.363391e+00	1.245662e+00	1.067009e+00	5.483536e-01	5.346329e-01	
7.520000e-03	-1.482383e-02	1.209946e+00	4.980755e-01	-4.696816e-01	3.467403e+00	1.309490e+00	1.082271e+00	6.908260e-01	4.596636e-01	
5.040000e-03	-1.224447e-02	1.254377e+00	3.746469e-01	-4.396692e-01	3.575362e+00	1.376944e+00	1.097712e+00	8.413931e-01	3.714685e-01	
3.050000e-03	-9.607776e-03	1.297800e+00	2.382695e-01	-3.641466e-01	3.680660e+00	1.443080e+00	1.111944e+00	9.890181e-01	2.687499e-01	
1.560000e-03	-6.928198e-03	1.331602e+00	1.084468e-01	-2.310052e-01	3.762126e+00	1.495069e+00	1.122759e+00	1.105065e+00	1.528583e-01	
5.600000e-04	-4.183620e-03	1.350907e+00	1.103734e-02	-3.847627e-02	3.809749e+00	1.523662e+00	1.127881e+00	1.168889e+00	2.357998e-02	
6.000000e-05	-1.378924e-03	1.339526e+00	-2.166145e-02	1.857978e-01	3.781217e+00	1.507262e+00	1.125220e+00	1.132282e+00	1.112598e-01	
0.000000e+00	0.000000e+00	1.308166e+00	5.238073e-03	3.523129e-01	3.702608e+00	1.462062e+00	1.117642e+00	1.031388e+00	2.153268e-01	
6.000000e-05	1.261442e-03	1.284033e+00	7.333605e-02	4.972257e-01	3.649098e+00	1.420293e+00	1.106118e+00	9.381532e-01	3.145470e-01	
5.600000e-04	3.615993e-03	1.220568e+00	2.113896e-01	6.620280e-01	3.498547e+00	1.320281e+00	1.081694e+00	7.149127e-01	4.626797e-01	
1.560000e-03	5.773150e-03	1.098608e+00	4.148588e-01	7.238324e-01	3.188602e+00	1.148727e+00	1.045621e+00	3.319807e-01	6.276587e-01	
3.050000e-03	7.785458e-03	1.001118e+00	5.914685e-01	6.878949e-01	2.940613e+00	1.011822e+00	1.010692e+00	2.638895e-02	7.618162e-01	
5.040000e-03	9.698082e-03	9.253189e-01	7.161170e-01	6.104373e-01	2.746117e+00	9.070624e-01	9.802700e-01	-2.074500e-01	8.680715e-01	
7.520000e-03	1.151877e-02	8.698540e-01	7.973863e-01	5.268281e-01	2.603006e+00	8.311964e-01	9.555585e-01	-3.767939e-01	9.499156e-01	
1.049000e-02	1.326237e-02	8.320313e-01	8.487557e-01	4.525427e-01	2.505192e+00	7.796857e-01	9.370870e-01	-4.917729e-01	1.009299e+00	
1.395000e-02	1.493920e-02	8.070634e-01	8.815269e-01	3.909472e-01	2.440537e+00	7.457670e-01	9.240501e-01	-5.674845e-01	1.050523e+00	
1.790000e-02	1.655695e-02	7.901708e-01	9.026999e-01	3.408659e-01	2.396622e+00	7.229892e-01	9.149784e-01	-6.183277e-01	1.078941e+00	
2.232000e-02	1.811502e-02	7.786389e-01	9.169553e-01	2.998980e-01	2.366538e+00	7.075452e-01	9.086949e-01	-6.528009e-01	1.098516e+00	
2.723000e-02	1.962631e-02	7.707901e-01	9.269280e-01	2.663162e-01	2.346027e+00	6.970688e-01	9.043563e-01	-6.761856e-01	1.111987e+00	
3.260000e-02	2.108646e-02	7.654679e-01	9.340290e-01	2.383474e-01	2.332049e+00	6.900348e-01	9.014549e-01	-6.918866e-01	1.120976e+00	
3.844000e-02	2.250298e-02	7.621248e-01	9.394313e-01	2.148286e-01	2.323281e+00	6.856037e-01	8.995951e-01	-7.017774e-01	1.126730e+00	
4.474000e-02	2.387702e-02	7.600308e-01	9.436384e-01	1.948166e-01	2.317804e+00	6.828140e-01	8.984030e-01	-7.080045e-01	1.130416e+00	
5.149000e-02	2.520982e-02	7.588169e-01	9.469965e-01	1.775824e-01	2.314647e+00	6.811784e-01	8.976849e-01	-7.116553e-01	1.132635e+00	
5.869000e-02	2.650424e-02	7.584869e-01	9.498647e-01	1.626165e-01	2.313858e+00	6.806644e-01	8.973977e-01	-7.128027e-01	1.133522e+00	
6.633000e-02	2.776090e-02	7.589234e-01	9.523090e-01	1.495385e-01	2.315095e+00	6.811506e-01	8.975223e-01	-7.117174e-01	1.133138e+00	
7.440000e-02	2.898041e-02	7.599010e-01	9.544178e-01	1.380008e-01	2.317759e+00	6.823462e-01	8.979409e-01	-7.090487e-01	1.131844e+00	
8.290000e-02	3.016463e-02	7.611058e-01	9.562887e-01	1.277530e-01	2.321040e+00	6.838222e-01	8.984588e-01	-7.057541e-01	1.130244e+00	
9.181000e-02	3.131245e-02	7.622045e-01	9.578955e-01	1.185268e-01	2.324037e+00	6.851628e-01	8.989225e-01	-7.027617e-01	1.128810e+00	
1.011300e-01	3.242539e-02	7.631972e-01	9.593200e-01	1.101202e-01	2.326761e+00	6.863582e-01	8.993196e-01	-7.000932e-01	1.127582e+00	
1.108500e-01	3.350349e-02	7.644088e-01	9.606837e-01	1.024636e-01	2.330086e+00	6.878164e-01	8.998018e-01	-6.968384e-01	1.126091e+00	
1.209500e-01	3.454571e-02	7.661204e-01	9.620107e-01	9.551139e-02	2.334742e+00	6.899177e-01	9.005343e-01	-6.921480e-01	1.123825e+00	
1.314400e-01	3.555400e-02	7.682095e-01	9.632157e-01	8.917583e-02	2.340373e+00	6.925344e-01	9.014915e-01	-6.863072e-01	1.120862e+00	
1.422900e-01	3.652624e-02	7.702844e-01	9.643003e-01	8.333270e-02	2.345957e+00	6.951428e-01	9.024495e-01	-6.804847e-01	1.117896e+00	
1.534900e-01	3.746233e-02	7.720978e-01	9.652531e-01	7.783160e-02	2.350839e+00	6.974203e-01	9.032797e-01	-6.754012e-01	1.115324e+00	
1.650400e-01	3.836281e-02	7.737259e-01	9.661289e-01	7.264205e-02	2.355233e+00	6.994537e-01	9.040071e-01	-6.708624e-01	1.113069e+00	
1.769300e-01	3.922720e-02	7.753108e-01	9.669349e-01	6.773821e-02	2.359508e+00	7.014356e-01	9.047153e-01	-6.664384e-01	1.110873e+00	
1.891400e-01	4.005428e-02	7.769643e-01	9.677184e-01	6.311152e-02	2.363970e+00	7.035017e-01	9.054492e-01	-6.618265e-01	1.108596e+00	
2.016600e-01	4.084349e-02	7.787766e-01	9.684823e-01	5.871432e-02	2.368851e+00	7.057754e-01	9.062617e-01	-6.567514e-01	1.106075e+00	
2.144700e-01	4.159357e-02	7.808252e-01	9.692609e-01	5.451421e-02	2.374365e+00	7.083503e-01	9.071817e-01	-6.510037e-01	1.103218e+00	
2.275700e-01	4.230436e-02	7.831162e-01	9.700391e-01	5.048178e-02	2.380519e+00	7.112410e-01	9.082189e-01	-6.445514e-01	1.099996e+00	
2.409400e-01	4.297439e-02	7.855934e-01	9.708154e-01	4.658175e-02	2.387167e+00	7.143727e-01	9.093416e-01	-6.375608e-01	1.096505e+00	
2.545700e-01	4.360265e-02	7.881666e-01	9.715616e-01	4.277946e-02	2.394064e+00	7.176351e-01	9.105119e-01	-6.302789e-01	1.092864e+00	
2.684500e-01	4.418796e-02	7.907794e-01	9.722817e-01	3.904379e-02	2.401063e+00	7.209510e-01	9.116968e-01	-6.228772e-01	1.089174e+00	
2.825500e-01	4.472824e-02	7.933873e-01	9.729721e-01	3.534840e-02	2.408047e+00	7.242628e-01	9.128741e-01	-6.154849e-01	1.085506e+00	
2.968700e-01	4.522248e-02	7.960445e-01	9.736744e-01	3.165047e-02	2.415172e+00	7.276289e-01	9.140556e-01	-6.079712e-01	1.081821e+00	
3.114000e-01	4.566907e-02	7.990442e-01	9.744505e-01	2.791137e-02	2.423222e+00	7.314215e-01	9.153705e-01	-5.995055e-01	1.077717e+00	
3.261100e-01	4.606570e-02	8.031238e-01	9.754014e-01	2.412238e-02	2.434158e+00	7.365916e-01	9.171582e-01	-5.879652e-01	1.072130e+00	
3.409900e-01	4.641058e-02	8.092094e-01	9.765108e-01	2.037021e-02	2.450399e+00	7.443770e-01	9.198817e-01	-5.705871e-01	1.063605e+00	
3.560400e-01	4.670190e-02	8.175120e-01	9.775844e-01	1.680707e-02	2.472446e+00	7.551093e-01	9.236675e-01	-5.466311e-01	1.051726e+00	
3.712300e-01	4.693714e-02	8.264120e-01	9.782350e-01	1.342349e-02	2.495947e+00	7.667453e-01	9.278003e-01	-5.206578e-01	1.038714e+00	
3.865400e-01	4.711396e-02	8.331265e-01	9.784293e-01	9.867543e-03	2.513600e+00	7.756017e-01	9.309531e-01	-5.008891e-01	1.028757e+00	
4.019700e-01	4.723018e-02	8.358874e-01	9.784029e-01	5.933303e-03	2.520824e+00	7.792777e-01	9.322760e-01	-4.926836e-01	1.024570e+00	
4.175000e-01	4.728324e-02	8.348525e-01	9.783090e-01	1.661077e-03	2.518071e+00	7.779445e-01	9.318347e-01	-4.956595e-01	1.025967e+00	
4.331100e-01	4.727067e-02	8.314778e-01	9.782253e-01	-2.811705e-03	2.509192e+00	7.735004e-01	9.302719e-01	-5.055794e-01	1.030911e+00	
4.487800e-01	4.719003e-02	8.275155e-01	9.781624e-01	-7.379476e-03	2.498792e+00	7.682569e-01	9.283897e-01	-5.172836e-01	1.036855e+00	
4.645100e-01	4.703881e-02	8.245136e-01	9.781986e-01	-1.200862e-02	2.490956e+00	7.642414e-01	9.268998e-01	-5.262468e-01	1.041553e+00	
4.802700e-01	4.681476e-02	8.237288e-01	9.783415e-01	-1.672521e-02	2.488973e+00	7.631263e-01	9.264290e-01	-5.287359e-01	1.043037e+00	
4.960500e-01	4.651560e-02	8.262119e-01	9.787097e-01	-2.151126e-02	2.495632e+00	7.662700e-01	9.274497e-01	-5.217188e-01	1.039820e+00	
5.118400e-01	4.613913e-02	8.321693e-01	9.791697e-01	-2.626694e-02	2.511440e+00	7.739826e-01	9.300783e-01	-5.045031e-01	1.031522e+00	
5.276100e-01	4.568388e-02	8.405984e-01	9.794713e-01	-3.100172e-02	2.533705e+00	7.849958e-01	9.338536e-01	-4.799202e-01	1.019570e+00	
5.433600e-01	4.514787e-02	8.495382e-01	9.793850e-01	-3.582915e-02	2.557224e+00	7.967717e-01	9.378879e-01	-4.536347e-01	1.006750e+00	
5.590600e-01	4.453039e-02	8.574313e-01	9.790467e-01	-4.098021e-02	2.577951e+00	8.072063e-01	9.414239e-01	-4.303430e-01	9.954685e-01	
5.747100e-01	4.383004e-02	8.640113e-01	9.786290e-01	-4.641644e-02	2.595232e+00	8.159037e-01	9.443206e-01	-4.109293e-01	9.861951e-01	
5.902800e-01	4.304713e-02	8.698982e-01	9.781591e-01	-5.198756e-02	2.610698e+00	8.236790e-01	9.468683e-01	-3.935736e-01	9.780133e-01	
6.057600e-01	4.218165e-02	8.758228e-01	9.775957e-01	-5.757440e-02	2.626259e+00	8.315079e-01	9.494019e-01	-3.760985e-01	9.698528e-01	
6.211300e-01	4.123473e-02	8.822389e-01	9.767983e-01	-6.313956e-02	2.643072e+00	8.400264e-01	9.521530e-01	-3.570840e-01	9.609632e-01	
6.363800e-01	4.020754e-02	8.893121e-01	9.757408e-01	-6.867217e-02	2.661570e+00	8.494536e-01	9.551805e-01	-3.360411e-01	9.511444e-01	
6.515000e-01	3.910184e-02	8.968966e-01	9.743725e-01	-7.416870e-02	2.681358e+00	8.596085e-01	9.584255e-01	-3.133739e-01	9.405763e-01	
6.664700e-01	3.792083e-02	9.048194e-01	9.727128e-01	-7.960434e-02	2.701991e+00	8.702556e-01	9.618003e-01	-2.896081e-01	9.295349e-01	
6.812700e-01	3.666860e-02	9.129854e-01	9.707464e-01	-8.495284e-02	2.723214e+00	8.812722e-01	9.652643e-01	-2.650175e-01	9.181456e-01	
6.958900e-01	3.534925e-02	9.213727e-01	9.684705e-01	-9.014218e-02	2.744970e+00	8.926291e-01	9.688035e-01	-2.396673e-01	9.064468e-01	
7.103200e-01	3.396757e-02	9.299721e-01	9.658696e-01	-9.513735e-02	2.767234e+00	9.043163e-01	9.724123e-01	-2.135796e-01	8.944498e-01	
7.245300e-01	3.253111e-02	9.387351e-01	9.629356e-01	-9.986985e-02	2.789874e+00	9.162725e-01	9.760715e-01	-1.868917e-01	8.822114e-01	
7.385200e-01	3.104530e-02	9.476382e-01	9.596673e-01	-1.043148e-01	2.812830e+00	9.284658e-01	9.797682e-01	-1.596746e-01	8.697674e-01	
7.522800e-01	2.951717e-02	9.566291e-01	9.560619e-01	-1.083993e-01	2.835963e+00	9.408295e-01	9.834841e-01	-1.320771e-01	8.571729e-01	
7.657800e-01	2.795671e-02	9.656907e-01	9.521604e-01	-1.120861e-01	2.859238e+00	9.533295e-01	9.871996e-01	-1.041753e-01	8.444890e-01	
7.790100e-01	2.637245e-02	9.747474e-01	9.478965e-01	-1.153186e-01	2.882435e+00	9.658884e-01	9.909116e-01	-7.614189e-02	8.317211e-01	
7.919700e-01	2.477218e-02	9.837988e-01	9.433820e-01	-1.180526e-01	2.905584e+00	9.784751e-01	9.945887e-01	-4.804654e-02	8.189730e-01	
8.046400e-01	2.316655e-02	9.927602e-01	9.386255e-01	-1.202478e-01	2.928457e+00	9.909814e-01	9.982082e-01	-2.013073e-02	8.063217e-01	
8.170100e-01	2.156533e-02	1.001549e+00	9.336458e-01	-1.218706e-01	2.950838e+00	1.003300e+00	1.001748e+00	7.366459e-03	7.938442e-01	
8.290500e-01	1.998102e-02	1.010103e+00	9.285588e-01	-1.229236e-01	2.972585e+00	1.015322e+00	1.005168e+00	3.420183e-02	7.816874e-01	
8.407700e-01	1.842049e-02	1.018337e+00	9.234210e-01	-1.234327e-01	2.993486e+00	1.026932e+00	1.008440e+00	6.011575e-02	7.699538e-01	
8.521600e-01	1.689231e-02	1.026207e+00	9.182851e-01	-1.234705e-01	3.013430e+00	1.038058e+00	1.011548e+00	8.495163e-02	7.587100e-01	
8.631800e-01	1.540741e-02	1.033693e+00	9.131782e-01	-1.231820e-01	3.032372e+00	1.048670e+00	1.014489e+00	1.086387e-01	7.479835e-01	
8.738500e-01	1.396640e-02	1.040841e+00	9.080450e-01	-1.227396e-01	3.050426e+00	1.058837e+00	1.017290e+00	1.313330e-01	7.376803e-01	
8.841500e-01	1.257266e-02	1.047830e+00	9.027664e-01	-1.223186e-01	3.068050e+00	1.068807e+00	1.020019e+00	1.535872e-01	7.275562e-01	
8.940600e-01	1.122759e-02	1.054917e+00	8.970550e-01	-1.219891e-01	3.085870e+00	1.078964e+00	1.022795e+00	1.762578e-01	7.171692e-01	
9.035800e-01	9.929656e-03	1.062484e+00	8.906224e-01	-1.215905e-01	3.104860e+00	1.089849e+00	1.025756e+00	2.005557e-01	7.059848e-01	
9.127000e-01	8.681684e-03	1.070823e+00	8.831398e-01	-1.206005e-01	3.125729e+00	1.101905e+00	1.029026e+00	2.274656e-01	6.935004e-01	
9.214000e-01	7.494583e-03	1.080029e+00	8.746018e-01	-1.181415e-01	3.148724e+00	1.115255e+00	1.032616e+00	2.572665e-01	6.796227e-01	
9.296900e-01	6.384646e-03	1.089726e+00	8.654269e-01	-1.131193e-01	3.172907e+00	1.129355e+00	1.036366e+00	2.887396e-01	6.649224e-01	
9.375400e-01	5.382395e-03	1.099066e+00	8.566768e-01	-1.046689e-01	3.196200e+00	1.142937e+00	1.039917e+00	3.190568e-01	6.507998e-01	
9.449600e-01	4.516403e-03	1.106820e+00	8.498605e-01	-9.260699e-02	3.215578e+00	1.154170e+00	1.042781e+00	3.441300e-01	6.392540e-01	
9.519400e-01	3.811157e-03	1.111675e+00	8.465116e-01	-7.784149e-02	3.227805e+00	1.161113e+00	1.044471e+00	3.596267e-01	6.323698e-01	
9.584700e-01	3.272716e-03	1.112566e+00	8.476162e-01	-6.249734e-02	3.230206e+00	1.162228e+00	1.044637e+00	3.621160e-01	6.316900e-01	
9.645400e-01	2.881381e-03	1.109145e+00	8.530740e-01	-4.960167e-02	3.221854e+00	1.157073e+00	1.043212e+00	3.506103e-01	6.375012e-01	
9.701500e-01	2.593239e-03	1.102176e+00	8.614474e-01	-4.232876e-02	3.204569e+00	1.146843e+00	1.040527e+00	3.277751e-01	6.483522e-01	
9.752800e-01	2.353712e-03	1.093791e+00	8.701193e-01	-4.282367e-02	3.183631e+00	1.134680e+00	1.037383e+00	3.006249e-01	6.609007e-01	
9.799500e-01	2.111553e-03	1.087007e+00	8.758562e-01	-5.116743e-02	3.166537e+00	1.124989e+00	1.034942e+00	2.789927e-01	6.705304e-01	
9.841300e-01	1.837706e-03	1.084719e+00	8.760795e-01	-6.516882e-02	3.160565e+00	1.121929e+00	1.034304e+00	2.721626e-01	6.730332e-01	
9.878400e-01	1.525342e-03	1.088709e+00	8.695093e-01	-8.111045e-02	3.170244e+00	1.128001e+00	1.036090e+00	2.857155e-01	6.660106e-01	
9.910500e-01	1.192594e-03	1.098863e+00	8.568596e-01	-9.535743e-02	3.195443e+00	1.142892e+00	1.040068e+00	3.189548e-01	6.501957e-01	
9.937800e-01	8.638869e-04	1.113285e+00	8.388231e-01	-1.052529e-01	3.231191e+00	1.164081e+00	1.045628e+00	3.662523e-01	6.276303e-01	
9.960200e-01	5.668656e-04	1.130278e+00	8.169042e-01	-1.098910e-01	3.273271e+00	1.189089e+00	1.052033e+00	4.220731e-01	6.008994e-01	
9.977600e-01	3.232326e-04	1.148590e+00	7.907724e-01	-1.102935e-01	3.318329e+00	1.216328e+00	1.058975e+00	4.828756e-01	5.709043e-01	
9.990000e-01	1.450824e-04	1.168635e+00	7.593754e-01	-1.061843e-01	3.367437e+00	1.246357e+00	1.066507e+00	5.499048e-01	5.369535e-01	
9.997500e-01	3.632625e-05	1.192636e+00	7.211546e-01	-1.003469e-01	3.426752e+00	1.281800e+00	1.074762e+00	6.290174e-01	4.976965e-01	
1.000000e+00	0.000000e+00	1.181015e+00	6.624023e-01	2.555555e-03	3.383557e+00	1.279117e+00	1.083065e+00	6.230280e-01	4.554894e-01	
1.984229e+01	2.506660e+00	9.999750e-01	9.463581e-01	2.022906e-02	2.947951e+00	9.999752e-01	1.000000e+00	-5.534725e-05	8.000212e-01	
1.937166e+01	4.973800e+00	9.999670e-01	9.463972e-01	2.022020e-02	2.947937e+00	9.999536e-01	9.999866e-01	-1.035140e-04	8.000659e-01	
1.859553e+01	7.362490e+00	9.999490e-01	9.464139e-01	2.021265e-02	2.947895e+00	9.999273e-01	9.999783e-01	-1.623357e-04	8.000976e-01	
1.752613e+01	9.635070e+00	9.999236e-01	9.464272e-01	2.019831e-02	2.947835e+00	9.998937e-01	9.999701e-01	-2.373274e-04	8.001322e-01	
1.618034e+01	1.175571e+01	9.998979e-01	9.464497e-01	2.017537e-02	2.947778e+00	9.998579e-01	9.999601e-01	-3.171044e-04	8.001754e-01	
1.457937e+01	1.369094e+01	9.998678e-01	9.464731e-01	2.015564e-02	2.947703e+00	9.998141e-01	9.999462e-01	-4.150104e-04	8.002244e-01	
1.274848e+01	1.541027e+01	9.998262e-01	9.464793e-01	2.013088e-02	2.947581e+00	9.997555e-01	9.999293e-01	-5.457607e-04	8.002693e-01	
1.071654e+01	1.688656e+01	9.997686e-01	9.464746e-01	2.010377e-02	2.947404e+00	9.996764e-01	9.999077e-01	-7.224304e-04	8.003196e-01	
8.515590e+00	1.809654e+01	9.997035e-01	9.464577e-01	2.008200e-02	2.947192e+00	9.995865e-01	9.998830e-01	-9.228928e-04	8.003669e-01	
6.180340e+00	1.902113e+01	9.996497e-01	9.464455e-01	2.006011e-02	2.947017e+00	9.995116e-01	9.998618e-01	-1.090165e-03	8.004077e-01	
3.747630e+00	1.964575e+01	9.996142e-01	9.464332e-01	2.009193e-02	2.946888e+00	9.994583e-01	9.998440e-01	-1.209111e-03	8.004334e-01	
1.255810e+00	1.996053e+01	9.996263e-01	9.464060e-01	2.017754e-02	2.946903e+00	9.994758e-01	9.998495e-01	-1.170042e-03	8.004002e-01	
-1.255810e+00	1.996053e+01	9.996822e-01	9.463322e-01	2.029005e-02	2.947010e+00	9.995558e-01	9.998735e-01	-9.915016e-04	8.002854e-01	
-3.747630e+00	1.964574e+01	9.997965e-01	9.463005e-01	2.042004e-02	2.947332e+00	9.997162e-01	9.999196e-01	-6.335332e-04	8.001510e-01	
-6.180340e+00	1.902113e+01	9.998947e-01	9.463166e-01	2.052869e-02	2.947650e+00	9.998540e-01	9.999592e-01	-3.259716e-04	8.000722e-01	
-8.515590e+00	1.809654e+01	9.999744e-01	9.463618e-01	2.062177e-02	2.947933e+00	9.999633e-01	9.999889e-01	-8.185793e-05	8.000365e-01	
-1.071654e+01	1.688656e+01	1.000019e+00	9.463591e-01	2.066295e-02	2.948069e+00	1.000026e+00	1.000008e+00	5.911639e-05	7.999921e-01	
-1.274848e+01	1.541026e+01	1.000045e+00	9.463561e-01	2.068766e-02	2.948148e+00	1.000064e+00	1.000019e+00	1.427642e-04	7.999642e-01	
-1.457937e+01	1.369094e+01	1.000061e+00	9.463528e-01	2.069610e-02	2.948193e+00	1.000086e+00	1.000025e+00	1.918854e-04	7.999464e-01	
-1.618034e+01	1.175570e+01	1.000068e+00	9.463459e-01	2.069500e-02	2.948208e+00	1.000096e+00	1.000027e+00	2.134586e-04	7.999340e-01	
-1.752613e+01	9.635070e+00	1.000072e+00	9.463407e-01	2.068963e-02	2.948213e+00	1.000100e+00	1.000029e+00	2.240378e-04	7.999262e-01	
-1.859553e+01	7.362490e+00	1.000073e+00	9.463364e-01	2.068153e-02	2.948212e+00	1.000102e+00	1.000029e+00	2.276009e-04	7.999213e-01	
-1.937166e+01	4.973800e+00	1.000074e+00	9.463330e-01	2.067173e-02	2.948211e+00	1.000103e+00	1.000029e+00	2.298925e-04	7.999175e-01	
-1.984229e+01	2.506660e+00	1.000075e+00	9.463303e-01	2.066086e-02	2.948214e+00	1.000106e+00	1.000030e+00	2.358316e-04	7.999132e-01	