# vtk DataFile Version 3.0
vtk output
ASCII
DATASET UNSTRUCTURED_GRID
POINTS 5233 float
9.997500e-01	-3.633242e-05	0.0	9.990000e-01	-1.454720e-04	0.0	9.977600e-01	-3.275035e-04	0.0	9.960200e-01	-5.899061e-04	0.0	9.937800e-01	-9.470182e-04	0.0	9.910500e-01	-1.421883e-03	0.0	9.878400e-01	-2.045026e-03	0.0	9.841300e-01	-2.852695e-03	0.0	9.799500e-01	-3.857151e-03	0.0	9.752800e-01	-5.055521e-03	0.0	9.701500e-01	-6.401007e-03	0.0	9.645400e-01	-7.835178e-03	0.0	9.584700e-01	-9.282770e-03	0.0	9.519400e-01	-1.068849e-02	0.0	9.449600e-01	-1.202444e-02	0.0	9.375400e-01	-1.329505e-02	0.0	9.296900e-01	-1.452765e-02	0.0	9.214000e-01	-1.576051e-02	0.0	9.127000e-01	-1.702091e-02	0.0	9.035800e-01	-1.832991e-02	0.0	8.940600e-01	-1.969119e-02	0.0	8.841500e-01	-2.110017e-02	0.0	8.738500e-01	-2.254866e-02	0.0	8.631800e-01	-2.402456e-02	0.0	8.521600e-01	-2.551722e-02	0.0	8.407700e-01	-2.702346e-02	0.0	8.290500e-01	-2.853404e-02	0.0	8.170100e-01	-3.004509e-02	0.0	8.046400e-01	-3.155579e-02	0.0	7.919700e-01	-3.306047e-02	0.0	7.790100e-01	-3.455587e-02	0.0	7.657800e-01	-3.603737e-02	0.0	7.522800e-01	-3.750241e-02	0.0	7.385200e-01	-3.894716e-02	0.0	7.245300e-01	-4.036574e-02	0.0	7.103200e-01	-4.175452e-02	0.0	6.958900e-01	-4.311096e-02	0.0	6.812700e-01	-4.442984e-02	0.0	6.664700e-01	-4.570818e-02	0.0	6.515000e-01	-4.694319e-02	0.0	6.363800e-01	-4.813156e-02	0.0	6.211300e-01	-4.927037e-02	0.0	6.057600e-01	-5.035775e-02	0.0	5.902800e-01	-5.139206e-02	0.0	5.747100e-01	-5.237124e-02	0.0	5.590600e-01	-5.329409e-02	0.0	5.433600e-01	-5.415852e-02	0.0	5.276100e-01	-5.496431e-02	0.0	5.118400e-01	-5.570979e-02	0.0	4.960500e-01	-5.639490e-02	0.0	4.802700e-01	-5.701825e-02	0.0	4.645100e-01	-5.757944e-02	0.0	4.487800e-01	-5.807797e-02	0.0	4.331100e-01	-5.851275e-02	0.0	4.175000e-01	-5.888353e-02	0.0	4.019700e-01	-5.918939e-02	0.0	3.865400e-01	-5.942943e-02	0.0	3.712300e-01	-5.960275e-02	0.0	3.560400e-01	-5.970854e-02	0.0	3.409900e-01	-5.974565e-02	0.0	3.261100e-01	-5.971297e-02	0.0	3.114000e-01	-5.960934e-02	0.0	2.968700e-01	-5.943341e-02	0.0	2.825500e-01	-5.918410e-02	0.0	2.684500e-01	-5.886012e-02	0.0	2.545700e-01	-5.845982e-02	0.0	2.409400e-01	-5.798235e-02	0.0	2.275700e-01	-5.742646e-02	0.0	2.144700e-01	-5.679088e-02	0.0	2.016600e-01	-5.607496e-02	0.0	1.891400e-01	-5.527706e-02	0.0	1.769300e-01	-5.439679e-02	0.0	1.650400e-01	-5.343337e-02	0.0	1.534900e-01	-5.238704e-02	0.0	1.422900e-01	-5.125759e-02	0.0	1.314400e-01	-5.004379e-02	0.0	1.209500e-01	-4.874545e-02	0.0	1.108500e-01	-4.736540e-02	0.0	1.011300e-01	-4.590153e-02	0.0	9.181000e-02	-4.435598e-02	0.0	8.290000e-02	-4.272994e-02	0.0	7.440000e-02	-4.102281e-02	0.0	6.633000e-02	-3.923818e-02	0.0	5.869000e-02	-3.737580e-02	0.0	5.149000e-02	-3.543772e-02	0.0	4.474000e-02	-3.342652e-02	0.0	3.844000e-02	-3.134191e-02	0.0	3.260000e-02	-2.918678e-02	0.0	2.723000e-02	-2.696482e-02	0.0	2.232000e-02	-2.467104e-02	0.0	1.790000e-02	-2.231941e-02	0.0	1.395000e-02	-1.989912e-02	0.0	1.049000e-02	-1.742138e-02	0.0	7.520000e-03	-1.488703e-02	0.0	5.040000e-03	-1.229616e-02	0.0	3.050000e-03	-9.647073e-03	0.0	1.560000e-03	-6.954722e-03	0.0	5.600000e-04	-4.197587e-03	0.0	6.000000e-05	-1.382079e-03	0.0	0.000000e+00	0.000000e+00	0.0	6.000000e-05	1.261249e-03	0.0	5.600000e-04	3.613920e-03	0.0	1.560000e-03	5.767493e-03	0.0	3.050000e-03	7.774887e-03	0.0	5.040000e-03	9.681565e-03	0.0	7.520000e-03	1.149564e-02	0.0	1.049000e-02	1.323227e-02	0.0	1.395000e-02	1.490210e-02	0.0	1.790000e-02	1.651310e-02	0.0	2.232000e-02	1.806497e-02	0.0	2.723000e-02	1.957084e-02	0.0	3.260000e-02	2.102665e-02	0.0	3.844000e-02	2.244004e-02	0.0	4.474000e-02	2.381239e-02	0.0	5.149000e-02	2.514506e-02	0.0	5.869000e-02	2.644104e-02	0.0	6.633000e-02	2.770104e-02	0.0	7.440000e-02	2.892571e-02	0.0	8.290000e-02	3.011692e-02	0.0	9.181000e-02	3.127355e-02	0.0	1.011300e-01	3.239709e-02	0.0	1.108500e-01	3.348746e-02	0.0	1.209500e-01	3.454352e-02	0.0	1.314400e-01	3.556709e-02	0.0	1.422900e-01	3.655584e-02	0.0	1.534900e-01	3.750949e-02	0.0	1.650400e-01	3.842836e-02	0.0	1.769300e-01	3.931175e-02	0.0	1.891400e-01	4.015813e-02	0.0	2.016600e-01	4.096670e-02	0.0	2.144700e-01	4.173592e-02	0.0	2.275700e-01	4.246533e-02	0.0	2.409400e-01	4.315319e-02	0.0	2.545700e-01	4.379821e-02	0.0	2.684500e-01	4.439895e-02	0.0	2.825500e-01	4.495304e-02	0.0	2.968700e-01	4.545928e-02	0.0	3.114000e-01	4.591584e-02	0.0	3.261100e-01	4.632021e-02	0.0	3.409900e-01	4.667046e-02	0.0	3.560400e-01	4.696468e-02	0.0	3.712300e-01	4.720026e-02	0.0	3.865400e-01	4.737483e-02	0.0	4.019700e-01	4.748622e-02	0.0	4.175000e-01	4.753193e-02	0.0	4.331100e-01	4.750956e-02	0.0	4.487800e-01	4.741685e-02	0.0	4.645100e-01	4.725142e-02	0.0	4.802700e-01	4.701125e-02	0.0	4.960500e-01	4.669431e-02	0.0	5.118400e-01	4.629865e-02	0.0	5.276100e-01	4.582313e-02	0.0	5.433600e-01	4.526604e-02	0.0	5.590600e-01	4.462702e-02	0.0	5.747100e-01	4.390495e-02	0.0	5.902800e-01	4.310049e-02	0.0	6.057600e-01	4.221392e-02	0.0	6.211300e-01	4.124664e-02	0.0	6.363800e-01	4.020009e-02	0.0	6.515000e-01	3.907622e-02	0.0	6.664700e-01	3.787844e-02	0.0	6.812700e-01	3.661099e-02	0.0	6.958900e-01	3.527805e-02	0.0	7.103200e-01	3.388448e-02	0.0	7.245300e-01	3.243788e-02	0.0	7.385200e-01	3.094361e-02	0.0	7.522800e-01	2.940867e-02	0.0	7.657800e-01	2.784298e-02	0.0	7.790100e-01	2.625494e-02	0.0	7.919700e-01	2.465223e-02	0.0	8.046400e-01	2.304537e-02	0.0	8.170100e-01	2.144403e-02	0.0	8.290500e-01	1.986055e-02	0.0	8.407700e-01	1.830173e-02	0.0	8.521600e-01	1.677600e-02	0.0	8.631800e-01	1.529420e-02	0.0	8.738500e-01	1.385681e-02	0.0	8.841500e-01	1.246705e-02	0.0	8.940600e-01	1.112615e-02	0.0	9.035800e-01	9.832426e-03	0.0	9.127000e-01	8.588612e-03	0.0	9.214000e-01	7.405662e-03	0.0	9.296900e-01	6.300118e-03	0.0	9.375400e-01	5.302909e-03	0.0	9.449600e-01	4.443119e-03	0.0	9.519400e-01	3.745626e-03	0.0	9.584700e-01	3.216550e-03	0.0	9.645400e-01	2.835785e-03	0.0	9.701500e-01	2.558599e-03	0.0	9.752800e-01	2.329349e-03	0.0	9.799500e-01	2.095917e-03	0.0	9.841300e-01	1.828658e-03	0.0	9.878400e-01	1.520727e-03	0.0	9.910500e-01	1.190563e-03	0.0	9.937800e-01	8.631517e-04	0.0	9.960200e-01	5.666622e-04	0.0	9.977600e-01	3.231949e-04	0.0	9.990000e-01	1.450789e-04	0.0	9.997500e-01	3.632620e-05	0.0	1.000000e+00	0.000000e+00	0.0	1.984229e+01	2.506660e+00	0.0	1.937166e+01	4.973800e+00	0.0	1.859553e+01	7.362490e+00	0.0	1.752613e+01	9.635070e+00	0.0	1.618034e+01	1.175571e+01	0.0	1.457937e+01	1.369094e+01	0.0	1.274848e+01	1.541027e+01	0.0	1.071654e+01	1.688656e+01	0.0	8.515590e+00	1.809654e+01	0.0	6.180340e+00	1.902113e+01	0.0	3.747630e+00	1.964575e+01	0.0	1.255810e+00	1.996053e+01	0.0	-1.255810e+00	1.996053e+01	0.0	-3.747630e+00	1.964574e+01	0.0	-6.180340e+00	1.902113e+01	0.0	-8.515590e+00	1.809654e+01	0.0	-1.071654e+01	1.688656e+01	0.0	-1.274848e+01	1.541026e+01	0.0	-1.457937e+01	1.369094e+01	0.0	-1.618034e+01	1.175570e+01	0.0	-1.752613e+01	9.635070e+00	0.0	-1.859553e+01	7.362490e+00	0.0	-1.937166e+01	4.973800e+00	0.0	-1.984229e+01	2.506660e+00	0.0	-2.000000e+01	0.000000e+00	0.0	-1.984229e+01	-2.506670e+00	0.0	-1.937166e+01	-4.973800e+00	0.0	-1.859553e+01	-7.362490e+00	0.0	-1.752613e+01	-9.635080e+00	0.0	-1.618034e+01	-1.175571e+01	0.0	-1.457937e+01	-1.369094e+01	0.0	-1.274848e+01	-1.541027e+01	0.0	-1.071653e+01	-1.688656e+01	0.0	-8.515580e+00	-1.809654e+01	0.0	-6.180340e+00	-1.902113e+01	0.0	-3.747620e+00	-1.964575e+01	0.0	-1.255810e+00	-1.996053e+01	0.0	1.255810e+00	-1.996053e+01	0.0	3.747630e+00	-1.964574e+01	0.0	6.180340e+00	-1.902113e+01	0.0	8.515590e+00	-1.809654e+01	0.0	1.071654e+01	-1.688656e+01	0.0	1.274848e+01	-1.541026e+01	0.0	1.457937e+01	-1.369094e+01	0.0	1.618034e+01	-1.175570e+01	0.0	1.752614e+01	-9.635070e+00	0.0	1.859553e+01	-7.362490e+00	0.0	1.937166e+01	-4.973790e+00	0.0	1.984229e+01	-2.506660e+00	0.0	2.000000e+01	0.000000e+00	0.0	6.074466e-02	-4.523887e-02	0.0	6.601879e-01	-5.998701e-02	0.0	4.255491e-01	6.174327e-02	0.0	6.897646e-01	4.916539e-02	0.0	3.791221e-01	-7.357380e-02	0.0	9.994674e-01	-7.275897e-04	0.0	9.985544e-01	-1.331395e-03	0.0	7.738122e-01	-4.736694e-02	0.0	6.898595e-01	-5.711311e-02	0.0	-1.120663e-03	5.499587e-03	0.0	7.467792e-01	-5.077335e-02	0.0	5.833296e-01	5.759241e-02	0.0	9.928158e-01	-3.735923e-03	0.0	9.899357e-01	-4.743613e-03	0.0	5.989060e-01	5.665885e-02	0.0	7.187639e-01	-5.402883e-02	0.0	-1.465006e-03	5.977553e-04	0.0	9.865722e-01	-5.905489e-03	0.0	9.827324e-01	-7.224763e-03	0.0	-1.296088e-03	-6.459777e-03	0.0	6.451047e-01	-6.133779e-02	0.0	8.244807e-01	-4.026780e-02	0.0	7.997410e-01	-4.386241e-02	0.0	3.484762e-01	6.059623e-02	0.0	8.479007e-01	-3.663948e-02	0.0	2.473614e-01	5.603689e-02	0.0	8.699406e-01	-3.300173e-02	0.0	1.047090e-02	1.727790e-02	0.0	8.904943e-01	-2.941073e-02	0.0	7.702294e-02	-4.961671e-02	0.0	9.094895e-01	-2.592118e-02	0.0	-1.761617e-03	-3.200992e-03	0.0	9.424813e-01	-1.915658e-02	0.0	9.268461e-01	-2.253479e-02	0.0	1.795292e-02	-2.743445e-02	0.0	4.257408e-01	-7.300607e-02	0.0	8.591022e-01	-3.481633e-02	0.0	9.563345e-01	-1.565882e-02	0.0	9.784083e-01	-8.722856e-03	0.0	9.683293e-01	-1.207573e-02	0.0	1.582621e-01	-6.350635e-02	0.0	9.001936e-01	-2.765132e-02	0.0	7.604286e-01	-4.908592e-02	0.0	9.971358e-01	-2.087206e-03	0.0	5.990497e-01	-6.501142e-02	0.0	4.414434e-01	-7.265636e-02	0.0	5.363193e-01	-6.894829e-02	0.0	4.730151e-01	-7.172376e-02	0.0	5.046761e-01	-7.048578e-02	0.0	4.888337e-01	-7.114175e-02	0.0	1.249489e-01	-5.899015e-02	0.0	2.784858e-02	-3.290505e-02	0.0	3.945679e-01	-7.346649e-02	0.0	4.622218e-02	-4.054319e-02	0.0	4.101088e-01	-7.327757e-02	0.0	3.187132e-01	-7.317698e-02	0.0	3.486112e-01	-7.354655e-02	0.0	3.351173e-02	-3.551488e-02	0.0	2.895088e-01	-7.246782e-02	0.0	9.348836e-01	-2.085256e-02	0.0	1.468036e-01	-6.209147e-02	0.0	1.946418e-01	-6.717504e-02	0.0	8.579673e-02	-5.167508e-02	0.0	1.045872e-01	-5.552495e-02	0.0	5.678220e-01	-6.712758e-02	0.0	1.700644e-01	-6.482754e-02	0.0	6.145272e-01	-6.384933e-02	0.0	8.804117e-01	-3.119774e-02	0.0	2.267291e-02	-3.020989e-02	0.0	9.952217e-01	-2.869977e-03	0.0	6.742171e-03	-1.877766e-02	0.0	1.849867e-02	2.143040e-02	0.0	9.183762e-01	-2.421849e-02	0.0	9.49639
[...]
POINT_DATA 5233

SCALARS Conservative_1 float 1
LOOKUP_TABLE default
-1.819945e-01	-2.196734e-01	-2.162198e-01	-2.135909e-01	-2.131210e-01	-2.101991e-01	-2.031772e-01	-1.897545e-01	-1.682269e-01	-1.380876e-01	-1.009050e-01	-6.053860e-02	-2.316698e-02	4.705941e-03	1.941719e-02	2.244628e-02	1.923877e-02	1.532872e-02	1.416602e-02	1.667016e-02	2.249894e-02	3.068470e-02	4.013399e-02	5.007379e-02	5.991632e-02	6.947871e-02	7.870609e-02	8.768459e-02	9.660781e-02	1.055378e-01	1.145975e-01	1.237782e-01	1.330437e-01	1.423249e-01	1.515608e-01	1.607071e-01	1.697886e-01	1.788437e-01	1.878276e-01	1.966704e-01	2.052998e-01	2.136867e-01	2.218062e-01	2.296691e-01	2.372757e-01	2.446426e-01	2.517823e-01	2.587201e-01	2.655496e-01	2.723258e-01	2.790728e-01	2.856984e-01	2.919202e-01	2.975007e-01	3.025911e-01	3.076630e-01	3.131857e-01	3.193590e-01	3.261702e-01	3.334807e-01	3.413044e-01	3.496292e-01	3.583557e-01	3.669109e-01	3.741712e-01	3.784799e-01	3.782555e-01	3.726049e-01	3.621790e-01	3.490084e-01	3.357406e-01	3.241332e-01	3.142285e-01	3.045652e-01	2.934146e-01	2.801503e-01	2.651268e-01	2.488640e-01	2.313267e-01	2.123392e-01	1.917765e-01	1.695357e-01	1.454540e-01	1.193006e-01	9.079942e-02	5.972173e-02	2.568078e-02	-1.159088e-02	-5.258242e-02	-9.751629e-02	-1.467973e-01	-2.001979e-01	-2.577200e-01	-3.169981e-01	-3.764242e-01	-4.283368e-01	-4.696818e-01	-4.969041e-01	-4.933428e-01	-4.650355e-01	-4.263677e-01	-3.383286e-01	-1.959693e-01	-4.272627e-02	9.741003e-02	2.114893e-01	2.952798e-01	3.570828e-01	4.052356e-01	4.411367e-01	4.615422e-01	4.662132e-01	4.608796e-01	4.525159e-01	4.454999e-01	4.412876e-01	4.393723e-01	4.388238e-01	4.390920e-01	4.398587e-01	4.407023e-01	4.410132e-01	4.406146e-01	4.399376e-01	4.394112e-01	4.390585e-01	4.385324e-01	4.375342e-01	4.360628e-01	4.342043e-01	4.320263e-01	4.294538e-01	4.263464e-01	4.226178e-01	4.180559e-01	4.124435e-01	4.055278e-01	3.973960e-01	3.884355e-01	3.792789e-01	3.702126e-01	3.610924e-01	3.516213e-01	3.417199e-01	3.315181e-01	3.212820e-01	3.112915e-01	3.019108e-01	2.934899e-01	2.858857e-01	2.783618e-01	2.699925e-01	2.600626e-01	2.485881e-01	2.360676e-01	2.228938e-01	2.092871e-01	1.952802e-01	1.809010e-01	1.661308e-01	1.510488e-01	1.357060e-01	1.201330e-01	1.044147e-01	8.856651e-02	7.268987e-02	5.683282e-02	4.112498e-02	2.560641e-02	1.037248e-02	-4.548901e-03	-1.904332e-02	-3.302015e-02	-4.635383e-02	-5.903927e-02	-7.091867e-02	-8.223357e-02	-9.321054e-02	-1.043146e-01	-1.160847e-01	-1.289743e-01	-1.430141e-01	-1.576247e-01	-1.714646e-01	-1.828014e-01	-1.898468e-01	-1.913008e-01	-1.868512e-01	-1.776610e-01	-1.666991e-01	-1.583624e-01	-1.571067e-01	-1.651560e-01	-1.817172e-01	-2.042584e-01	-2.308040e-01	-2.558345e-01	-2.801228e-01	-3.751002e-01	-2.906536e-01	-1.359265e-04	-1.332442e-04	-1.292983e-04	-1.254031e-04	-1.191184e-04	-1.096888e-04	-9.100770e-05	-6.647535e-05	-2.648772e-05	3.143178e-05	1.328687e-04	2.667876e-04	4.021192e-04	4.571646e-04	4.456765e-04	4.124645e-04	3.645546e-04	3.157369e-04	2.632356e-04	2.099104e-04	1.587712e-04	1.228187e-04	1.110929e-04	3.426216e-05	-3.074234e-05	1.437373e-05	1.346067e-07	-3.970218e-05	-7.348792e-05	-9.158443e-05	-1.053240e-04	-1.124959e-04	-1.125840e-04	-1.043212e-04	-9.019764e-05	-7.085091e-05	-5.172157e-05	-5.732089e-05	-8.082738e-05	-1.110413e-04	-1.385219e-04	-1.531130e-04	-1.591471e-04	-1.596182e-04	-1.568145e-04	-1.524210e-04	-1.488172e-04	-1.455450e-04	-1.404301e-04	-1.386942e-04	1.022489e-01	1.825483e-01	3.202252e-01	1.238810e-01	3.047972e-01	-2.188120e-01	-2.231104e-01	1.106633e-01	1.648719e-01	-3.065115e-01	1.288347e-01	2.233141e-01	-2.097817e-01	-2.029188e-01	2.101438e-01	1.469958e-01	-4.340624e-01	-1.920781e-01	-1.758606e-01	-4.700387e-01	1.911628e-01	7.500170e-02	9.277175e-02	3.688380e-01	5.677634e-02	4.176627e-01	3.781620e-02	2.076522e-01	2.009873e-02	1.526106e-01	8.401292e-03	-4.825794e-01	2.034080e-03	5.875087e-03	-1.523382e-01	2.891799e-01	4.733236e-02	-3.012482e-02	-1.533776e-01	-9.247573e-02	2.889897e-01	1.316185e-02	1.197147e-01	-2.180299e-01	2.156197e-01	2.839824e-01	2.448866e-01	2.717257e-01	2.584192e-01	2.650737e-01	2.495054e-01	-6.502133e-02	2.991786e-01	4.322974e-02	2.940822e-01	3.323777e-01	3.176418e-01	-2.596778e-02	3.487327e-01	5.708187e-03	2.778873e-01	3.234477e-01	1.750375e-01	2.150951e-01	2.306976e-01	2.992109e-01	2.077155e-01	2.854308e-02	-1.071350e-01	-2.143293e-01	-3.027353e-01	3.317384e-01	6.153994e-03	-9.191806e-03	-1.249714e-01	-1.983104e-01	6.598885e-02	3.630073e-01	2.378923e-01	1.379612e-01	1.016882e-01	2.329273e-01	3.503077e-01	2.232762e-01	1.737591e-01	7.388887e-02	-3.541237e-01	-2.005208e-01	3.109877e-01	3.103835e-01	-2.078013e-01	3.592833e-01	1.958359e-01	3.404907e-01	3.615608e-01	2.781467e-01	1.559469e-01	-3.877573e-01	-4.397724e-01	2.588132e-01	-4.641150e-01	4.000747e-01	4.090533e-01	4.108545e-01	4.259435e-01	3.305679e-01	-2.499830e-01	2.678650e-01	2.911359e-01	-1.680244e-01	-1.785320e-01	-9.534194e-02	2.830870e-01	3.099909e-01	3.505017e-01	-1.437238e-01	-1.183559e-01	4.157701e-01	-1.625061e-01	-1.789050e-01	-1.669869e-01	4.217755e-01	4.104157e-01	4.029083e-01	4.137938e-01	4.284036e-01	3.870491e-01	3.001772e-01	3.407406e-01	4.278559e-01	4.267767e-01	1.826137e-01	4.267188e-01	4.232353e-01	1.537487e-01	2.360424e-01	6.277675e-02	9.341225e-02	3.318797e-03	3.256714e-02	-5.008474e-02	-2.445635e-02	-1.065506e-01	-7.340936e-02	-1.749127e-01	-1.308565e-01	-1.743300e-01	-6.203115e-02	-8.442104e-02	-1.079357e-02	-3.758186e-02	4.757753e-02	1.779344e-02	1.086917e-01	7.808024e-02	1.683282e-01	1.389141e-01	2.480880e-01	1.965729e-01	4.251837e-01	4.207767e-01	4.283343e-01	4.278363e-01	4.094552e-01	4.273027e-01	2.749490e-01	4.098366e-01	3.375175e-01	2.948395e-02	-5.931035e-02	8.390684e-02	3.247593e-01	2.517190e-01	-8.141441e-02	3.747192e-01	1.271225e-01	4.188076e-01	4.128917e-01	4.089495e-01	4.242925e-01	-1.611255e-01	-1.664299e-01	3.955359e-01	-1.789995e-01	-1.976705e-01	3.779608e-01	3.597859e-01	-1.561678e-01	-3.801933e-01	-2.834878e-01	-3.367169e-01	1.995621e-01	1.003650e-02	-2.214810e-01	2.756551e-01	-4.009409e-01	-2.511502e-01	1.284132e-01	2.647062e-01	3.562449e-01	3.893414e-01	-2.865050e-01	-3.560703e-01	3.381188e-01	1.515354e-01	6.781256e-04	-2.901913e-01	2.228172e-01	1.602679e-01	9.830861e-02	-1.914221e-01	3.156676e-01	4.511673e-02	6.316697e-02	1.592235e-01	-4.381460e-01	3.263171e-01	-2.001667e-01	-6.023577e-02	2.624935e-01	1.427927e-01	1.775201e-01	2.707148e-01	1.367738e-01	2.908502e-01	1.116461e-02	8.954438e-02	6.679885e-02	2.731785e-01	1.409529e-01	-4.230655e-02	4.087383e-01	1.264051e-01	4.178360e-01	-7.642257e-02	-1.765072e-01	3.670939e-01	2.648905e-01	-1.664084e-01	-8.723135e-02	-1.904067e-01	-1.687074e-01	-1.632838e-01	4.119259e-01	3.762724e-01	4.143501e-01	4.047831e-01	1.689578e-01	3.121115e-01	1.438696e-01	4.153356e-01	3.724275e-01	-1.658637e-01	-2.078692e-01	-9.806051e-02	2.738175e-01	-3.083562e-01	-2.551479e-01	-2.296432e-01	-1.962509e-02	-2.023543e-01	-3.345510e-01	-4.560842e-01	-4.367841e-01	-1.565640e-01	-2.707680e-01	8.673786e-02	-2.204272e-01	-2.079724e-01	3.187536e-01	2.313743e-01	-1.782216e-01	2.704616e-02	2.099858e-01	-2.009900e-01	-4.603059e-01	2.760603e-01	3.291626e-01	5.419409e-02	3.992618e-01	3.598238e-02	1.861027e-02	1.126581e-01	5.137923e-03	-2.495254e-03	-2.101359e-02	-7.533751e-02	-3.756634e-02	-8.674903e-02	-1.609542e-01	2.343487e-01	1.160923e-01	1.071428e-01	-2.143147e-01	2.646536e-01	2.580651e-01	2.514276e-01	-1.149542e-01	2.856990e-01	2.809086e-01	3.088414e-01	-3.659494e-03	-5.655593e-03	-1.092602e-02	2.494845e-01	1.801464e-01	2.243438e-01	2.019818e-01	-1.139121e-01	-1.392111e-01	1.340329e-01	1.251406e-01	1.996241e-01	2.176878e-01	2.171174e-01	2.096617e-01	2.856930e-02	5.875659e-02	-2.452447e-01	3.024635e-01	2.964796e-01	2.850835e-01	2.978059e-01	3.379843e-01	3.450320e-01	3.307191e-01	3.230446e-01	3.468270e-01	-4.058877e-01	-3.750700e-01	3.676392e-01	-1.672186e-01	2.565592e-01	2.724539e-01	2.803104e-01	2.889955e-01	-1.634832e-01	-1.681894e-01	-1.320143e-01	2.984052e-01	3.083972e-01	3.392556e-01	-1.205161e-01	-1.610717e-01	3.833946e-01	3.775600e-01	4.086847e-01	4.045433e-01	4.167435e-01	4.137779e-01	4.117459e-01	9.888631e-03	6.735271e-02	8.215395e-02	2.389097e-02	-2.998228e-02	-1.091505e-01	-6.543760e-02	-5.405586e-02	-1.710051e-02	-3.782842e-03	3.815214e-02	5.265592e-02	9.695074e-02	1.117265e-01	1.553084e-01	1.694427e-01	2.353368e-01	2.467967e-01	1.833166e-01	1.968249e-01	4.161481e-01	4.174082e-01	4.182027e-01	4.183936e-01	2.132844e-01	3.607808e-01	3.464258e-01	8.079626e-02	7.202567e-02	2.448657e-01	2.382097e-01	-1.113706e-01	3.183401e-01	4.001334e-01	3.949495e-01	3.849769e-01	3.927489e-01	3.488036e-01	3.579508e-01	-1.530709e-01	-1.431003e-01	1.940594e-01	1.859019e-01	-3.817177e-02	-4.098136e-01	3.440029e-01	-4.330888e-01	2.778226e-01	3.200669e-01	8.745147e-02	2.256748e-01	-6.799919e-03	-1.845786e-01	-1.739218e-01	-1.616861e-01	-1.310575e-01	-1.975762e-01	-2.881002e-01	-3.040015e-01	-2.146329e-01	-2.735663e-01	-1.594025e-01	-3.886839e-01	1.430539e-01	-1.203660e-02	-1.890565e-01	2.210886e-01	-2.258978e-01	-3.179128e-01	1.396269e-01	-3.847863e-01	1.310891e-01	-1.986948e-01	2.687546e-02	-2.790894e-01	2.998961e-01	3.551375e-02	1.481307e-01	-1.978774e-01	-2.391108e-01	-1.635439e-01	2.524902e-01	-1.557152e-01	1.410850e-01	-2.162688e-01	2.607087e-01	3.939044e-01	3.644598e-01	4.050405e-01	3.572001e-01	-3.055981e-01	-4.092279e-01	-2.762478e-01	1.603586e-01	-3.364215e-01	-8.144661e-02	1.207631e-01	-4.249471e-01	2.467307e-01	2.583548e-01	-1.209008e-01	2.275872e-02	-3.651769e-02	1.414058e-02	1.269181e-01	-1.670317e-01	-1.596865e-01	-9.130800e-02	-8.080651e-02	3.733071e-01	3.881662e-01	4.045089e-01	3.871481e-01	1.651471e-01	1.567206e-01	3.002180e-01	9.376806e-02	4.028735e-01	-1.623774e-01	-2.347997e-01	-5.292716e-02	-2.068585e-01	-3.536556e-01	-4.376947e-01	-8.385644e-02	-2.368204e-01	-2.322941e-01	-1.040822e-01	-1.776100e-01	2.083446e-01	2.636717e-01	3.161341e-01	5.318854e-02	4.432590e-02	1.862323e-02	1.097603e-02	7.155360e-02	9.695374e-02	4.174833e-03	-1.559517e-03	-4.194798e-02	-6.013181e-02	-1.635195e-01	1.050216e-01	9.622551e-02	-2.067198e-01	2.522338e-01	2.455048e-01	2.730125e-01	2.684435e-01	-4.907298e-02	-1.853218e-02	-2.808538e-02	2.184322e-01	2.335804e-01	2.188834e-01	2.118374e-01	-1.261125e-01	-1.463213e-01	1.227566e-01	1.139736e-01	1.640372e-01	1.837245e-01	2.018736e-01	2.046353e-01	1.971575e-01	-1.628069e-02	1.498927e-02	4.439323e-02	2.939559e-01	2.883587e-01	2.830058e-01	2.587445e-01	2.713918e-01	2.854224e-01	3.137481e-01	3.238109e-01	3.132118e-01	3.063746e-01	3.290289e-01	3.271122e-01	2.687157e-01	2.773078e-01	-1.622302e-01	2.862063e-01	2.956308e-01	3.056865e-01	3.264662e-01	-1.226118e-01	3.476894e-01	3.377241e-01	3.984506e-01	4.019745e-01	4.004149e-01	3.972758e-01	3.927161e-01	6.979264e-02	-1.122498e-01	-1.017526e-01	-7.020108e-02	-5.930571e-02	-4.816802e-02	-2.439004e-02	-1.171322e-02	1.137517e-03	2.776698e-02	4.147746e-02	5.562887e-02	8.417149e-02	9.840508e-02	1.127709e-01	1.549603e-01	2.332278e-01	2.434732e-01	1.687280e-01	1.821125e-01	1.953482e-01	4.062570e-01	4.072819e-01	4.077880e-01	4.076293e-01	4.066115e-01	3.143679e-01	2.951190e-01	7.898570e-02	7.041516e-02	6.185476e-02	2.389222e-01	2.323329e-01	2.638753e-01	2.184135e-01	3.809122e-01	3.739886e-01	3.660981e-01	3.813007e-01	3.363395e-01	3.457360e-01	3.550717e-01	-1.496913e-01	-1.418500e-01	-1.327010e-01	1.895176e-01	1.815864e-01	1.735002e-01	3.294227e-01	3.259004e-01	-4.017490e-01	1.269460e-01	-2.183246e-01	-1.658476e-01	2.151815e-01	-3.589437e-01	-2.190899e-01	-1.621189e-02	-2.381476e-02	-9.091111e-02	-1.909621e-01	2.548855e-01	-3.806958e-01	5.385790e-02	-3.003449e-01	-1.548408e-01	-2.040696e-01	-2.610328e-01	1.408269e-01	-2.027816e-01	-2.771534e-01	-2.567914e-01	7.837156e-02	2.310593e-01	-1.601020e-01	2.655136e-01	1.049530e-01	2.518042e-01	3.027359e-01	-1.716877e-01	2.184183e-01	-1.513292e-01	-1.464783e-01	1.672584e-02	3.894853e-01	3.866275e-01	-1.773359e-01	3.181587e-01	2.716545e-02	-2.471381e-01	-1.800040e-01	-2.054216e-01	-1.163236e-01	-1.954645e-01	1.378432e-01	-3.316749e-01	1.285159e-01	1.213816e-01	-2.309340e-01	-1.879567e-01	-2.666019e-01	-3.189212e-02	2.486189e-01	3.683900e-01	-3.132704e-01	-9.441223e-03	1.258490e-01	-8.548731e-02	3.602988e-01	3.755169e-01	3.815993e-01	1.548012e-01	1.453813e-01	-1.619219e-01	-7.393992e-02	-1.393991e-01	-3.593523e-01	-4.159708e-01	-1.245375e-01	-9.732700e-02	-1.651542e-01	2.046781e-01	4.430960e-02	3.561328e-02	1.881713e-02	1.104092e-02	5.680132e-02	8.157616e-02	3.661615e-03	-2.777461e-03	-9.129241e-03	-6.065882e-02	-7.836641e-02	9.586819e-02	8.624943e-02	-1.968298e-01	2.467188e-01	2.405230e-01	2.610147e-01	2.564603e-01	-3.323703e-02	-4.537696e-02	2.020144e-01	2.176389e-01	2.072024e-01	-1.344896e-01	-1.510107e-01	1.130397e-01	1.033934e-01	1.478636e-01	1.677725e-01	1.857216e-01	2.013267e-01	1.929859e-01	-5.892968e-02	-2.772128e-02	2.544516e-03	3.057061e-02	2.853288e-01	2.802295e-01	2.753314e-01	2.705091e-01	2.440385e-01	2.580224e-01	2.728291e-01	2.873827e-01	2.997629e-01	2.908593e-01	2.967052e-01	3.081829e-01	2.640591e-01	-1.593828e-01	-1.573322e-01	2.727308e-01	2.815114e-01	2.910685e-01	3.012688e-01	3.117408e-01	3.042968e-01	2.883598e-01	3.905141e-01	3.933639e-01	3.860348e-01	3.820961e-01	3.759588e-01	3.686399e-01	-1.148104e-01	-1.052114e-01	-9.548362e-02	-7.539380e-02	-6.492195e-02	-5.434254e-02	-4.285762e-02	-2.076373e-02	-7.165807e-03	4.545183e-03	3.060010e-02	4.343187e-02	5.791706e-02	7.078697e-02	8.554594e-02	9.830325e-02	1.132913e-01	2.380275e-01	2.302543e-01	1.529285e-01	1.677211e-01	1.794843e-01	1.941321e-01	3.951460e-01	3.960927e-01	3.963294e-01	3.960752e-01	3.944763e-01	3.924668e-01	2.701277e-01	2.468218e-01	6.982235e-02	6.096521e-02	5.281065e-02	2.335203e-01	2.285164e-01	2.207199e-01	2.134580e-01	1.680258e-01	1.139232e-01	3.607130e-01	3.522152e-01	3.423975e-01	3.307839e-01	3.219808e-01	3.319240e-01	3.414686e-01	3.513036e-01	-1.240236e-01	-1.400883e-01	-1.326249e-01	1.866548e-01	1.779348e-01	1.711385e-01	1.620439e-01	3.120253e-01	3.116478e-01	3.080292e-01	-2.224960e-01	-2.092826e-01	-1.096082e-01	-2.986395e-01	-2.538940e-01	1.149879e-01	1.115288e-01	-2.836714e-01	-1.626562e-01	-3.360025e-01	-1.271348e-01	2.159238e-01	3.702742e-01	-3.455063e-02	-1.970585e-01	-3.347359e-01	-4.074686e-01	-4.175930e-01	-3.871457e-01	-3.557549e-01	-1.991292e-01	3.541044e-01	-1.254666e-01	-1.775641e-01	-3.711809e-02	7.317894e-02	2.531974e-01	-1.938687e-01	-1.169096e-01	-1.377874e-01	2.188883e-01	2.358160e-01	1.309416e-01	2.556225e-02	2.481883e-01	2.063900e-01	3.477074e-01	-1.842615e-01	9.006801e-02	-2.754629e-01	-1.683975e-01	-4.048077e-01	-2.477987e-01	-2.320761e-01	-2.704039e-02	-9.733101e-02	-3.732461e-01	2.048314e-02	-3.111019e-01	-1.476743e-01	-2.466738e-01	-2.751670e-01	-2.621499e-01	-1.916308e-01	2.830290e-01	2.863168e-01	-1.754584e-01	2.005219e-01	-1.433270e-01	-1.664321e-01	1.302847e-01	-2.925768e-01	3.631768e-01	3.678312e-01	3.751662e-01	1.469611e-01	-8.966171e-02	-1.438206e-01	-3.898285e-01	-1.592191e-01	3.477173e-02	2.764575e-02	1.854939e-02	1.099345e-02	6.714662e-02	4.277086e-02	2.442705e-03	-3.975046e-03	-1.098501e-02	-1.992859e-02	-7.722305e-02	-9.331262e-02	8.895541e-02	-1.868922e-01	2.413088e-01	2.349901e-01	2.503996e-01	2.443808e-01	-4.897962e-02	-6.212845e-02	1.873745e-01	2.053716e-01	-1.404987e-01	-1.542691e-01	1.018357e-01	1.339516e-01	1.561670e-01	1.691788e-01	1.926259e-01	-6.771608e-02	-3.786859e-02	-9.286967e-03	1.739182e-02	2.762556e-01	2.731352e-01	2.671306e-01	2.643312e-01	2.584860e-01	2.329147e-01	2.448470e-01	2.630203e-01	2.738804e-01	2.881503e-01	-1.582507e-01	-1.546970e-01	-1.513592e-01	2.591856e-01	2.661150e-01	2.767945e-01	2.850387e-01	2.971432e-01	2.708790e-01	2.502988e-01	3.776156e-01	3.827192e-01	3.687282e-01	3.589599e-01	3.491192e-01	-1.077295e-01	-9.896782e-02	-8.934643e-02	-7.993039e-02	-6.992042e-02	-5.980829e-02	-4.922315e-02	-3.328410e-02	-1.642396e-02	1.889150e-03	5.169901e-02	7.802072e-02	1.045034e-01	1.571144e-01	1.819910e-01	3.827415e-01	3.857491e-01	3.838575e-01	3.855581e-01	3.814679e-01	3.785917e-01	3.754440e-01	2.272584e-01	2.007344e-01	5.965279e-02	5.223198e-02	4.406698e-02	2.278025e-01	2.190708e-01	1.671094e-01	1.231987e-01	7.289748e-02	3.393463e-01	3.292080e-01	3.176477e-01	3.033116e-01	2.877307e-01	3.061067e-01	3.182479e-01	3.260512e-01	3.372244e-01	-1.314408e-01	-1.240128e-01	1.782180e-01	1.630369e-01	2.920198e-01	2.978264e-01	2.941987e-01	2.931946e-01	-2.246629e-01	-2.643281e-01	-2.673973e-01	-3.604182e-01	-2.525452e-01	-1.320583e-01	-1.778437e-01	-2.719111e-01	-1.449263e-01	-2.028841e-01	-1.565589e-01	-3.618569e-01	-1.290307e-01	-2.411075e-01	3.362741e-01	-2.771098e-01	-1.009967e-01	-2.325808e-01	-2.141195e-01	-1.187054e-01	2.023662e-01	-1.700387e-01	2.694871e-01	-5.105324e-02	-3.556041e-02	1.610899e-01	9.860654e-02	2.104294e-01	-3.319309e-01	2.391655e-01	5.354228e-02	7.527921e-02	3.455449e-01	-1.579167e-01	-1.126337e-01	-3.091541e-01	-5.392053e-02	-1.047497e-01	-2.837207e-01	-1.633945e-01	-4.033328e-01	-3.465801e-01	-1.678274e-01	1.005946e-01	2.296866e-01	2.469577e-01	-1.864074e-01	-2.615822e-01	-2.148485e-01	-3.906596e-01	-2.406731e-01	-1.022413e-01	-3.135205e-01	-2.914808e-01	1.975020e-01	-1.570420e-01	-1.405782e-01	-1.353438e-01	2.142481e-01	3.503497e-01	3.617248e-01	1.140694e-01	-1.463681e-01	-1.907350e-01	-1.866741e-01	2.136658e-02	5.457305e-03	2.975704e-02	-9.440624e-03	-2.237555e-02	-9.063094e-02	-1.781443e-01	2.310361e-01	-6.371306e-02	-7.670695e-02	1.819020e-01	-1.446570e-01	8.774500e-02	7.359992e-02	1.310088e-01	1.543607e-01	1.894633e-01	-7.440028e-02	-4.515672e-02	-1.672443e-02	4.523347e-03	2.610605e-01	2.534654e-01	2.452418e-01	2.404192e-01	2.657539e-01	-1.532902e-01	-1.490954e-01	2.647311e-01	2.848734e-01	2.145462e-01	3.687407e-01	3.291397e-01	-1.036076e-02	-9.671573e-02	-7.870051e-02	-5.999920e-02	-4.275330e-02	-2.675622e-02	9.078113e-03	3.253329e-02	5.744070e-02	8.249240e-02	1.077050e-01	1.329607e-01	1.574602e-01	1.790261e-01	3.710003e-01	3.691905e-01	3.628989e-01	3.624750e-01	3.538550e-01	1.865536e-01	1.580939e-01	5.903301e-02	4.616004e-02	3.369149e-02	2.220333e-01	2.132681e-01	1.252667e-01	8.490077e-02	3.862009e-02	-7.346530e-03	3.161946e-01	3.040180e-01	2.908380e-01	2.746830e-01	2.550235e-01	2.433989e-01	3.052290e-01	3.203364e-01	-1.304415e-01	-1.233345e-01	1.755973e-01	1.457546e-01	1.296148e-01	2.779623e-01	2.769895e-01	-1.930845e-01	-2.275624e-01	-2.224947e-01	-2.234069e-01	-3.832965e-02	-1.802479e-01	-2.626585e-01	-1.968613e-01	-2.730685e-01	-2.056607e-01	-2.083751e-01	-1.850798e-01	-1.474825e-01	-2.851724e-01	-3.345962e-01	-1.475843e-01	8.648797e-02	3.154560e-01	-2.067312e-01	-2.249644e-02	-1.539852e-01	1.940975e-01	-1.089636e-01	-2.518718e-01	2.302069e-01	-6.425779e-02	1.445588e-01	1.862873e-01	-1.250974e-01	-1.368246e-01	-1.298598e-01	-1.051235e-01	-2.743734e-01	-1.641137e-01	-1.714174e-01	-1.383297e-01	3.413452e-01	1.765384e-01	1.136580e-01	2.052547e-02	-2.534902e-01	-2.623724e-01	-3.763161e-01	-1.129715e-01	-1.429782e-01	-2.520977e-01	-1.479923e-01	-2.530784e-01	-2.288760e-01	1.979745e-01	-3.222866e-01	3.846714e-02	6.139431e-02	-1.578968e-01	-3.336235e-01	-1.007027e-01	-1.591173e-01	9.944397e-02	-3.677548e-01	-2.413878e-01	-6.062048e-03	-3.090226e-01	-2.922123e-01	2.101537e-01	-1.805105e-01	-1.331078e-01	1.940285e-01	3.296052e-01	1.569473e-01	-1.846528e-01	-2.197340e-01	6.971018e-03	-8.381428e-03	-3.629779e-02	-5.091876e-02	-1.705808e-01	2.231933e-01	-7.612203e-02	-8.833202e-02	2.373218e-01	4.526472e-02	3.316101e-02	7.333236e-02	8.869599e-02	1.168318e-01	1.418851e-01	-7.719256e-02	2.504873e-01	2.440081e-01	1.696117e-01	1.997115e-01	1.291241e-01	-1.524658e-01	2.261049e-01	2.428511e-01	3.085994e-01	-1.015393e-01	-8.596239e-02	-2.102913e-02	-6.892772e-02	-5.217697e-02	-3.638989e-02	-4.157080e-03	1.602250e-02	3.885178e-02	6.263144e-02	8.661598e-02	1.108104e-01	1.347518e-01	3.497173e-01	3.532445e-01	3.516160e-01	3.460120e-01	3.394712e-01	3.242590e-01	1.502892e-01	1.193232e-01	5.913645e-02	2.110311e-02	2.159236e-01	2.077485e-01	8.841736e-02	5.272187e-02	1.158413e-02	-2.954668e-02	-6.906461e-02	2.912650e-01	2.759728e-01	2.6