# vtk DataFile Version 3.0
vtk output
ASCII
DATASET UNSTRUCTURED_GRID
POINTS 200 float
9.997500e-01	-3.633242e-05	0.0	9.990000e-01	-1.454720e-04	0.0	9.977600e-01	-3.275035e-04	0.0	9.960200e-01	-5.899061e-04	0.0	9.937800e-01	-9.470182e-04	0.0	9.910500e-01	-1.421883e-03	0.0	9.878400e-01	-2.045026e-03	0.0	9.841300e-01	-2.852695e-03	0.0	9.799500e-01	-3.857151e-03	0.0	9.752800e-01	-5.055521e-03	0.0	9.701500e-01	-6.401007e-03	0.0	9.645400e-01	-7.835178e-03	0.0	9.584700e-01	-9.282770e-03	0.0	9.519400e-01	-1.068849e-02	0.0	9.449600e-01	-1.202444e-02	0.0	9.375400e-01	-1.329505e-02	0.0	9.296900e-01	-1.452765e-02	0.0	9.214000e-01	-1.576051e-02	0.0	9.127000e-01	-1.702091e-02	0.0	9.035800e-01	-1.832991e-02	0.0	8.940600e-01	-1.969119e-02	0.0	8.841500e-01	-2.110017e-02	0.0	8.738500e-01	-2.254866e-02	0.0	8.631800e-01	-2.402456e-02	0.0	8.521600e-01	-2.551722e-02	0.0	8.407700e-01	-2.702346e-02	0.0	8.290500e-01	-2.853404e-02	0.0	8.170100e-01	-3.004509e-02	0.0	8.046400e-01	-3.155579e-02	0.0	7.919700e-01	-3.306047e-02	0.0	7.790100e-01	-3.455587e-02	0.0	7.657800e-01	-3.603737e-02	0.0	7.522800e-01	-3.750241e-02	0.0	7.385200e-01	-3.894716e-02	0.0	7.245300e-01	-4.036574e-02	0.0	7.103200e-01	-4.175452e-02	0.0	6.958900e-01	-4.311096e-02	0.0	6.812700e-01	-4.442984e-02	0.0	6.664700e-01	-4.570818e-02	0.0	6.515000e-01	-4.694319e-02	0.0	6.363800e-01	-4.813156e-02	0.0	6.211300e-01	-4.927037e-02	0.0	6.057600e-01	-5.035775e-02	0.0	5.902800e-01	-5.139206e-02	0.0	5.747100e-01	-5.237124e-02	0.0	5.590600e-01	-5.329409e-02	0.0	5.433600e-01	-5.415852e-02	0.0	5.276100e-01	-5.496431e-02	0.0	5.118400e-01	-5.570979e-02	0.0	4.960500e-01	-5.639490e-02	0.0	4.802700e-01	-5.701825e-02	0.0	4.645100e-01	-5.757944e-02	0.0	4.487800e-01	-5.807797e-02	0.0	4.331100e-01	-5.851275e-02	0.0	4.175000e-01	-5.888353e-02	0.0	4.019700e-01	-5.918939e-02	0.0	3.865400e-01	-5.942943e-02	0.0	3.712300e-01	-5.960275e-02	0.0	3.560400e-01	-5.970854e-02	0.0	3.409900e-01	-5.974565e-02	0.0	3.261100e-01	-5.971297e-02	0.0	3.114000e-01	-5.960934e-02	0.0	2.968700e-01	-5.943341e-02	0.0	2.825500e-01	-5.918410e-02	0.0	2.684500e-01	-5.886012e-02	0.0	2.545700e-01	-5.845982e-02	0.0	2.409400e-01	-5.798235e-02	0.0	2.275700e-01	-5.742646e-02	0.0	2.144700e-01	-5.679088e-02	0.0	2.016600e-01	-5.607496e-02	0.0	1.891400e-01	-5.527706e-02	0.0	1.769300e-01	-5.439679e-02	0.0	1.650400e-01	-5.343337e-02	0.0	1.534900e-01	-5.238704e-02	0.0	1.422900e-01	-5.125759e-02	0.0	1.314400e-01	-5.004379e-02	0.0	1.209500e-01	-4.874545e-02	0.0	1.108500e-01	-4.736540e-02	0.0	1.011300e-01	-4.590153e-02	0.0	9.181000e-02	-4.435598e-02	0.0	8.290000e-02	-4.272994e-02	0.0	7.440000e-02	-4.102281e-02	0.0	6.633000e-02	-3.923818e-02	0.0	5.869000e-02	-3.737580e-02	0.0	5.149000e-02	-3.543772e-02	0.0	4.474000e-02	-3.342652e-02	0.0	3.844000e-02	-3.134191e-02	0.0	3.260000e-02	-2.918678e-02	0.0	2.723000e-02	-2.696482e-02	0.0	2.232000e-02	-2.467104e-02	0.0	1.790000e-02	-2.231941e-02	0.0	1.395000e-02	-1.989912e-02	0.0	1.049000e-02	-1.742138e-02	0.0	7.520000e-03	-1.488703e-02	0.0	5.040000e-03	-1.229616e-02	0.0	3.050000e-03	-9.647073e-03	0.0	1.560000e-03	-6.954722e-03	0.0	5.600000e-04	-4.197587e-03	0.0	6.000000e-05	-1.382079e-03	0.0	0.000000e+00	0.000000e+00	0.0	6.000000e-05	1.261249e-03	0.0	5.600000e-04	3.613920e-03	0.0	1.560000e-03	5.767493e-03	0.0	3.050000e-03	7.774887e-03	0.0	5.040000e-03	9.681565e-03	0.0	7.520000e-03	1.149564e-02	0.0	1.049000e-02	1.323227e-02	0.0	1.395000e-02	1.490210e-02	0.0	1.790000e-02	1.651310e-02	0.0	2.232000e-02	1.806497e-02	0.0	2.723000e-02	1.957084e-02	0.0	3.260000e-02	2.102665e-02	0.0	3.844000e-02	2.244004e-02	0.0	4.474000e-02	2.381239e-02	0.0	5.149000e-02	2.514506e-02	0.0	5.869000e-02	2.644104e-02	0.0	6.633000e-02	2.770104e-02	0.0	7.440000e-02	2.892571e-02	0.0	8.290000e-02	3.011692e-02	0.0	9.181000e-02	3.127355e-02	0.0	1.011300e-01	3.239709e-02	0.0	1.108500e-01	3.348746e-02	0.0	1.209500e-01	3.454352e-02	0.0	1.314400e-01	3.556709e-02	0.0	1.422900e-01	3.655584e-02	0.0	1.534900e-01	3.750949e-02	0.0	1.650400e-01	3.842836e-02	0.0	1.769300e-01	3.931175e-02	0.0	1.891400e-01	4.015813e-02	0.0	2.016600e-01	4.096670e-02	0.0	2.144700e-01	4.173592e-02	0.0	2.275700e-01	4.246533e-02	0.0	2.409400e-01	4.315319e-02	0.0	2.545700e-01	4.379821e-02	0.0	2.684500e-01	4.439895e-02	0.0	2.825500e-01	4.495304e-02	0.0	2.968700e-01	4.545928e-02	0.0	3.114000e-01	4.591584e-02	0.0	3.261100e-01	4.632021e-02	0.0	3.409900e-01	4.667046e-02	0.0	3.560400e-01	4.696468e-02	0.0	3.712300e-01	4.720026e-02	0.0	3.865400e-01	4.737483e-02	0.0	4.019700e-01	4.748622e-02	0.0	4.175000e-01	4.753193e-02	0.0	4.331100e-01	4.750956e-02	0.0	4.487800e-01	4.741685e-02	0.0	4.645100e-01	4.725142e-02	0.0	4.802700e-01	4.701125e-02	0.0	4.960500e-01	4.669431e-02	0.0	5.118400e-01	4.629865e-02	0.0	5.276100e-01	4.582313e-02	0.0	5.433600e-01	4.526604e-02	0.0	5.590600e-01	4.462702e-02	0.0	5.747100e-01	4.390495e-02	0.0	5.902800e-01	4.310049e-02	0.0	6.057600e-01	4.221392e-02	0.0	6.211300e-01	4.124664e-02	0.0	6.363800e-01	4.020009e-02	0.0	6.515000e-01	3.907622e-02	0.0	6.664700e-01	3.787844e-02	0.0	6.812700e-01	3.661099e-02	0.0	6.958900e-01	3.527805e-02	0.0	7.103200e-01	3.388448e-02	0.0	7.245300e-01	3.243788e-02	0.0	7.385200e-01	3.094361e-02	0.0	7.522800e-01	2.940867e-02	0.0	7.657800e-01	2.784298e-02	0.0	7.790100e-01	2.625494e-02	0.0	7.919700e-01	2.465223e-02	0.0	8.046400e-01	2.304537e-02	0.0	8.170100e-01	2.144403e-02	0.0	8.290500e-01	1.986055e-02	0.0	8.407700e-01	1.830173e-02	0.0	8.521600e-01	1.677600e-02	0.0	8.631800e-01	1.529420e-02	0.0	8.738500e-01	1.385681e-02	0.0	8.841500e-01	1.246705e-02	0.0	8.940600e-01	1.112615e-02	0.0	9.035800e-01	9.832426e-03	0.0	9.127000e-01	8.588612e-03	0.0	9.214000e-01	7.405662e-03	0.0	9.296900e-01	6.300118e-03	0.0	9.375400e-01	5.302909e-03	0.0	9.449600e-01	4.443119e-03	0.0	9.519400e-01	3.745626e-03	0.0	9.584700e-01	3.216550e-03	0.0	9.645400e-01	2.835785e-03	0.0	9.701500e-01	2.558599e-03	0.0	9.752800e-01	2.329349e-03	0.0	9.799500e-01	2.095917e-03	0.0	9.841300e-01	1.828658e-03	0.0	9.878400e-01	1.520727e-03	0.0	9.910500e-01	1.190563e-03	0.0	9.937800e-01	8.631517e-04	0.0	9.960200e-01	5.666622e-04	0.0	9.977600e-01	3.231949e-04	0.0	9.990000e-01	1.450789e-04	0.0	9.997500e-01	3.632620e-05	0.0	1.000000e+00	0.000000e+00	0.0	
CELLS 200	600
2	199	0	2	0	1	2	1	2	2	2	3	2	3	4	2	4	5	2	5	6	2	6	7	2	7	8	2	8	9	2	9	10	2	10	11	2	11	12	2	12	13	2	13	14	2	14	15	2	15	16	2	16	17	2	17	18	2	18	19	2	19	20	2	20	21	2	21	22	2	22	23	2	23	24	2	24	25	2	25	26	2	26	27	2	27	28	2	28	29	2	29	30	2	30	31	2	31	32	2	32	33	2	33	34	2	34	35	2	35	36	2	36	37	2	37	38	2	38	39	2	39	40	2	40	41	2	41	42	2	42	43	2	43	44	2	44	45	2	45	46	2	46	47	2	47	48	2	48	49	2	49	50	2	50	51	2	51	52	2	52	53	2	53	54	2	54	55	2	55	56	2	56	57	2	57	58	2	58	59	2	59	60	2	60	61	2	61	62	2	62	63	2	63	64	2	64	65	2	65	66	2	66	67	2	67	68	2	68	69	2	69	70	2	70	71	2	71	72	2	72	73	2	73	74	2	74	75	2	75	76	2	76	77	2	77	78	2	78	79	2	79	80	2	80	81	2	81	82	2	82	83	2	83	84	2	84	85	2	85	86	2	86	87	2	87	88	2	88	89	2	89	90	2	90	91	2	91	92	2	92	93	2	93	94	2	94	95	2	95	96	2	96	97	2	97	98	2	98	99	2	99	100	2	100	101	2	101	102	2	102	103	2	103	104	2	104	105	2	105	106	2	106	107	2	107	108	2	108	109	2	109	110	2	110	111	2	111	112	2	112	113	2	113	114	2	114	115	2	115	116	2	116	117	2	117	118	2	118	119	2	119	120	2	120	121	2	121	122	2	122	123	2	123	124	2	124	125	2	125	126	2	126	127	2	127	128	2	128	129	2	129	130	2	130	131	2	131	132	2	132	133	2	133	134	2	134	135	2	135	136	2	136	137	2	137	138	2	138	139	2	139	140	2	140	141	2	141	142	2	142	143	2	143	144	2	144	145	2	145	146	2	146	147	2	147	148	2	148	149	2	149	150	2	150	151	2	151	152	2	152	153	2	153	154	2	154	155	2	155	156	2	156	157	2	157	158	2	158	159	2	159	160	2	160	161	2	161	162	2	162	163	2	163	164	2	164	165	2	165	166	2	166	167	2	167	168	2	168	169	2	169	170	2	170	171	2	171	172	2	172	173	2	173	174	2	174	175	2	175	176	2	176	177	2	177	178	2	178	179	2	179	180	2	180	181	2	181	182	2	182	183	2	183	184	2	184	185	2	185	186	2	186	187	2	187	188	2	188	189	2	189	190	2	190	191	2	191	192	2	192	193	2	193	194	2	194	195	2	195	196	2	196	197	2	197	198	2	198	199	
CELL_TYPES 200
3	3	3	3	3	3	3	3	3	3	3	3	3	3	3	3	3	3	3	3	3	3	3	3	3	3	3	3	3	3	3	3	3	3	3	3	3	3	3	3	3	3	3	3	3	3	3	3	3	3	3	3	3	3	3	3	3	3	3	3	3	3	3	3	3	3	3	3	3	3	3	3	3	3	3	3	3	3	3	3	3	3	3	3	3	3	3	3	3	3	3	3	3	3	3	3	3	3	3	3	3	3	3	3	3	3	3	3	3	3	3	3	3	3	3	3	3	3	3	3	3	3	3	3	3	3	3	3	3	3	3	3	3	3	3	3	3	3	3	3	3	3	3	3	3	3	3	3	3	3	3	3	3	3	3	3	3	3	3	3	3	3	3	3	3	3	3	3	3	3	3	3	3	3	3	3	3	3	3	3	3	3	3	3	3	3	3	3	3	3	3	3	3	3	3	3	3	3	3	3	
POINT_DATA 200

SCALARS Conservative_1 float 1
LOOKUP_TABLE default
-1.819945e-01	-2.196734e-01	-2.162198e-01	-2.135909e-01	-2.131210e-01	-2.101991e-01	-2.031772e-01	-1.897545e-01	-1.682269e-01	-1.380876e-01	-1.009050e-01	-6.053860e-02	-2.316698e-02	4.705941e-03	1.941719e-02	2.244628e-02	1.923877e-02	1.532872e-02	1.416602e-02	1.667016e-02	2.249894e-02	3.068470e-02	4.013399e-02	5.007379e-02	5.991632e-02	6.947871e-02	7.870609e-02	8.768459e-02	9.660781e-02	1.055378e-01	1.145975e-01	1.237782e-01	1.330437e-01	1.423249e-01	1.515608e-01	1.607071e-01	1.697886e-01	1.788437e-01	1.878276e-01	1.966704e-01	2.052998e-01	2.136867e-01	2.218062e-01	2.296691e-01	2.372757e-01	2.446426e-01	2.517823e-01	2.587201e-01	2.655496e-01	2.723258e-01	2.790728e-01	2.856984e-01	2.919202e-01	2.975007e-01	3.025911e-01	3.076630e-01	3.131857e-01	3.193590e-01	3.261702e-01	3.334807e-01	3.413044e-01	3.496292e-01	3.583557e-01	3.669109e-01	3.741712e-01	3.784799e-01	3.782555e-01	3.726049e-01	3.621790e-01	3.490084e-01	3.357406e-01	3.241332e-01	3.142285e-01	3.045652e-01	2.934146e-01	2.801503e-01	2.651268e-01	2.488640e-01	2.313267e-01	2.123392e-01	1.917765e-01	1.695357e-01	1.454540e-01	1.193006e-01	9.079942e-02	5.972173e-02	2.568078e-02	-1.159088e-02	-5.258242e-02	-9.751629e-02	-1.467973e-01	-2.001979e-01	-2.577200e-01	-3.169981e-01	-3.764242e-01	-4.283368e-01	-4.696818e-01	-4.969041e-01	-4.933428e-01	-4.650355e-01	-4.263677e-01	-3.383286e-01	-1.959693e-01	-4.272627e-02	9.741003e-02	2.114893e-01	2.952798e-01	3.570828e-01	4.052356e-01	4.411367e-01	4.615422e-01	4.662132e-01	4.608796e-01	4.525159e-01	4.454999e-01	4.412876e-01	4.393723e-01	4.388238e-01	4.390920e-01	4.398587e-01	4.407023e-01	4.410132e-01	4.406146e-01	4.399376e-01	4.394112e-01	4.390585e-01	4.385324e-01	4.375342e-01	4.360628e-01	4.342043e-01	4.320263e-01	4.294538e-01	4.263464e-01	4.226178e-01	4.180559e-01	4.124435e-01	4.055278e-01	3.973960e-01	3.884355e-01	3.792789e-01	3.702126e-01	3.610924e-01	3.516213e-01	3.417199e-01	3.315181e-01	3.212820e-01	3.112915e-01	3.019108e-01	2.934899e-01	2.858857e-01	2.783618e-01	2.699925e-01	2.600626e-01	2.485881e-01	2.360676e-01	2.228938e-01	2.092871e-01	1.952802e-01	1.809010e-01	1.661308e-01	1.510488e-01	1.357060e-01	1.201330e-01	1.044147e-01	8.856651e-02	7.268987e-02	5.683282e-02	4.112498e-02	2.560641e-02	1.037248e-02	-4.548901e-03	-1.904332e-02	-3.302015e-02	-4.635383e-02	-5.903927e-02	-7.091867e-02	-8.223357e-02	-9.321054e-02	-1.043146e-01	-1.160847e-01	-1.289743e-01	-1.430141e-01	-1.576247e-01	-1.714646e-01	-1.828014e-01	-1.898468e-01	-1.913008e-01	-1.868512e-01	-1.776610e-01	-1.666991e-01	-1.583624e-01	-1.571067e-01	-1.651560e-01	-1.817172e-01	-2.042584e-01	-2.308040e-01	-2.558345e-01	-2.801228e-01	-3.751002e-01	-2.906536e-01	
SCALARS Conservative_2 float 1
LOOKUP_TABLE default
1.264479e-01	2.323157e-01	2.497197e-01	2.572251e-01	2.641030e-01	2.657929e-01	2.610528e-01	2.469600e-01	2.213862e-01	1.837646e-01	1.364425e-01	8.467270e-02	3.637525e-02	-3.323312e-04	-2.081692e-02	-2.657055e-02	-2.393392e-02	-1.967159e-02	-1.816184e-02	-2.077556e-02	-2.726728e-02	-3.656116e-02	-4.739426e-02	-5.882478e-02	-7.015856e-02	-8.114808e-02	-9.172465e-02	-1.019806e-01	-1.121209e-01	-1.222305e-01	-1.324325e-01	-1.427260e-01	-1.530715e-01	-1.633979e-01	-1.736339e-01	-1.837319e-01	-1.937175e-01	-2.036317e-01	-2.134281e-01	-2.230309e-01	-2.323682e-01	-2.414082e-01	-2.501290e-01	-2.585411e-01	-2.666501e-01	-2.744720e-01	-2.820257e-01	-2.893383e-01	-2.965032e-01	-3.035788e-01	-3.105961e-01	-3.174592e-01	-3.238858e-01	-3.296408e-01	-3.348755e-01	-3.400647e-01	-3.456733e-01	-3.518920e-01	-3.586892e-01	-3.659278e-01	-3.736118e-01	-3.817386e-01	-3.902018e-01	-3.984469e-01	-4.053574e-01	-4.093115e-01	-4.087384e-01	-4.027611e-01	-3.919851e-01	-3.783983e-01	-3.645679e-01	-3.522128e-01	-3.413412e-01	-3.304856e-01	-3.179028e-01	-3.029117e-01	-2.858118e-01	-2.670426e-01	-2.464938e-01	-2.238928e-01	-1.989945e-01	-1.715548e-01	-1.412282e-01	-1.075607e-01	-7.000469e-02	-2.797061e-02	1.937665e-02	7.284766e-02	1.336425e-01	2.028315e-01	2.818751e-01	3.714520e-01	4.730479e-01	5.838003e-01	7.021661e-01	8.174917e-01	9.181142e-01	9.834748e-01	1.008573e+00	9.924773e-01	9.349150e-01	8.101472e-01	5.822887e-01	3.450094e-01	1.283595e-01	-4.382898e-02	-1.700978e-01	-2.625850e-01	-3.325701e-01	-3.845128e-01	-4.177031e-01	-4.331126e-01	-4.367053e-01	-4.354473e-01	-4.339135e-01	-4.338930e-01	-4.352360e-01	-4.372836e-01	-4.396478e-01	-4.421393e-01	-4.444264e-01	-4.459961e-01	-4.467120e-01	-4.470034e-01	-4.473055e-01	-4.476671e-01	-4.477775e-01	-4.473677e-01	-4.464344e-01	-4.450706e-01	-4.433480e-01	-4.411950e-01	-4.384889e-01	-4.351361e-01	-4.309448e-01	-4.256951e-01	-4.191504e-01	-4.113825e-01	-4.027724e-01	-3.939296e-01	-3.851410e-01	-3.762655e-01	-3.670166e-01	-3.573126e-01	-3.472830e-01	-3.371849e-01	-3.272771e-01	-3.179067e-01	-3.094007e-01	-3.016189e-01	-2.938405e-01	-2.851272e-01	-2.747618e-01	-2.627448e-01	-2.495746e-01	-2.356326e-01	-2.211267e-01	-2.060884e-01	-1.905217e-01	-1.744246e-01	-1.578506e-01	-1.408627e-01	-1.234780e-01	-1.057928e-01	-8.781563e-02	-6.966307e-02	-5.138362e-02	-3.312938e-02	-1.494647e-02	3.045918e-03	2.080902e-02	3.819627e-02	5.509241e-02	7.134657e-02	8.691753e-02	1.016559e-01	1.158291e-01	1.297480e-01	1.440034e-01	1.592891e-01	1.761693e-01	1.946552e-01	2.139331e-01	2.321740e-01	2.470011e-01	2.559772e-01	2.573744e-01	2.509010e-01	2.383706e-01	2.240355e-01	2.139202e-01	2.138827e-01	2.266395e-01	2.511100e-01	2.839378e-01	3.226392e-01	3.581458e-01	3.909877e-01	5.329214e-01	2.863520e-01	
SCALARS Conservative_3 float 1
LOOKUP_TABLE default
-1.169882e-01	-9.691967e-02	-9.658875e-02	-9.716774e-02	-1.033530e-01	-1.151440e-01	-1.318890e-01	-1.520425e-01	-1.730184e-01	-1.913277e-01	-2.032196e-01	-2.056808e-01	-1.978276e-01	-1.820374e-01	-1.632159e-01	-1.463942e-01	-1.345267e-01	-1.278550e-01	-1.251370e-01	-1.246237e-01	-1.248782e-01	-1.249761e-01	-1.244488e-01	-1.232694e-01	-1.215249e-01	-1.194314e-01	-1.171254e-01	-1.146925e-01	-1.122023e-01	-1.096266e-01	-1.069786e-01	-1.042233e-01	-1.013370e-01	-9.829439e-02	-9.508495e-02	-9.170492e-02	-8.817050e-02	-8.448684e-02	-8.066407e-02	-7.671112e-02	-7.263608e-02	-6.845196e-02	-6.416940e-02	-5.980063e-02	-5.535478e-02	-5.084121e-02	-4.626928e-02	-4.163235e-02	-3.695153e-02	-3.222027e-02	-2.742128e-02	-2.252333e-02	-1.751634e-02	-1.240199e-02	-7.186244e-03	-1.846053e-03	3.648853e-03	9.346200e-03	1.527403e-02	2.148419e-02	2.800782e-02	3.490493e-02	4.223541e-02	5.004282e-02	5.834586e-02	6.707237e-02	7.610154e-02	8.529222e-02	9.458943e-02	1.041315e-01	1.141702e-01	1.249706e-01	1.366316e-01	1.490033e-01	1.618750e-01	1.751570e-01	1.889647e-01	2.034659e-01	2.186623e-01	2.345396e-01	2.511159e-01	2.683883e-01	2.863745e-01	3.049937e-01	3.241417e-01	3.436692e-01	3.632819e-01	3.825061e-01	4.005628e-01	4.162743e-01	4.278650e-01	4.323849e-01	4.259398e-01	4.031845e-01	3.571075e-01	2.805828e-01	1.704552e-01	4.063883e-02	-1.040980e-01	-2.032017e-01	-2.959284e-01	-4.667673e-01	-6.213548e-01	-6.852702e-01	-6.852582e-01	-6.470253e-01	-5.907396e-01	-5.320771e-01	-4.785765e-01	-4.303175e-01	-3.855499e-01	-3.438996e-01	-3.065435e-01	-2.743787e-01	-2.472446e-01	-2.242827e-01	-2.045442e-01	-1.872670e-01	-1.719995e-01	-1.583616e-01	-1.460193e-01	-1.346809e-01	-1.241866e-01	-1.145141e-01	-1.056020e-01	-9.731371e-02	-8.951081e-02	-8.207857e-02	-7.498174e-02	-6.820216e-02	-6.168438e-02	-5.538658e-02	-4.925388e-02	-4.325472e-02	-3.736141e-02	-3.151188e-02	-2.567494e-02	-1.982243e-02	-1.399582e-02	-8.222053e-03	-2.497518e-03	3.237370e-03	9.018439e-03	1.486232e-02	2.076390e-02	2.674451e-02	3.279980e-02	3.889337e-02	4.500540e-02	5.114208e-02	5.737400e-02	6.372966e-02	7.015126e-02	7.655458e-02	8.286256e-02	8.906544e-02	9.516111e-02	1.011135e-01	1.068901e-01	1.124323e-01	1.177047e-01	1.226807e-01	1.272874e-01	1.315213e-01	1.353059e-01	1.386446e-01	1.414657e-01	1.437907e-01	1.455449e-01	1.467533e-01	1.473545e-01	1.473890e-01	1.468507e-01	1.458295e-01	1.443909e-01	1.427555e-01	1.410333e-01	1.394074e-01	1.379068e-01	1.363242e-01	1.341248e-01	1.304739e-01	1.244480e-01	1.154072e-01	1.033937e-01	8.938209e-02	7.529313e-02	6.370092e-02	5.730963e-02	5.804172e-02	6.608381e-02	7.928721e-02	9.374397e-02	1.059103e-01	1.141228e-01	1.184153e-01	1.199670e-01	1.331560e-01	1.265544e-01	-2.543840e-01	
SCALARS Conservative_4 float 1
LOOKUP_TABLE default
-2.075298e-02	-4.930939e-02	-5.089425e-02	-5.126066e-02	-5.198181e-02	-5.171797e-02	-5.026479e-02	-4.710951e-02	-4.184974e-02	-3.435677e-02	-2.501318e-02	-1.479608e-02	-5.262126e-03	1.871128e-03	5.611190e-03	6.314734e-03	5.379701e-03	4.285512e-03	3.904821e-03	4.496032e-03	5.946248e-03	8.005702e-03	1.039909e-02	1.290447e-02	1.539182e-02	1.779683e-02	2.012393e-02	2.239375e-02	2.463896e-02	2.689766e-02	2.917493e-02	3.148646e-02	3.382204e-02	3.616930e-02	3.850636e-02	4.081958e-02	4.311632e-02	4.540232e-02	4.767235e-02	4.990372e-02	5.208437e-02	5.420134e-02	5.625390e-02	5.823896e-02	6.016246e-02	6.202316e-02	6.382920e-02	6.558501e-02	6.730878e-02	6.901643e-02	7.072439e-02	7.240133e-02	7.397691e-02	7.539404e-02	7.668751e-02	7.797900e-02	7.938406e-02	8.095657e-02	8.268326e-02	8.454070e-02	8.651854e-02	8.862551e-02	9.081551e-02	9.295381e-02	9.473741e-02	9.576895e-02	9.564260e-02	9.417279e-02	9.151369e-02	8.820189e-02	8.486643e-02	8.194812e-02	7.943331e-02	7.695859e-02	7.410776e-02	7.072053e-02	6.690945e-02	6.278275e-02	5.833618e-02	5.352491e-02	4.832308e-02	4.270245e-02	3.663030e-02	3.004749e-02	2.289927e-02	1.511781e-02	6.633830e-03	-2.621639e-03	-1.273196e-02	-2.379097e-02	-3.575307e-02	-4.872672e-02	-6.240838e-02	-7.650912e-02	-9.014411e-02	-1.024610e-01	-1.109526e-01	-1.120098e-01	-1.083107e-01	-1.044022e-01	-9.747427e-02	-7.309256e-02	-3.755384e-02	-1.597986e-03	3.090969e-02	5.685636e-02	7.614162e-02	9.053699e-02	1.021152e-01	1.108435e-01	1.159977e-01	1.172909e-01	1.160741e-01	1.140210e-01	1.122565e-01	1.111717e-01	1.106773e-01	1.105396e-01	1.106130e-01	1.108261e-01	1.110584e-01	1.111666e-01	1.110931e-01	1.109391e-01	1.108163e-01	1.107358e-01	1.106146e-01	1.103825e-01	1.100218e-01	1.095616e-01	1.090195e-01	1.083714e-01	1.075961e-01	1.066537e-01	1.055120e-01	1.040994e-01	1.023691e-01	1.003236e-01	9.806868e-02	9.575216e-02	9.345777e-02	9.114947e-02	8.875528e-02	8.624977e-02	8.367165e-02	8.108254e-02	7.854472e-02	7.615304e-02	7.399530e-02	7.204324e-02	7.013689e-02	6.801820e-02	6.551000e-02	6.261172e-02	5.944321e-02	5.611927e-02	5.268339e-02	4.914621e-02	4.550159e-02	4.177003e-02	3.795385e-02	3.407386e-02	3.013495e-02	2.615852e-02	2.215083e-02	1.813454e-02	1.412516e-02	1.015310e-02	6.225824e-03	2.367425e-03	-1.412840e-03	-5.085948e-03	-8.622205e-03	-1.200848e-02	-1.519993e-02	-1.821808e-02	-2.107685e-02	-2.385750e-02	-2.667070e-02	-2.966917e-02	-3.296086e-02	-3.656432e-02	-4.031214e-02	-4.386681e-02	-4.677180e-02	-4.857306e-02	-4.894116e-02	-4.780009e-02	-4.546569e-02	-4.271756e-02	-4.071331e-02	-4.060015e-02	-4.287140e-02	-4.730809e-02	-5.324466e-02	-6.064631e-02	-6.723391e-02	-7.423619e-02	-1.237385e-01	-7.765227e-02	
SCALARS Surface_Sensitivity float 1
LOOKUP_TABLE default
-4.924370e+02	1.023561e+02	4.819110e+00	3.310997e+00	2.763093e+00	1.596140e+00	1.197594e+00	9.267510e-01	6.594793e-01	4.001587e-01	2.189248e-01	-7.221882e-03	-3.109045e-01	-3.989030e-01	-1.595330e-01	1.631853e-01	3.068110e-01	2.767124e-01	1.884386e-01	1.133044e-01	5.789733e-02	2.417365e-02	1.156490e-02	8.309504e-03	1.423033e-02	2.181388e-02	2.909418e-02	3.314013e-02	2.717509e-02	1.675349e-02	6.531947e-03	6.406651e-03	1.563271e-02	2.518421e-02	2.975510e-02	2.855406e-02	1.990717e-02	8.649026e-03	2.332710e-03	1.002359e-03	4.946324e-03	1.142113e-02	1.945963e-02	2.144130e-02	1.412086e-02	-2.081779e-03	-1.218100e-02	-2.662622e-03	2.138266e-02	1.633027e-02	-5.800574e-02	-1.747864e-01	-2.409860e-01	-1.784668e-01	3.384508e-02	3.549390e-01	6.845722e-01	8.692950e-01	7.781775e-01	4.125971e-01	-1.007731e-01	-6.000478e-01	-9.728214e-01	-1.145708e+00	-1.079278e+00	-7.672295e-01	-2.686145e-01	2.901201e-01	7.155530e-01	8.504664e-01	6.520052e-01	2.500561e-01	-1.135898e-01	-2.380094e-01	-1.323459e-01	1.693148e-02	6.173447e-02	2.759489e-02	-1.531622e-03	-1.296282e-02	-1.950456e-02	-2.419070e-02	-1.922177e-02	1.148247e-02	4.401278e-02	8.692383e-02	1.701811e-01	2.888342e-01	4.721418e-01	7.894637e-01	1.273041e+00	1.977230e+00	3.060798e+00	4.130409e+00	4.533958e+00	5.019815e+00	4.414391e+00	1.194163e+01	7.660023e+00	-7.407732e+00	3.046469e+01	3.266693e+01	2.309273e+01	1.849318e+01	8.883603e+00	3.364293e+00	2.272920e+00	3.316834e+00	3.935124e+00	2.496188e+00	-3.361871e-01	-2.606386e+00	-3.272415e+00	-2.693524e+00	-1.548874e+00	-4.335275e-01	3.274048e-01	7.104508e-01	8.134488e-01	7.730049e-01	7.293087e-01	7.521457e-01	8.080054e-01	8.092650e-01	7.273882e-01	6.140580e-01	5.065843e-01	4.247881e-01	3.790533e-01	3.681252e-01	3.598412e-01	3.219895e-01	2.407291e-01	1.203478e-01	-3.511300e-02	-2.246521e-01	-4.295630e-01	-6.092503e-01	-7.111155e-01	-7.272095e-01	-7.179711e-01	-7.564638e-01	-8.499909e-01	-9.275216e-01	-8.816559e-01	-6.156370e-01	-9.202309e-02	5.789312e-01	1.097808e+00	1.137883e+00	7.056268e-01	1.487175e-01	-1.941835e-01	-2.402283e-01	-1.319537e-01	-3.926177e-02	-1.640767e-02	-2.000737e-02	-1.657499e-02	-2.022164e-03	5.982113e-03	3.289181e-03	-3.885013e-03	-1.154069e-02	-1.684854e-02	-1.975812e-02	-1.897080e-02	-1.852034e-02	-1.499262e-02	-1.631566e-02	-1.907038e-02	-2.308122e-02	-2.821489e-02	-3.084275e-02	-2.734475e-02	-2.932711e-02	-3.202266e-02	-4.302270e-02	-6.471157e-02	-9.834771e-02	-1.362640e-01	-1.684099e-01	-1.758299e-01	-1.508701e-01	-8.841034e-02	-2.696941e-04	9.101086e-02	1.464048e-01	1.106184e-01	-1.049439e-01	-6.022748e-01	-1.251415e+00	-1.851956e+00	-2.550825e+00	-4.472509e+00	-5.732037e+00	-9.386395e+00	-1.874931e+02	3.145024e+02	4.199112e+02	