# vtk DataFile Version 3.0
vtk output
ASCII
DATASET UNSTRUCTURED_GRID
POINTS 5233 float
9.997500e-01	-3.633243e-05	0.0	9.990000e-01	-1.454723e-04	0.0	9.977600e-01	-3.275074e-04	0.0	9.960200e-01	-5.899271e-04	0.0	9.937800e-01	-9.470947e-04	0.0	9.910500e-01	-1.422096e-03	0.0	9.878400e-01	-2.045517e-03	0.0	9.841300e-01	-2.853675e-03	0.0	9.799500e-01	-3.858886e-03	0.0	9.752800e-01	-5.058308e-03	0.0	9.701500e-01	-6.405125e-03	0.0	9.645400e-01	-7.840864e-03	0.0	9.584700e-01	-9.290185e-03	0.0	9.519400e-01	-1.069773e-02	0.0	9.449600e-01	-1.203556e-02	0.0	9.375400e-01	-1.330807e-02	0.0	9.296900e-01	-1.454256e-02	0.0	9.214000e-01	-1.577731e-02	0.0	9.127000e-01	-1.703959e-02	0.0	9.035800e-01	-1.835041e-02	0.0	8.940600e-01	-1.971343e-02	0.0	8.841500e-01	-2.112404e-02	0.0	8.738500e-01	-2.257403e-02	0.0	8.631800e-01	-2.405129e-02	0.0	8.521600e-01	-2.554518e-02	0.0	8.407700e-01	-2.705253e-02	0.0	8.290500e-01	-2.856410e-02	0.0	8.170100e-01	-3.007605e-02	0.0	8.046400e-01	-3.158755e-02	0.0	7.919700e-01	-3.309294e-02	0.0	7.790100e-01	-3.458898e-02	0.0	7.657800e-01	-3.607103e-02	0.0	7.522800e-01	-3.753655e-02	0.0	7.385200e-01	-3.898168e-02	0.0	7.245300e-01	-4.040056e-02	0.0	7.103200e-01	-4.178956e-02	0.0	6.958900e-01	-4.314611e-02	0.0	6.812700e-01	-4.446501e-02	0.0	6.664700e-01	-4.574328e-02	0.0	6.515000e-01	-4.697812e-02	0.0	6.363800e-01	-4.816624e-02	0.0	6.211300e-01	-4.930472e-02	0.0	6.057600e-01	-5.039170e-02	0.0	5.902800e-01	-5.142555e-02	0.0	5.747100e-01	-5.240421e-02	0.0	5.590600e-01	-5.332653e-02	0.0	5.433600e-01	-5.419042e-02	0.0	5.276100e-01	-5.499567e-02	0.0	5.118400e-01	-5.574064e-02	0.0	4.960500e-01	-5.642529e-02	0.0	4.802700e-01	-5.704826e-02	0.0	4.645100e-01	-5.760916e-02	0.0	4.487800e-01	-5.810752e-02	0.0	4.331100e-01	-5.854227e-02	0.0	4.175000e-01	-5.891318e-02	0.0	4.019700e-01	-5.921934e-02	0.0	3.865400e-01	-5.945988e-02	0.0	3.712300e-01	-5.963391e-02	0.0	3.560400e-01	-5.974063e-02	0.0	3.409900e-01	-5.977888e-02	0.0	3.261100e-01	-5.974757e-02	0.0	3.114000e-01	-5.964555e-02	0.0	2.968700e-01	-5.947144e-02	0.0	2.825500e-01	-5.922417e-02	0.0	2.684500e-01	-5.890243e-02	0.0	2.545700e-01	-5.850456e-02	0.0	2.409400e-01	-5.802969e-02	0.0	2.275700e-01	-5.747653e-02	0.0	2.144700e-01	-5.684380e-02	0.0	2.016600e-01	-5.613083e-02	0.0	1.891400e-01	-5.533591e-02	0.0	1.769300e-01	-5.445865e-02	0.0	1.650400e-01	-5.349820e-02	0.0	1.534900e-01	-5.245479e-02	0.0	1.422900e-01	-5.132812e-02	0.0	1.314400e-01	-5.011696e-02	0.0	1.209500e-01	-4.882104e-02	0.0	1.108500e-01	-4.744315e-02	0.0	1.011300e-01	-4.598113e-02	0.0	9.181000e-02	-4.443707e-02	0.0	8.290000e-02	-4.281212e-02	0.0	7.440000e-02	-4.110561e-02	0.0	6.633000e-02	-3.932109e-02	0.0	5.869000e-02	-3.745827e-02	0.0	5.149000e-02	-3.551916e-02	0.0	4.474000e-02	-3.350628e-02	0.0	3.844000e-02	-3.141932e-02	0.0	3.260000e-02	-2.926114e-02	0.0	2.723000e-02	-2.703541e-02	0.0	2.232000e-02	-2.473712e-02	0.0	1.790000e-02	-2.238024e-02	0.0	1.395000e-02	-1.995397e-02	0.0	1.049000e-02	-1.746956e-02	0.0	7.520000e-03	-1.492793e-02	0.0	5.040000e-03	-1.232925e-02	0.0	3.050000e-03	-9.671989e-03	0.0	1.560000e-03	-6.971381e-03	0.0	5.600000e-04	-4.206276e-03	0.0	6.000000e-05	-1.384021e-03	0.0	0.000000e+00	0.000000e+00	0.0	6.000000e-05	1.263724e-03	0.0	5.600000e-04	3.624992e-03	0.0	1.560000e-03	5.788749e-03	0.0	3.050000e-03	7.806753e-03	0.0	5.040000e-03	9.724024e-03	0.0	7.520000e-03	1.154832e-02	0.0	1.049000e-02	1.329462e-02	0.0	1.395000e-02	1.497344e-02	0.0	1.790000e-02	1.659269e-02	0.0	2.232000e-02	1.815200e-02	0.0	2.723000e-02	1.966451e-02	0.0	3.260000e-02	2.112609e-02	0.0	3.844000e-02	2.254444e-02	0.0	4.474000e-02	2.392092e-02	0.0	5.149000e-02	2.525690e-02	0.0	5.869000e-02	2.655542e-02	0.0	6.633000e-02	2.781718e-02	0.0	7.440000e-02	2.904287e-02	0.0	8.290000e-02	3.023439e-02	0.0	9.181000e-02	3.139064e-02	0.0	1.011300e-01	3.251313e-02	0.0	1.108500e-01	3.360183e-02	0.0	1.209500e-01	3.465561e-02	0.0	1.314400e-01	3.567632e-02	0.0	1.422900e-01	3.666168e-02	0.0	1.534900e-01	3.761142e-02	0.0	1.650400e-01	3.852590e-02	0.0	1.769300e-01	3.940445e-02	0.0	1.891400e-01	4.024559e-02	0.0	2.016600e-01	4.104853e-02	0.0	2.144700e-01	4.181177e-02	0.0	2.275700e-01	4.253492e-02	0.0	2.409400e-01	4.321624e-02	0.0	2.545700e-01	4.385451e-02	0.0	2.684500e-01	4.444831e-02	0.0	2.825500e-01	4.499534e-02	0.0	2.968700e-01	4.549442e-02	0.0	3.114000e-01	4.594377e-02	0.0	3.261100e-01	4.634095e-02	0.0	3.409900e-01	4.668405e-02	0.0	3.560400e-01	4.697123e-02	0.0	3.712300e-01	4.719990e-02	0.0	3.865400e-01	4.736778e-02	0.0	4.019700e-01	4.747270e-02	0.0	4.175000e-01	4.751222e-02	0.0	4.331100e-01	4.748398e-02	0.0	4.487800e-01	4.738576e-02	0.0	4.645100e-01	4.721520e-02	0.0	4.802700e-01	4.697033e-02	0.0	4.960500e-01	4.664913e-02	0.0	5.118400e-01	4.624967e-02	0.0	5.276100e-01	4.577082e-02	0.0	5.433600e-01	4.521088e-02	0.0	5.590600e-01	4.456950e-02	0.0	5.747100e-01	4.384554e-02	0.0	5.902800e-01	4.303966e-02	0.0	6.057600e-01	4.215212e-02	0.0	6.211300e-01	4.118431e-02	0.0	6.363800e-01	4.013761e-02	0.0	6.515000e-01	3.901398e-02	0.0	6.664700e-01	3.781677e-02	0.0	6.812700e-01	3.655019e-02	0.0	6.958900e-01	3.521840e-02	0.0	7.103200e-01	3.382620e-02	0.0	7.245300e-01	3.238115e-02	0.0	7.385200e-01	3.088860e-02	0.0	7.522800e-01	2.935549e-02	0.0	7.657800e-01	2.779172e-02	0.0	7.790100e-01	2.620566e-02	0.0	7.919700e-01	2.460497e-02	0.0	8.046400e-01	2.300016e-02	0.0	8.170100e-01	2.140088e-02	0.0	8.290500e-01	1.981947e-02	0.0	8.407700e-01	1.826273e-02	0.0	8.521600e-01	1.673910e-02	0.0	8.631800e-01	1.525942e-02	0.0	8.738500e-01	1.382418e-02	0.0	8.841500e-01	1.243659e-02	0.0	8.940600e-01	1.109785e-02	0.0	9.035800e-01	9.806286e-03	0.0	9.127000e-01	8.564594e-03	0.0	9.214000e-01	7.383723e-03	0.0	9.296900e-01	6.280231e-03	0.0	9.375400e-01	5.285083e-03	0.0	9.449600e-01	4.427421e-03	0.0	9.519400e-01	3.732158e-03	0.0	9.584700e-01	3.205413e-03	0.0	9.645400e-01	2.827009e-03	0.0	9.701500e-01	2.552089e-03	0.0	9.752800e-01	2.324855e-03	0.0	9.799500e-01	2.093074e-03	0.0	9.841300e-01	1.827031e-03	0.0	9.878400e-01	1.519903e-03	0.0	9.910500e-01	1.190202e-03	0.0	9.937800e-01	8.630219e-04	0.0	9.960200e-01	5.666263e-04	0.0	9.977600e-01	3.231883e-04	0.0	9.990000e-01	1.450783e-04	0.0	9.997500e-01	3.632619e-05	0.0	1.000000e+00	0.000000e+00	0.0	1.984229e+01	2.506660e+00	0.0	1.937166e+01	4.973800e+00	0.0	1.859553e+01	7.362490e+00	0.0	1.752613e+01	9.635070e+00	0.0	1.618034e+01	1.175571e+01	0.0	1.457937e+01	1.369094e+01	0.0	1.274848e+01	1.541027e+01	0.0	1.071654e+01	1.688656e+01	0.0	8.515590e+00	1.809654e+01	0.0	6.180340e+00	1.902113e+01	0.0	3.747630e+00	1.964575e+01	0.0	1.255810e+00	1.996053e+01	0.0	-1.255810e+00	1.996053e+01	0.0	-3.747630e+00	1.964574e+01	0.0	-6.180340e+00	1.902113e+01	0.0	-8.515590e+00	1.809654e+01	0.0	-1.071654e+01	1.688656e+01	0.0	-1.274848e+01	1.541026e+01	0.0	-1.457937e+01	1.369094e+01	0.0	-1.618034e+01	1.175570e+01	0.0	-1.752613e+01	9.635070e+00	0.0	-1.859553e+01	7.362490e+00	0.0	-1.937166e+01	4.973800e+00	0.0	-1.984229e+01	2.506660e+00	0.0	-2.000000e+01	0.000000e+00	0.0	-1.984229e+01	-2.506670e+00	0.0	-1.937166e+01	-4.973800e+00	0.0	-1.859553e+01	-7.362490e+00	0.0	-1.752613e+01	-9.635080e+00	0.0	-1.618034e+01	-1.175571e+01	0.0	-1.457937e+01	-1.369094e+01	0.0	-1.274848e+01	-1.541027e+01	0.0	-1.071653e+01	-1.688656e+01	0.0	-8.515580e+00	-1.809654e+01	0.0	-6.180340e+00	-1.902113e+01	0.0	-3.747620e+00	-1.964575e+01	0.0	-1.255810e+00	-1.996053e+01	0.0	1.255810e+00	-1.996053e+01	0.0	3.747630e+00	-1.964574e+01	0.0	6.180340e+00	-1.902113e+01	0.0	8.515590e+00	-1.809654e+01	0.0	1.071654e+01	-1.688656e+01	0.0	1.274848e+01	-1.541026e+01	0.0	1.457937e+01	-1.369094e+01	0.0	1.618034e+01	-1.175570e+01	0.0	1.752614e+01	-9.635070e+00	0.0	1.859553e+01	-7.362490e+00	0.0	1.937166e+01	-4.973790e+00	0.0	1.984229e+01	-2.506660e+00	0.0	2.000000e+01	0.000000e+00	0.0	6.074236e-02	-4.532135e-02	0.0	6.601883e-01	-6.002193e-02	0.0	4.255533e-01	6.172227e-02	0.0	6.897642e-01	4.910604e-02	0.0	3.791232e-01	-7.360580e-02	0.0	9.994675e-01	-7.275896e-04	0.0	9.985544e-01	-1.331422e-03	0.0	7.738131e-01	-4.740007e-02	0.0	6.898600e-01	-5.714814e-02	0.0	-1.127160e-03	5.516612e-03	0.0	7.467800e-01	-5.080747e-02	0.0	5.833311e-01	5.753382e-02	0.0	9.928160e-01	-3.736233e-03	0.0	9.899359e-01	-4.744183e-03	0.0	5.989072e-01	5.659899e-02	0.0	7.187646e-01	-5.406359e-02	0.0	-1.468675e-03	5.997999e-04	0.0	9.865725e-01	-5.906480e-03	0.0	9.827328e-01	-7.226378e-03	0.0	-1.302046e-03	-6.473065e-03	0.0	6.451051e-01	-6.137254e-02	0.0	8.244819e-01	-4.029788e-02	0.0	7.997421e-01	-4.389420e-02	0.0	3.484809e-01	6.060761e-02	0.0	8.479020e-01	-3.666747e-02	0.0	2.473656e-01	5.609742e-02	0.0	8.699420e-01	-3.302718e-02	0.0	1.046398e-02	1.734337e-02	0.0	8.904957e-01	-2.943315e-02	0.0	7.702148e-02	-4.969934e-02	0.0	9.094909e-01	-2.594017e-02	0.0	-1.766762e-03	-3.206992e-03	0.0	9.424825e-01	-1.916824e-02	0.0	9.268474e-01	-2.255014e-02	0.0	1.794782e-02	-2.749693e-02	0.0	4.257416e-01	-7.303662e-02	0.0	8.591035e-01	-3.484311e-02	0.0	9.563355e-01	-1.566692e-02	0.0	9.784088e-01	-8.725335e-03	0.0	9.683300e-01	-1.208065e-02	0.0	1.582632e-01	-6.357390e-02	0.0	9.001950e-01	-2.767206e-02	0.0	7.604294e-01	-4.911959e-02	0.0	9.971359e-01	-2.087281e-03	0.0	5.990500e-01	-6.504519e-02	0.0	4.414441e-01	-7.268678e-02	0.0	5.363196e-01	-6.898022e-02	0.0	4.730157e-01	-7.175431e-02	0.0	5.046766e-01	-7.051688e-02	0.0	4.888342e-01	-7.117253e-02	0.0	1.249493e-01	-5.906546e-02	0.0	2.784417e-02	-3.297663e-02	0.0	3.945689e-01	-7.349782e-02	0.0	4.621901e-02	-4.062326e-02	0.0	4.101097e-01	-7.330842e-02	0.0	3.187146e-01	-7.321376e-02	0.0	3.486125e-01	-7.358050e-02	0.0	3.350772e-02	-3.558996e-02	0.0	2.895104e-01	-7.250830e-02	0.0	9.348849e-01	-2.086606e-02	0.0	1.468045e-01	-6.216177e-02	0.0	1.946434e-01	-6.723381e-02	0.0	8.579568e-02	-5.175703e-02	0.0	1.045869e-01	-5.560428e-02	0.0	5.678223e-01	-6.716045e-02	0.0	1.700658e-01	-6.489221e-02	0.0	6.145275e-01	-6.388348e-02	0.0	8.804131e-01	-3.122173e-02	0.0	2.266814e-02	-3.027728e-02	0.0	9.952218e-01	-2.870136e-03	0.0	6.736373e-03	-1.882158e-02	0.0	1.849216e-02	2.151204e-02	0.0	9.183775e-01	-2.423568e-02	0.0	9.49640
[...]
POINT_DATA 5233

SCALARS Conservative_1 float 1
LOOKUP_TABLE default
1.199829e+00	1.181603e+00	1.171179e+00	1.164740e+00	1.160166e+00	1.155701e+00	1.148817e+00	1.137899e+00	1.121717e+00	1.100363e+00	1.075074e+00	1.048463e+00	1.024896e+00	1.008361e+00	9.999879e-01	9.979297e-01	9.990391e-01	1.000482e+00	1.000509e+00	9.985207e-01	9.947372e-01	9.897156e-01	9.840412e-01	9.781857e-01	9.724267e-01	9.668751e-01	9.615222e-01	9.563215e-01	9.512084e-01	9.461515e-01	9.411347e-01	9.361143e-01	9.310561e-01	9.259768e-01	9.209275e-01	9.159566e-01	9.110828e-01	9.063106e-01	9.016513e-01	8.971214e-01	8.927207e-01	8.884597e-01	8.843210e-01	8.803210e-01	8.764747e-01	8.728338e-01	8.693876e-01	8.660724e-01	8.627411e-01	8.593839e-01	8.562032e-01	8.535527e-01	8.515463e-01	8.498920e-01	8.479170e-01	8.448701e-01	8.402517e-01	8.342101e-01	8.276246e-01	8.217520e-01	8.174785e-01	8.149969e-01	8.140347e-01	8.141591e-01	8.150604e-01	8.165394e-01	8.185470e-01	8.209994e-01	8.238105e-01	8.268677e-01	8.301901e-01	8.339405e-01	8.383659e-01	8.435344e-01	8.493696e-01	8.557250e-01	8.626655e-01	8.703692e-01	8.788932e-01	8.882768e-01	8.986319e-01	9.100174e-01	9.225845e-01	9.364512e-01	9.518073e-01	9.689301e-01	9.880475e-01	1.009518e+00	1.033828e+00	1.061292e+00	1.092441e+00	1.127743e+00	1.167044e+00	1.209885e+00	1.254555e+00	1.298041e+00	1.331744e+00	1.350900e+00	1.339534e+00	1.308268e+00	1.284254e+00	1.221089e+00	1.099442e+00	1.001961e+00	9.259661e-01	8.702616e-01	8.322847e-01	8.072851e-01	7.904569e-01	7.790606e-01	7.714008e-01	7.663086e-01	7.632245e-01	7.614111e-01	7.604945e-01	7.604711e-01	7.612124e-01	7.624816e-01	7.639573e-01	7.653124e-01	7.665638e-01	7.680354e-01	7.699857e-01	7.722646e-01	7.744728e-01	7.763826e-01	7.780859e-01	7.797296e-01	7.814167e-01	7.832176e-01	7.851874e-01	7.873099e-01	7.895125e-01	7.916945e-01	7.938128e-01	7.958418e-01	7.977715e-01	7.995638e-01	8.012276e-01	8.028786e-01	8.047294e-01	8.069357e-01	8.095467e-01	8.125243e-01	8.158714e-01	8.196493e-01	8.238894e-01	8.285617e-01	8.334965e-01	8.384890e-01	8.433343e-01	8.480888e-01	8.530490e-01	8.585653e-01	8.646995e-01	8.712220e-01	8.779109e-01	8.847648e-01	8.919510e-01	8.995171e-01	9.074122e-01	9.155488e-01	9.238776e-01	9.323861e-01	9.410446e-01	9.498399e-01	9.587220e-01	9.676731e-01	9.766189e-01	9.855618e-01	9.944189e-01	1.003110e+00	1.011571e+00	1.019720e+00	1.027509e+00	1.034918e+00	1.041992e+00	1.048913e+00	1.055939e+00	1.063461e+00	1.071774e+00	1.080976e+00	1.090684e+00	1.100036e+00	1.107783e+00	1.112588e+00	1.113362e+00	1.109742e+00	1.102492e+00	1.093778e+00	1.086677e+00	1.084159e+00	1.088064e+00	1.098279e+00	1.112853e+00	1.130017e+00	1.148479e+00	1.168636e+00	1.192714e+00	1.181127e+00	9.999764e-01	9.999694e-01	9.999527e-01	9.999288e-01	9.999046e-01	9.998764e-01	9.998368e-01	9.997815e-01	9.997188e-01	9.996667e-01	9.996323e-01	9.996438e-01	9.996982e-01	9.998089e-01	9.999040e-01	9.999808e-01	1.000023e+00	1.000049e+00	1.000064e+00	1.000070e+00	1.000073e+00	1.000074e+00	1.000074e+00	1.000076e+00	1.000077e+00	1.000080e+00	1.000085e+00	1.000092e+00	1.000101e+00	1.000114e+00	1.000129e+00	1.000150e+00	1.000169e+00	1.000196e+00	1.000213e+00	1.000224e+00	1.000226e+00	1.000213e+00	1.000203e+00	1.000190e+00	1.000184e+00	1.000168e+00	1.000151e+00	1.000130e+00	1.000106e+00	1.000078e+00	1.000060e+00	1.000046e+00	1.000013e+00	9.999797e-01	9.443307e-01	9.020668e-01	8.214050e-01	9.232639e-01	8.406847e-01	1.183062e+00	1.173570e+00	9.408037e-01	9.112720e-01	1.217006e+00	9.308307e-01	8.720746e-01	1.151717e+00	1.144987e+00	8.786887e-01	9.208895e-01	1.307637e+00	1.136015e+00	1.123647e+00	1.337687e+00	8.976497e-01	9.609033e-01	9.507427e-01	8.073082e-01	9.714741e-01	7.943576e-01	9.825801e-01	8.784190e-01	9.931900e-01	9.171311e-01	1.000618e+00	1.344665e+00	1.006088e+00	1.003002e+00	1.100368e+00	8.522891e-01	9.769837e-01	1.025356e+00	1.107395e+00	1.065588e+00	8.484513e-01	9.974986e-01	9.358369e-01	1.164147e+00	8.851353e-01	8.538365e-01	8.706357e-01	8.576913e-01	8.639702e-01	8.606409e-01	8.683324e-01	1.042990e+00	8.461740e-01	9.775518e-01	8.499732e-01	8.197387e-01	8.278155e-01	1.018713e+00	8.182293e-01	1.003612e+00	8.544743e-01	8.348266e-01	9.053955e-01	8.850006e-01	8.774982e-01	8.431849e-01	8.891888e-01	9.880862e-01	1.070116e+00	1.157649e+00	1.209200e+00	8.234955e-01	1.002356e+00	1.012767e+00	1.087634e+00	1.133867e+00	9.661207e-01	8.225137e-01	8.739871e-01	9.258254e-01	9.457562e-01	8.762347e-01	8.280129e-01	8.812301e-01	9.066157e-01	9.600937e-01	1.248743e+00	1.133830e+00	8.341473e-01	8.387169e-01	1.211158e+00	8.250573e-01	8.947179e-01	8.183319e-01	8.204881e-01	8.554539e-01	9.160316e-01	1.279727e+00	1.318487e+00	8.546466e-01	1.324586e+00	7.951285e-01	7.745918e-01	7.811517e-01	7.756220e-01	8.178003e-01	1.140214e+00	8.498405e-01	8.348984e-01	1.097231e+00	1.105871e+00	1.052285e+00	8.400008e-01	8.254669e-01	8.117630e-01	1.083646e+00	1.067048e+00	7.730697e-01	1.092478e+00	1.106616e+00	1.099062e+00	7.740029e-01	7.731953e-01	8.004090e-01	7.964408e-01	7.836753e-01	8.039648e-01	8.299968e-01	8.145950e-01	7.808026e-01	7.772243e-01	8.923378e-01	7.865804e-01	7.901877e-01	9.072732e-01	8.656801e-01	9.569826e-01	9.398896e-01	9.915034e-01	9.742814e-01	1.023931e+00	1.008231e+00	1.059446e+00	1.038436e+00	1.104231e+00	1.075185e+00	1.102347e+00	1.031325e+00	1.045364e+00	9.999595e-01	1.016229e+00	9.656279e-01	9.829351e-01	9.315024e-01	9.483887e-01	8.996264e-01	9.151726e-01	8.598333e-01	8.853955e-01	7.882836e-01	7.922485e-01	7.823018e-01	7.850716e-01	7.771745e-01	7.790865e-01	8.464847e-01	7.868974e-01	8.312943e-01	9.814585e-01	1.043720e+00	9.557845e-01	8.228458e-01	8.673397e-01	1.053423e+00	8.069087e-01	9.226114e-01	7.735512e-01	7.728042e-01	7.984610e-01	7.745787e-01	1.090301e+00	1.092375e+00	8.022525e-01	1.099372e+00	1.110421e+00	8.055914e-01	8.093249e-01	1.091888e+00	1.206471e+00	1.157952e+00	1.174455e+00	8.933533e-01	9.970022e-01	1.124416e+00	8.450204e-01	1.286683e+00	1.170399e+00	9.300580e-01	8.611251e-01	8.190188e-01	7.851242e-01	1.199584e+00	1.259537e+00	8.238815e-01	9.165124e-01	1.003319e+00	1.199632e+00	8.735068e-01	9.118645e-01	9.456828e-01	1.133353e+00	8.258189e-01	9.762955e-01	9.657747e-01	9.126346e-01	1.317252e+00	8.364000e-01	1.132827e+00	1.041624e+00	8.603851e-01	9.212419e-01	9.028923e-01	8.580277e-01	9.245791e-01	8.471611e-01	9.965506e-01	9.505758e-01	9.565213e-01	8.548440e-01	9.153163e-01	1.020540e+00	7.830697e-01	9.231555e-01	7.883613e-01	1.041856e+00	1.100606e+00	8.103942e-01	8.519362e-01	1.099646e+00	1.048671e+00	1.108354e+00	1.100928e+00	1.094590e+00	7.975338e-01	8.087028e-01	7.956045e-01	7.829352e-01	9.073330e-01	8.402431e-01	9.139776e-01	7.860559e-01	7.940006e-01	1.098098e+00	1.119028e+00	1.055546e+00	8.542415e-01	1.215365e+00	1.145818e+00	1.131612e+00	1.009088e+00	1.133511e+00	1.234089e+00	1.331025e+00	1.315059e+00	1.102265e+00	1.217657e+00	9.519886e-01	1.163047e+00	1.148576e+00	8.238061e-01	8.755342e-01	1.123031e+00	9.869516e-01	8.799720e-01	1.141661e+00	1.332380e+00	8.564858e-01	8.203616e-01	9.709833e-01	8.034012e-01	9.816534e-01	9.920002e-01	9.376491e-01	1.000359e+00	1.005625e+00	1.017436e+00	1.048647e+00	1.027464e+00	1.058816e+00	1.110018e+00	8.747678e-01	9.359164e-01	9.408178e-01	1.155386e+00	8.599550e-01	8.625940e-01	8.657150e-01	1.074345e+00	8.516673e-01	8.546382e-01	8.296464e-01	1.004275e+00	1.007902e+00	1.011330e+00	8.672708e-01	9.017309e-01	8.789470e-01	8.903304e-01	1.077036e+00	1.094514e+00	9.260445e-01	9.309759e-01	8.918740e-01	8.829193e-01	8.825748e-01	8.863674e-01	9.852030e-01	9.678262e-01	1.165344e+00	8.350762e-01	8.413113e-01	8.489992e-01	8.443991e-01	8.329309e-01	8.298600e-01	8.232776e-01	8.238102e-01	8.272975e-01	1.298358e+00	1.267562e+00	8.001635e-01	1.095900e+00	8.567133e-01	8.470146e-01	8.419186e-01	8.368312e-01	1.095747e+00	1.100203e+00	1.077311e+00	8.320641e-01	8.277032e-01	8.173177e-01	1.069902e+00	1.096249e+00	7.868103e-01	7.896358e-01	7.995065e-01	8.014641e-01	7.872031e-01	7.849534e-01	7.838505e-01	9.889525e-01	9.557112e-01	9.474232e-01	9.807205e-01	1.012978e+00	1.062590e+00	1.034942e+00	1.027847e+00	1.005208e+00	9.971737e-01	9.723785e-01	9.640334e-01	9.392268e-01	9.311225e-01	9.076768e-01	9.002930e-01	8.672955e-01	8.616980e-01	8.932640e-01	8.865159e-01	7.937814e-01	7.921680e-01	7.907644e-01	7.895399e-01	8.807985e-01	8.086150e-01	8.199840e-01	9.555564e-01	9.606338e-01	8.689911e-01	8.722312e-01	1.069719e+00	8.350105e-01	7.833715e-01	7.840906e-01	8.070383e-01	8.052689e-01	8.146469e-01	8.123278e-01	1.091038e+00	1.084525e+00	8.943922e-01	8.985922e-01	1.025308e+00	1.297444e+00	8.252601e-01	1.311609e+00	8.534822e-01	8.292069e-01	9.510676e-01	8.777094e-01	1.007443e+00	1.107321e+00	1.101255e+00	1.096612e+00	1.081183e+00	1.115974e+00	1.160563e+00	1.181452e+00	1.153144e+00	1.200927e+00	1.103907e+00	1.283257e+00	9.202875e-01	1.010850e+00	1.131558e+00	8.756488e-01	1.172914e+00	1.220863e+00	9.222696e-01	1.275977e+00	9.269373e-01	1.131353e+00	9.863629e-01	1.190709e+00	8.325211e-01	9.812352e-01	9.176641e-01	1.139453e+00	1.160738e+00	1.095995e+00	8.593461e-01	1.093256e+00	9.162919e-01	1.125966e+00	8.544428e-01	8.065658e-01	8.136956e-01	7.935616e-01	7.998285e-01	1.171571e+00	1.293314e+00	1.184882e+00	9.088684e-01	1.240740e+00	1.055117e+00	9.323273e-01	1.312120e+00	8.665453e-01	8.627453e-01	1.078028e+00	9.819575e-01	1.017741e+00	9.871786e-01	9.238610e-01	1.097524e+00	1.095649e+00	1.051740e+00	1.045113e+00	8.120056e-01	8.084523e-01	8.010060e-01	7.918045e-01	9.087132e-01	9.131394e-01	8.458285e-01	9.421807e-01	7.927033e-01	1.095971e+00	1.136242e+00	1.028969e+00	1.134217e+00	1.249581e+00	1.315000e+00	1.053694e+00	1.186192e+00	1.178452e+00	1.070322e+00	1.122723e+00	8.819597e-01	8.611115e-01	8.265394e-01	9.708778e-01	9.760474e-01	9.913495e-01	9.960373e-01	9.598074e-01	9.454954e-01	1.000284e+00	1.004064e+00	1.029628e+00	1.041165e+00	1.112210e+00	9.414414e-01	9.462674e-01	1.145973e+00	8.650187e-01	8.679884e-01	8.572351e-01	8.595392e-01	1.031622e+00	1.015034e+00	1.021003e+00	8.815548e-01	8.736998e-01	8.810464e-01	8.845626e-01	1.085511e+00	1.099622e+00	9.317154e-01	9.366257e-01	9.092644e-01	8.990517e-01	8.898651e-01	8.882500e-01	8.921135e-01	1.011543e+00	9.928122e-01	9.755078e-01	8.368378e-01	8.424611e-01	8.483578e-01	8.605081e-01	8.551668e-01	8.503156e-01	8.418001e-01	8.381830e-01	8.289212e-01	8.298759e-01	8.350778e-01	8.181477e-01	8.492991e-01	8.440579e-01	1.096482e+00	8.390769e-01	8.344525e-01	8.302693e-01	8.232726e-01	1.071764e+00	8.042141e-01	8.102012e-01	8.046605e-01	8.028106e-01	7.921273e-01	7.919463e-01	7.917768e-01	9.552709e-01	1.065110e+00	1.058364e+00	1.038449e+00	1.031736e+00	1.024907e+00	1.010340e+00	1.002818e+00	9.950644e-01	9.792990e-01	9.713066e-01	9.632871e-01	9.473133e-01	9.393934e-01	9.315855e-01	9.089000e-01	8.695579e-01	8.642916e-01	9.018041e-01	8.949889e-01	8.883906e-01	7.993270e-01	7.977923e-01	7.965101e-01	7.954119e-01	7.944777e-01	8.287520e-01	8.425686e-01	9.559174e-01	9.608725e-01	9.658240e-01	8.711932e-01	8.744260e-01	8.600692e-01	8.817361e-01	7.926806e-01	7.944793e-01	7.967804e-01	8.102860e-01	8.204057e-01	8.178747e-01	8.155993e-01	1.089390e+00	1.084278e+00	1.078288e+00	8.960884e-01	9.001870e-01	9.043897e-01	8.324651e-01	8.304921e-01	1.289944e+00	9.281034e-01	1.129356e+00	1.097677e+00	8.830970e-01	1.261892e+00	1.159456e+00	1.013180e+00	1.018104e+00	1.057420e+00	1.112694e+00	8.576132e-01	1.271269e+00	9.660502e-01	1.206348e+00	1.092415e+00	1.120629e+00	1.172029e+00	9.172791e-01	1.130609e+00	1.185407e+00	1.188067e+00	9.563961e-01	8.739564e-01	1.104106e+00	8.600135e-01	9.402555e-01	8.662803e-01	8.357819e-01	1.101034e+00	8.780693e-01	1.090332e+00	1.087297e+00	9.861652e-01	7.998832e-01	8.103191e-01	1.122118e+00	8.186918e-01	9.865907e-01	1.146693e+00	1.106000e+00	1.144057e+00	1.078630e+00	1.128381e+00	9.234019e-01	1.231575e+00	9.285118e-01	9.326048e-01	1.154393e+00	1.129950e+00	1.180682e+00	1.015149e+00	8.615556e-01	8.157876e-01	1.219409e+00	1.002399e+00	9.253566e-01	1.048416e+00	8.175508e-01	8.140207e-01	8.121446e-01	9.144789e-01	9.194784e-01	1.095702e+00	1.042544e+00	1.086580e+00	1.254719e+00	1.296767e+00	1.080053e+00	1.065698e+00	1.113091e+00	8.850269e-01	9.764881e-01	9.814738e-01	9.914635e-01	9.961968e-01	9.674044e-01	9.532897e-01	1.000617e+00	1.004880e+00	1.009007e+00	1.041510e+00	1.053086e+00	9.468069e-01	9.520332e-01	1.137239e+00	8.682068e-01	8.708991e-01	8.628964e-01	8.647502e-01	1.024026e+00	1.031682e+00	8.891110e-01	8.806325e-01	8.871898e-01	1.091098e+00	1.102743e+00	9.377244e-01	9.429972e-01	9.169138e-01	9.067795e-01	8.977991e-01	8.901692e-01	8.945561e-01	1.037362e+00	1.017935e+00	9.994155e-01	9.825765e-01	8.403625e-01	8.449257e-01	8.502783e-01	8.555052e-01	8.679490e-01	8.623802e-01	8.571431e-01	8.524418e-01	8.482193e-01	8.373014e-01	8.358086e-01	8.445418e-01	8.519863e-01	1.094599e+00	1.093693e+00	8.468496e-01	8.420113e-01	8.375590e-01	8.335489e-01	8.299927e-01	8.268081e-01	8.370797e-01	8.085107e-01	8.068876e-01	7.996750e-01	7.999812e-01	8.007486e-01	8.015027e-01	1.067028e+00	1.060914e+00	1.054737e+00	1.042056e+00	1.035722e+00	1.029367e+00	1.021897e+00	1.008908e+00	1.000845e+00	9.934060e-01	9.781917e-01	9.709365e-01	9.627652e-01	9.555923e-01	9.473340e-01	9.403320e-01	9.321164e-01	8.673721e-01	8.717367e-01	9.108720e-01	9.031602e-01	8.972429e-01	8.900153e-01	8.053075e-01	8.039471e-01	8.026232e-01	8.016045e-01	8.007117e-01	8.001182e-01	8.492073e-01	8.647105e-01	9.616021e-01	9.667666e-01	9.715218e-01	8.740806e-01	8.764174e-01	8.803368e-01	8.841576e-01	9.071229e-01	9.339701e-01	8.026103e-01	8.048986e-01	8.086914e-01	8.131256e-01	8.268669e-01	8.241463e-01	8.217077e-01	8.193658e-01	1.072927e+00	1.083239e+00	1.078466e+00	8.978128e-01	9.024311e-01	9.059274e-01	9.107503e-01	8.413384e-01	8.387481e-01	8.368150e-01	1.148052e+00	1.125343e+00	1.073701e+00	1.177465e+00	1.171259e+00	9.363812e-01	9.362965e-01	1.193494e+00	1.096515e+00	1.235366e+00	1.081066e+00	8.826985e-01	8.076818e-01	1.018705e+00	1.127165e+00	1.234987e+00	1.292319e+00	1.294371e+00	1.281516e+00	1.250849e+00	1.138724e+00	8.218737e-01	1.084565e+00	1.121530e+00	1.026545e+00	9.595743e-01	8.664525e-01	1.115925e+00	1.068625e+00	1.081997e+00	8.773939e-01	8.678217e-01	9.226588e-01	9.813150e-01	8.606264e-01	8.874915e-01	8.229536e-01	1.109673e+00	9.483845e-01	1.165199e+00	1.099799e+00	1.292575e+00	1.182391e+00	1.173230e+00	1.019720e+00	1.061232e+00	1.266771e+00	9.858865e-01	1.215152e+00	1.088026e+00	1.162026e+00	1.177068e+00	1.178082e+00	1.125472e+00	8.423694e-01	8.430943e-01	1.104119e+00	8.873886e-01	1.085384e+00	1.113477e+00	9.275537e-01	1.200180e+00	8.193616e-01	8.182314e-01	8.157036e-01	9.187716e-01	1.053284e+00	1.090001e+00	1.275306e+00	1.103695e+00	9.825630e-01	9.866808e-01	9.920583e-01	9.964859e-01	9.611998e-01	9.754578e-01	1.001612e+00	1.005604e+00	1.010546e+00	1.015616e+00	1.052037e+00	1.062704e+00	9.507973e-01	1.128574e+00	8.712888e-01	8.741600e-01	8.679892e-01	8.702936e-01	1.033977e+00	1.042187e+00	8.964418e-01	8.873725e-01	1.095029e+00	1.104728e+00	9.443573e-01	9.247712e-01	9.139055e-01	9.072012e-01	8.946976e-01	1.042326e+00	1.023733e+00	1.005931e+00	9.904294e-01	8.452051e-01	8.475749e-01	8.527403e-01	8.570487e-01	8.623093e-01	8.749218e-01	8.704819e-01	8.634238e-01	8.598984e-01	8.541899e-01	1.094057e+00	1.092109e+00	1.090214e+00	8.543456e-01	8.501351e-01	8.446891e-01	8.411948e-01	8.365337e-01	8.442550e-01	8.563818e-01	8.147526e-01	8.124380e-01	8.070663e-01	8.098541e-01	8.118414e-01	1.062732e+00	1.057299e+00	1.051225e+00	1.045389e+00	1.039174e+00	1.033229e+00	1.026391e+00	1.016497e+00	1.007092e+00	9.954004e-01	9.666345e-01	9.518460e-01	9.371543e-01	9.086552e-01	8.962876e-01	8.118576e-01	8.097776e-01	8.095645e-01	8.076432e-01	8.080114e-01	8.072916e-01	8.072686e-01	8.706285e-01	8.867904e-01	9.677448e-01	9.722241e-01	9.772695e-01	8.772654e-01	8.811125e-01	9.067086e-01	9.305691e-01	9.565280e-01	8.138277e-01	8.168131e-01	8.216817e-01	8.286940e-01	8.357964e-01	8.339389e-01	8.301725e-01	8.285572e-01	8.257671e-01	1.078201e+00	1.072942e+00	9.023159e-01	9.103407e-01	8.516348e-01	8.471345e-01	8.457392e-01	8.427926e-01	1.166078e+00	1.154375e+00	1.181134e+00	1.254995e+00	1.180682e+00	1.088606e+00	1.106554e+00	1.183410e+00	1.086403e+00	1.141045e+00	1.105939e+00	1.255338e+00	1.081816e+00	1.161524e+00	8.282829e-01	1.177728e+00	1.060978e+00	1.152351e+00	1.141414e+00	1.079418e+00	8.888007e-01	1.101716e+00	8.496569e-01	1.035166e+00	1.024796e+00	9.106104e-01	9.442034e-01	8.864962e-01	1.231222e+00	8.726346e-01	9.701567e-01	9.573037e-01	8.172539e-01	1.094246e+00	1.066030e+00	1.212904e+00	1.031030e+00	1.070053e+00	1.170731e+00	1.097582e+00	1.291356e+00	1.244999e+00	1.113741e+00	9.441415e-01	8.700758e-01	8.599630e-01	1.112130e+00	1.173869e+00	1.129522e+00	1.275256e+00	1.176732e+00	1.064258e+00	1.216966e+00	1.199795e+00	8.879941e-01	1.101542e+00	1.083946e+00	1.080337e+00	8.786909e-01	8.245653e-01	8.210663e-01	9.358649e-01	1.091853e+00	1.122780e+00	1.122176e+00	9.901255e-01	9.994894e-01	9.830060e-01	1.009059e+00	1.017510e+00	1.060615e+00	1.120995e+00	8.760574e-01	1.043362e+00	1.051497e+00	8.996455e-01	1.097454e+00	9.513568e-01	9.587467e-01	9.280361e-01	9.145895e-01	8.954360e-01	1.046655e+00	1.028099e+00	1.011331e+00	9.997725e-01	8.534501e-01	8.612418e-01	8.688093e-01	8.740484e-01	8.636762e-01	1.091457e+00	1.088962e+00	8.503334e-01	8.421892e-01	8.759964e-01	8.182455e-01	8.225166e-01	1.003199e+00	1.056070e+00	1.044842e+00	1.033301e+00	1.022714e+00	1.013321e+00	9.908543e-01	9.771685e-01	9.630721e-01	9.489370e-01	9.347846e-01	9.208109e-01	9.080902e-01	8.975904e-01	8.161938e-01	8.148835e-01	8.150958e-01	8.138314e-01	8.158937e-01	8.921841e-01	9.090290e-01	9.672455e-01	9.753273e-01	9.832594e-01	8.800653e-01	8.837889e-01	9.281703e-01	9.512341e-01	9.763574e-01	1.002456e+00	8.263317e-01	8.299328e-01	8.354835e-01	8.439623e-01	8.548072e-01	8.607975e-01	8.360211e-01	8.325428e-01	1.077797e+00	1.073291e+00	9.028470e-01	9.187250e-01	9.272098e-01	8.557855e-01	8.507884e-01	1.117389e+00	1.166018e+00	1.161177e+00	1.136253e+00	1.025474e+00	1.108370e+00	1.173798e+00	1.135620e+00	1.185597e+00	1.135184e+00	1.147604e+00	1.126775e+00	1.092508e+00	1.193613e+00	1.235630e+00	1.088367e+00	9.515851e-01	8.358956e-01	1.125044e+00	1.017129e+00	1.099452e+00	8.876463e-01	1.066665e+00	1.169561e+00	8.756818e-01	1.043570e+00	9.189957e-01	8.966381e-01	1.083528e+00	1.091447e+00	1.082185e+00	1.067015e+00	1.171389e+00	1.098736e+00	1.103073e+00	1.082831e+00	8.283528e-01	8.985342e-01	9.355847e-01	9.897528e-01	1.150518e+00	1.157258e+00	1.272004e+00	1.075361e+00	1.085452e+00	1.175645e+00	1.099194e+00	1.169039e+00	1.152265e+00	8.908623e-01	1.224908e+00	9.799756e-01	9.646823e-01	1.094849e+00	1.233600e+00	1.067210e+00	1.106562e+00	9.439008e-01	1.254313e+00	1.176116e+00	1.005258e+00	1.213096e+00	1.200148e+00	8.801810e-01	1.117598e+00	1.079350e+00	8.891306e-01	8.319060e-01	9.086237e-01	1.118331e+00	1.143434e+00	9.980317e-01	1.007580e+00	1.025398e+00	1.034305e+00	1.114269e+00	8.793727e-01	1.051245e+00	1.059001e+00	8.698633e-01	9.748688e-01	9.828010e-01	9.588336e-01	9.500533e-01	9.347823e-01	9.199786e-01	1.049059e+00	8.581119e-01	8.628199e-01	9.055718e-01	8.916458e-01	9.271667e-01	1.091450e+00	8.707171e-01	8.609096e-01	8.332040e-01	1.059486e+00	1.049543e+00	1.009807e+00	1.038878e+00	1.028573e+00	1.019146e+00	9.991164e-01	9.867728e-01	9.735536e-01	9.600767e-01	9.464818e-01	9.328359e-01	9.199159e-01	8.255132e-01	8.236987e-01	8.228159e-01	8.228508e-01	8.230330e-01	8.274028e-01	9.123119e-01	9.305350e-01	9.666071e-01	9.900216e-01	8.826191e-01	8.863465e-01	9.484969e-01	9.694025e-01	9.929328e-01	1.016438e+00	1.041007e+00	8.402634e-01	8.460656e-01	8.514132e-01	8.596227e-01	8.717136e-01	8.520898e-01	8.451015e-01	8.400890e-01	1.074558e+00	1.067818e+00	9.035866e-01	9.111416e-01	8.791553e-01	8.690412e-01	8.617377e-01	8.577966e-01	1.152328e+00	1.152977e+00	1.149675e+00	1.121132e+00	1.156071e+00	1.140384e+00	1.113590e+00	1.050483e+00	1.172800e+00	1.120684e+00	1.117931e+00	1.071726e+00	1.166005e+00	1.084786e+00	8.331553e-01	1.137606e+00	1.141597e+00	1.128290e+00	1.169441e+00	1.070946e+00	9.260641e-01	1.027036e+00	1.024946e+00	9.594715e-01	1.132800e+00	1.131997e+00	1.128187e+00	1.171839e+00	1.172189e+00	9.002123e-01	9.