# vtk DataFile Version 3.0
vtk output
ASCII
DATASET UNSTRUCTURED_GRID
POINTS 200 float
9.997500e-01	-3.633243e-05	0.0	9.990000e-01	-1.454723e-04	0.0	9.977600e-01	-3.275074e-04	0.0	9.960200e-01	-5.899271e-04	0.0	9.937800e-01	-9.470947e-04	0.0	9.910500e-01	-1.422096e-03	0.0	9.878400e-01	-2.045517e-03	0.0	9.841300e-01	-2.853675e-03	0.0	9.799500e-01	-3.858886e-03	0.0	9.752800e-01	-5.058308e-03	0.0	9.701500e-01	-6.405125e-03	0.0	9.645400e-01	-7.840864e-03	0.0	9.584700e-01	-9.290185e-03	0.0	9.519400e-01	-1.069773e-02	0.0	9.449600e-01	-1.203556e-02	0.0	9.375400e-01	-1.330807e-02	0.0	9.296900e-01	-1.454256e-02	0.0	9.214000e-01	-1.577731e-02	0.0	9.127000e-01	-1.703959e-02	0.0	9.035800e-01	-1.835041e-02	0.0	8.940600e-01	-1.971343e-02	0.0	8.841500e-01	-2.112404e-02	0.0	8.738500e-01	-2.257403e-02	0.0	8.631800e-01	-2.405129e-02	0.0	8.521600e-01	-2.554518e-02	0.0	8.407700e-01	-2.705253e-02	0.0	8.290500e-01	-2.856410e-02	0.0	8.170100e-01	-3.007605e-02	0.0	8.046400e-01	-3.158755e-02	0.0	7.919700e-01	-3.309294e-02	0.0	7.790100e-01	-3.458898e-02	0.0	7.657800e-01	-3.607103e-02	0.0	7.522800e-01	-3.753655e-02	0.0	7.385200e-01	-3.898168e-02	0.0	7.245300e-01	-4.040056e-02	0.0	7.103200e-01	-4.178956e-02	0.0	6.958900e-01	-4.314611e-02	0.0	6.812700e-01	-4.446501e-02	0.0	6.664700e-01	-4.574328e-02	0.0	6.515000e-01	-4.697812e-02	0.0	6.363800e-01	-4.816624e-02	0.0	6.211300e-01	-4.930472e-02	0.0	6.057600e-01	-5.039170e-02	0.0	5.902800e-01	-5.142555e-02	0.0	5.747100e-01	-5.240421e-02	0.0	5.590600e-01	-5.332653e-02	0.0	5.433600e-01	-5.419042e-02	0.0	5.276100e-01	-5.499567e-02	0.0	5.118400e-01	-5.574064e-02	0.0	4.960500e-01	-5.642529e-02	0.0	4.802700e-01	-5.704826e-02	0.0	4.645100e-01	-5.760916e-02	0.0	4.487800e-01	-5.810752e-02	0.0	4.331100e-01	-5.854227e-02	0.0	4.175000e-01	-5.891318e-02	0.0	4.019700e-01	-5.921934e-02	0.0	3.865400e-01	-5.945988e-02	0.0	3.712300e-01	-5.963391e-02	0.0	3.560400e-01	-5.974063e-02	0.0	3.409900e-01	-5.977888e-02	0.0	3.261100e-01	-5.974757e-02	0.0	3.114000e-01	-5.964555e-02	0.0	2.968700e-01	-5.947144e-02	0.0	2.825500e-01	-5.922417e-02	0.0	2.684500e-01	-5.890243e-02	0.0	2.545700e-01	-5.850456e-02	0.0	2.409400e-01	-5.802969e-02	0.0	2.275700e-01	-5.747653e-02	0.0	2.144700e-01	-5.684380e-02	0.0	2.016600e-01	-5.613083e-02	0.0	1.891400e-01	-5.533591e-02	0.0	1.769300e-01	-5.445865e-02	0.0	1.650400e-01	-5.349820e-02	0.0	1.534900e-01	-5.245479e-02	0.0	1.422900e-01	-5.132812e-02	0.0	1.314400e-01	-5.011696e-02	0.0	1.209500e-01	-4.882104e-02	0.0	1.108500e-01	-4.744315e-02	0.0	1.011300e-01	-4.598113e-02	0.0	9.181000e-02	-4.443707e-02	0.0	8.290000e-02	-4.281212e-02	0.0	7.440000e-02	-4.110561e-02	0.0	6.633000e-02	-3.932109e-02	0.0	5.869000e-02	-3.745827e-02	0.0	5.149000e-02	-3.551916e-02	0.0	4.474000e-02	-3.350628e-02	0.0	3.844000e-02	-3.141932e-02	0.0	3.260000e-02	-2.926114e-02	0.0	2.723000e-02	-2.703541e-02	0.0	2.232000e-02	-2.473712e-02	0.0	1.790000e-02	-2.238024e-02	0.0	1.395000e-02	-1.995397e-02	0.0	1.049000e-02	-1.746956e-02	0.0	7.520000e-03	-1.492793e-02	0.0	5.040000e-03	-1.232925e-02	0.0	3.050000e-03	-9.671989e-03	0.0	1.560000e-03	-6.971381e-03	0.0	5.600000e-04	-4.206276e-03	0.0	6.000000e-05	-1.384021e-03	0.0	0.000000e+00	0.000000e+00	0.0	6.000000e-05	1.263724e-03	0.0	5.600000e-04	3.624992e-03	0.0	1.560000e-03	5.788749e-03	0.0	3.050000e-03	7.806753e-03	0.0	5.040000e-03	9.724024e-03	0.0	7.520000e-03	1.154832e-02	0.0	1.049000e-02	1.329462e-02	0.0	1.395000e-02	1.497344e-02	0.0	1.790000e-02	1.659269e-02	0.0	2.232000e-02	1.815200e-02	0.0	2.723000e-02	1.966451e-02	0.0	3.260000e-02	2.112609e-02	0.0	3.844000e-02	2.254444e-02	0.0	4.474000e-02	2.392092e-02	0.0	5.149000e-02	2.525690e-02	0.0	5.869000e-02	2.655542e-02	0.0	6.633000e-02	2.781718e-02	0.0	7.440000e-02	2.904287e-02	0.0	8.290000e-02	3.023439e-02	0.0	9.181000e-02	3.139064e-02	0.0	1.011300e-01	3.251313e-02	0.0	1.108500e-01	3.360183e-02	0.0	1.209500e-01	3.465561e-02	0.0	1.314400e-01	3.567632e-02	0.0	1.422900e-01	3.666168e-02	0.0	1.534900e-01	3.761142e-02	0.0	1.650400e-01	3.852590e-02	0.0	1.769300e-01	3.940445e-02	0.0	1.891400e-01	4.024559e-02	0.0	2.016600e-01	4.104853e-02	0.0	2.144700e-01	4.181177e-02	0.0	2.275700e-01	4.253492e-02	0.0	2.409400e-01	4.321624e-02	0.0	2.545700e-01	4.385451e-02	0.0	2.684500e-01	4.444831e-02	0.0	2.825500e-01	4.499534e-02	0.0	2.968700e-01	4.549442e-02	0.0	3.114000e-01	4.594377e-02	0.0	3.261100e-01	4.634095e-02	0.0	3.409900e-01	4.668405e-02	0.0	3.560400e-01	4.697123e-02	0.0	3.712300e-01	4.719990e-02	0.0	3.865400e-01	4.736778e-02	0.0	4.019700e-01	4.747270e-02	0.0	4.175000e-01	4.751222e-02	0.0	4.331100e-01	4.748398e-02	0.0	4.487800e-01	4.738576e-02	0.0	4.645100e-01	4.721520e-02	0.0	4.802700e-01	4.697033e-02	0.0	4.960500e-01	4.664913e-02	0.0	5.118400e-01	4.624967e-02	0.0	5.276100e-01	4.577082e-02	0.0	5.433600e-01	4.521088e-02	0.0	5.590600e-01	4.456950e-02	0.0	5.747100e-01	4.384554e-02	0.0	5.902800e-01	4.303966e-02	0.0	6.057600e-01	4.215212e-02	0.0	6.211300e-01	4.118431e-02	0.0	6.363800e-01	4.013761e-02	0.0	6.515000e-01	3.901398e-02	0.0	6.664700e-01	3.781677e-02	0.0	6.812700e-01	3.655019e-02	0.0	6.958900e-01	3.521840e-02	0.0	7.103200e-01	3.382620e-02	0.0	7.245300e-01	3.238115e-02	0.0	7.385200e-01	3.088860e-02	0.0	7.522800e-01	2.935549e-02	0.0	7.657800e-01	2.779172e-02	0.0	7.790100e-01	2.620566e-02	0.0	7.919700e-01	2.460497e-02	0.0	8.046400e-01	2.300016e-02	0.0	8.170100e-01	2.140088e-02	0.0	8.290500e-01	1.981947e-02	0.0	8.407700e-01	1.826273e-02	0.0	8.521600e-01	1.673910e-02	0.0	8.631800e-01	1.525942e-02	0.0	8.738500e-01	1.382418e-02	0.0	8.841500e-01	1.243659e-02	0.0	8.940600e-01	1.109785e-02	0.0	9.035800e-01	9.806286e-03	0.0	9.127000e-01	8.564594e-03	0.0	9.214000e-01	7.383723e-03	0.0	9.296900e-01	6.280231e-03	0.0	9.375400e-01	5.285083e-03	0.0	9.449600e-01	4.427421e-03	0.0	9.519400e-01	3.732158e-03	0.0	9.584700e-01	3.205413e-03	0.0	9.645400e-01	2.827009e-03	0.0	9.701500e-01	2.552089e-03	0.0	9.752800e-01	2.324855e-03	0.0	9.799500e-01	2.093074e-03	0.0	9.841300e-01	1.827031e-03	0.0	9.878400e-01	1.519903e-03	0.0	9.910500e-01	1.190202e-03	0.0	9.937800e-01	8.630219e-04	0.0	9.960200e-01	5.666263e-04	0.0	9.977600e-01	3.231883e-04	0.0	9.990000e-01	1.450783e-04	0.0	9.997500e-01	3.632619e-05	0.0	1.000000e+00	0.000000e+00	0.0	
CELLS 200	600
2	149	150	2	150	151	2	151	152	2	152	153	2	153	154	2	154	155	2	155	156	2	156	157	2	157	158	2	158	159	2	159	160	2	160	161	2	161	162	2	162	163	2	163	164	2	164	165	2	165	166	2	166	167	2	167	168	2	168	169	2	169	170	2	170	171	2	171	172	2	172	173	2	173	174	2	174	175	2	175	176	2	176	177	2	177	178	2	178	179	2	179	180	2	180	181	2	181	182	2	31	32	2	32	33	2	33	34	2	34	35	2	35	36	2	36	37	2	37	38	2	38	39	2	39	40	2	40	41	2	41	42	2	42	43	2	43	44	2	44	45	2	45	46	2	46	47	2	47	48	2	48	49	2	49	50	2	50	51	2	51	52	2	52	53	2	53	54	2	54	55	2	55	56	2	56	57	2	57	58	2	58	59	2	59	60	2	60	61	2	61	62	2	62	63	2	63	64	2	64	65	2	65	66	2	66	67	2	67	68	2	68	69	2	69	70	2	70	71	2	71	72	2	72	73	2	73	74	2	74	75	2	75	76	2	76	77	2	77	78	2	78	79	2	79	80	2	80	81	2	81	82	2	82	83	2	83	84	2	113	114	2	114	115	2	115	116	2	116	117	2	117	118	2	118	119	2	119	120	2	120	121	2	121	122	2	122	123	2	123	124	2	124	125	2	125	126	2	126	127	2	127	128	2	128	129	2	129	130	2	130	131	2	131	132	2	132	133	2	133	134	2	134	135	2	135	136	2	136	137	2	137	138	2	138	139	2	139	140	2	140	141	2	141	142	2	142	143	2	143	144	2	144	145	2	145	146	2	146	147	2	147	148	2	148	149	2	84	85	2	85	86	2	86	87	2	87	88	2	88	89	2	89	90	2	90	91	2	91	92	2	92	93	2	93	94	2	94	95	2	95	96	2	96	97	2	97	98	2	98	99	2	99	100	2	100	101	2	101	102	2	102	103	2	103	104	2	104	105	2	105	106	2	106	107	2	107	108	2	108	109	2	109	110	2	110	111	2	111	112	2	112	113	2	199	0	2	0	1	2	1	2	2	2	3	2	3	4	2	4	5	2	5	6	2	6	7	2	182	183	2	183	184	2	184	185	2	185	186	2	186	187	2	187	188	2	188	189	2	189	190	2	190	191	2	191	192	2	192	193	2	193	194	2	194	195	2	195	196	2	196	197	2	197	198	2	198	199	2	7	8	2	8	9	2	9	10	2	10	11	2	11	12	2	12	13	2	13	14	2	14	15	2	15	16	2	16	17	2	17	18	2	18	19	2	19	20	2	20	21	2	21	22	2	22	23	2	23	24	2	24	25	2	25	26	2	26	27	2	27	28	2	28	29	2	29	30	2	30	31	
CELL_TYPES 200
3	3	3	3	3	3	3	3	3	3	3	3	3	3	3	3	3	3	3	3	3	3	3	3	3	3	3	3	3	3	3	3	3	3	3	3	3	3	3	3	3	3	3	3	3	3	3	3	3	3	3	3	3	3	3	3	3	3	3	3	3	3	3	3	3	3	3	3	3	3	3	3	3	3	3	3	3	3	3	3	3	3	3	3	3	3	3	3	3	3	3	3	3	3	3	3	3	3	3	3	3	3	3	3	3	3	3	3	3	3	3	3	3	3	3	3	3	3	3	3	3	3	3	3	3	3	3	3	3	3	3	3	3	3	3	3	3	3	3	3	3	3	3	3	3	3	3	3	3	3	3	3	3	3	3	3	3	3	3	3	3	3	3	3	3	3	3	3	3	3	3	3	3	3	3	3	3	3	3	3	3	3	3	3	3	3	3	3	3	3	3	3	3	3	3	3	3	3	3	3	
POINT_DATA 200

SCALARS Conservative_1 float 1
LOOKUP_TABLE default
1.199829e+00	1.181603e+00	1.171179e+00	1.164740e+00	1.160166e+00	1.155701e+00	1.148817e+00	1.137899e+00	1.121717e+00	1.100363e+00	1.075074e+00	1.048463e+00	1.024896e+00	1.008361e+00	9.999879e-01	9.979297e-01	9.990391e-01	1.000482e+00	1.000509e+00	9.985207e-01	9.947372e-01	9.897156e-01	9.840412e-01	9.781857e-01	9.724267e-01	9.668751e-01	9.615222e-01	9.563215e-01	9.512084e-01	9.461515e-01	9.411347e-01	9.361143e-01	9.310561e-01	9.259768e-01	9.209275e-01	9.159566e-01	9.110828e-01	9.063106e-01	9.016513e-01	8.971214e-01	8.927207e-01	8.884597e-01	8.843210e-01	8.803210e-01	8.764747e-01	8.728338e-01	8.693876e-01	8.660724e-01	8.627411e-01	8.593839e-01	8.562032e-01	8.535527e-01	8.515463e-01	8.498920e-01	8.479170e-01	8.448701e-01	8.402517e-01	8.342101e-01	8.276246e-01	8.217520e-01	8.174785e-01	8.149969e-01	8.140347e-01	8.141591e-01	8.150604e-01	8.165394e-01	8.185470e-01	8.209994e-01	8.238105e-01	8.268677e-01	8.301901e-01	8.339405e-01	8.383659e-01	8.435344e-01	8.493696e-01	8.557250e-01	8.626655e-01	8.703692e-01	8.788932e-01	8.882768e-01	8.986319e-01	9.100174e-01	9.225845e-01	9.364512e-01	9.518073e-01	9.689301e-01	9.880475e-01	1.009518e+00	1.033828e+00	1.061292e+00	1.092441e+00	1.127743e+00	1.167044e+00	1.209885e+00	1.254555e+00	1.298041e+00	1.331744e+00	1.350900e+00	1.339534e+00	1.308268e+00	1.284254e+00	1.221089e+00	1.099442e+00	1.001961e+00	9.259661e-01	8.702616e-01	8.322847e-01	8.072851e-01	7.904569e-01	7.790606e-01	7.714008e-01	7.663086e-01	7.632245e-01	7.614111e-01	7.604945e-01	7.604711e-01	7.612124e-01	7.624816e-01	7.639573e-01	7.653124e-01	7.665638e-01	7.680354e-01	7.699857e-01	7.722646e-01	7.744728e-01	7.763826e-01	7.780859e-01	7.797296e-01	7.814167e-01	7.832176e-01	7.851874e-01	7.873099e-01	7.895125e-01	7.916945e-01	7.938128e-01	7.958418e-01	7.977715e-01	7.995638e-01	8.012276e-01	8.028786e-01	8.047294e-01	8.069357e-01	8.095467e-01	8.125243e-01	8.158714e-01	8.196493e-01	8.238894e-01	8.285617e-01	8.334965e-01	8.384890e-01	8.433343e-01	8.480888e-01	8.530490e-01	8.585653e-01	8.646995e-01	8.712220e-01	8.779109e-01	8.847648e-01	8.919510e-01	8.995171e-01	9.074122e-01	9.155488e-01	9.238776e-01	9.323861e-01	9.410446e-01	9.498399e-01	9.587220e-01	9.676731e-01	9.766189e-01	9.855618e-01	9.944189e-01	1.003110e+00	1.011571e+00	1.019720e+00	1.027509e+00	1.034918e+00	1.041992e+00	1.048913e+00	1.055939e+00	1.063461e+00	1.071774e+00	1.080976e+00	1.090684e+00	1.100036e+00	1.107783e+00	1.112588e+00	1.113362e+00	1.109742e+00	1.102492e+00	1.093778e+00	1.086677e+00	1.084159e+00	1.088064e+00	1.098279e+00	1.112853e+00	1.130017e+00	1.148479e+00	1.168636e+00	1.192714e+00	1.181127e+00	
SCALARS Conservative_2 float 1
LOOKUP_TABLE default
7.195756e-01	7.459511e-01	7.640418e-01	7.748511e-01	7.807430e-01	7.855165e-01	7.913224e-01	8.009876e-01	8.159970e-01	8.364038e-01	8.604924e-01	8.849352e-01	9.060895e-01	9.215744e-01	9.308008e-01	9.347636e-01	9.355176e-01	9.351570e-01	9.351405e-01	9.360798e-01	9.380286e-01	9.406858e-01	9.436758e-01	9.467082e-01	9.495963e-01	9.522743e-01	9.547373e-01	9.570273e-01	9.591547e-01	9.611519e-01	9.630538e-01	9.648526e-01	9.665628e-01	9.681819e-01	9.696974e-01	9.710972e-01	9.723959e-01	9.735744e-01	9.746431e-01	9.756171e-01	9.764774e-01	9.772590e-01	9.779356e-01	9.785441e-01	9.790520e-01	9.795001e-01	9.798659e-01	9.802012e-01	9.804743e-01	9.807244e-01	9.808923e-01	9.810053e-01	9.810482e-01	9.810777e-01	9.811132e-01	9.811870e-01	9.812258e-01	9.811488e-01	9.808247e-01	9.803293e-01	9.798254e-01	9.794122e-01	9.791626e-01	9.790114e-01	9.789591e-01	9.789152e-01	9.789025e-01	9.788492e-01	9.787688e-01	9.785942e-01	9.783389e-01	9.779491e-01	9.774267e-01	9.766915e-01	9.757310e-01	9.744049e-01	9.727330e-01	9.706209e-01	9.678378e-01	9.642290e-01	9.597042e-01	9.539717e-01	9.467680e-01	9.376762e-01	9.261811e-01	9.115544e-01	8.928641e-01	8.690357e-01	8.384967e-01	7.990974e-01	7.483520e-01	6.832129e-01	6.000164e-01	4.965575e-01	3.728444e-01	2.366368e-01	1.074524e-01	1.080595e-02	-2.157962e-02	5.237552e-03	7.307018e-02	2.105298e-01	4.135641e-01	5.903262e-01	7.153266e-01	7.968907e-01	8.484655e-01	8.813691e-01	9.026341e-01	9.169618e-01	9.269991e-01	9.341650e-01	9.396338e-01	9.439104e-01	9.473416e-01	9.502834e-01	9.527981e-01	9.549717e-01	9.569018e-01	9.585669e-01	9.600526e-01	9.614722e-01	9.628415e-01	9.640726e-01	9.651704e-01	9.661336e-01	9.670182e-01	9.678291e-01	9.686083e-01	9.693527e-01	9.700948e-01	9.708139e-01	9.715138e-01	9.721628e-01	9.727750e-01	9.733350e-01	9.738555e-01	9.743276e-01	9.747655e-01	9.751865e-01	9.756389e-01	9.761018e-01	9.765814e-01	9.770611e-01	9.775367e-01	9.780065e-01	9.784400e-01	9.788391e-01	9.791208e-01	9.793173e-01	9.794122e-01	9.794422e-01	9.793880e-01	9.792216e-01	9.788785e-01	9.783296e-01	9.776105e-01	9.766664e-01	9.755021e-01	9.740596e-01	9.723368e-01	9.703080e-01	9.679779e-01	9.653302e-01	9.623604e-01	9.590621e-01	9.554341e-01	9.515162e-01	9.472426e-01	9.427246e-01	9.379690e-01	9.329943e-01	9.279163e-01	9.227900e-01	9.176701e-01	9.125827e-01	9.074720e-01	9.022151e-01	8.965195e-01	8.900889e-01	8.825877e-01	8.740087e-01	8.647776e-01	8.559771e-01	8.491469e-01	8.458526e-01	8.471039e-01	8.528052e-01	8.614976e-01	8.705154e-01	8.765529e-01	8.769682e-01	8.704542e-01	8.577442e-01	8.395699e-01	8.174792e-01	7.911828e-01	7.596452e-01	7.213188e-01	6.623529e-01	
SCALARS Conservative_3 float 1
LOOKUP_TABLE default
1.010185e-01	1.066669e-01	1.128621e-01	1.197578e-01	1.301705e-01	1.447847e-01	1.632541e-01	1.836656e-01	2.028711e-01	2.169488e-01	2.227164e-01	2.185973e-01	2.055578e-01	1.873922e-01	1.688254e-01	1.535253e-01	1.431299e-01	1.373987e-01	1.349800e-01	1.342419e-01	1.338884e-01	1.331562e-01	1.317596e-01	1.297263e-01	1.272246e-01	1.244538e-01	1.215477e-01	1.185953e-01	1.156226e-01	1.126171e-01	1.095676e-01	1.064537e-01	1.032637e-01	9.999048e-02	9.661983e-02	9.316670e-02	8.962750e-02	8.602073e-02	8.235278e-02	7.863557e-02	7.488234e-02	7.109994e-02	6.730687e-02	6.350463e-02	5.970077e-02	5.588666e-02	5.206607e-02	4.825105e-02	4.446514e-02	4.071270e-02	3.695743e-02	3.314249e-02	2.924544e-02	2.525328e-02	2.119831e-02	1.712445e-02	1.307673e-02	9.041950e-03	4.912463e-03	5.518609e-04	-4.076513e-03	-8.951098e-03	-1.406055e-02	-1.939349e-02	-2.498815e-02	-3.087257e-02	-3.710305e-02	-4.369644e-02	-5.068633e-02	-5.809266e-02	-6.596232e-02	-7.435942e-02	-8.335428e-02	-9.297944e-02	-1.032776e-01	-1.143005e-01	-1.261594e-01	-1.389207e-01	-1.526605e-01	-1.675028e-01	-1.835663e-01	-2.009631e-01	-2.198490e-01	-2.403587e-01	-2.626129e-01	-2.867295e-01	-3.127798e-01	-3.407091e-01	-3.701313e-01	-4.003156e-01	-4.297870e-01	-4.554400e-01	-4.722015e-01	-4.716566e-01	-4.408870e-01	-3.644610e-01	-2.306563e-01	-3.806790e-02	1.858088e-01	3.519074e-01	4.964177e-01	6.611490e-01	7.236626e-01	6.884027e-01	6.111905e-01	5.275101e-01	4.530465e-01	3.912977e-01	3.411228e-01	3.001221e-01	2.665562e-01	2.386390e-01	2.151962e-01	1.952755e-01	1.781413e-01	1.632796e-01	1.503053e-01	1.388665e-01	1.287091e-01	1.195613e-01	1.112246e-01	1.036300e-01	9.672789e-02	9.042588e-02	8.459365e-02	7.908530e-02	7.387530e-02	6.893907e-02	6.426713e-02	5.980913e-02	5.553320e-02	5.140782e-02	4.740171e-02	4.347700e-02	3.960940e-02	3.577910e-02	3.197229e-02	2.816758e-02	2.433571e-02	2.045645e-02	1.653329e-02	1.256842e-02	8.551064e-03	4.449264e-03	2.448496e-04	-4.068737e-03	-8.488513e-03	-1.300594e-02	-1.763730e-02	-2.239187e-02	-2.729070e-02	-3.235460e-02	-3.753388e-02	-4.279983e-02	-4.810082e-02	-5.345627e-02	-5.888206e-02	-6.435832e-02	-6.982753e-02	-7.524616e-02	-8.057350e-02	-8.579636e-02	-9.085644e-02	-9.572485e-02	-1.003317e-01	-1.046527e-01	-1.086174e-01	-1.121909e-01	-1.153179e-01	-1.179546e-01	-1.200600e-01	-1.216004e-01	-1.225769e-01	-1.230149e-01	-1.229873e-01	-1.226396e-01	-1.221466e-01	-1.216860e-01	-1.213294e-01	-1.209127e-01	-1.199039e-01	-1.174073e-01	-1.123060e-01	-1.037160e-01	-9.144804e-02	-7.642372e-02	-6.080538e-02	-4.767845e-02	-4.028658e-02	-4.083244e-02	-4.941134e-02	-6.378936e-02	-8.016111e-02	-9.479963e-02	-1.049850e-01	-1.097972e-01	-1.102825e-01	-1.061986e-01	-1.003424e-01	2.575571e-03	
SCALARS Conservative_4 float 1
LOOKUP_TABLE default
3.446401e+00	3.400790e+00	3.375502e+00	3.359982e+00	3.348832e+00	3.337959e+00	3.320862e+00	3.293674e+00	3.253302e+00	3.199974e+00	3.136708e+00	3.069894e+00	3.010548e+00	2.968892e+00	2.947825e+00	2.942636e+00	2.945383e+00	2.948941e+00	2.948916e+00	2.943785e+00	2.934113e+00	2.921299e+00	2.906813e+00	2.891848e+00	2.877108e+00	2.862876e+00	2.849131e+00	2.835762e+00	2.822597e+00	2.809561e+00	2.796620e+00	2.783654e+00	2.770575e+00	2.757427e+00	2.744342e+00	2.731445e+00	2.718789e+00	2.706381e+00	2.694251e+00	2.682450e+00	2.670968e+00	2.659845e+00	2.649025e+00	2.638563e+00	2.628487e+00	2.618945e+00	2.609901e+00	2.601203e+00	2.592452e+00	2.583637e+00	2.575268e+00	2.568286e+00	2.562981e+00	2.558603e+00	2.553391e+00	2.545382e+00	2.533245e+00	2.517352e+00	2.499973e+00	2.484426e+00	2.473078e+00	2.466460e+00	2.463880e+00	2.464185e+00	2.466566e+00	2.470475e+00	2.475794e+00	2.482284e+00	2.489729e+00	2.497815e+00	2.506601e+00	2.516505e+00	2.528182e+00	2.541797e+00	2.557157e+00	2.573845e+00	2.592058e+00	2.612253e+00	2.634535e+00	2.658992e+00	2.685931e+00	2.715467e+00	2.747985e+00	2.783749e+00	2.823212e+00	2.867030e+00	2.915719e+00	2.970156e+00	3.031495e+00	3.100386e+00	3.178091e+00	3.265657e+00	3.362447e+00	3.467275e+00	3.575828e+00	3.681278e+00	3.762484e+00	3.809724e+00	3.781238e+00	3.702862e+00	3.649623e+00	3.499814e+00	3.190714e+00	2.942799e+00	2.747814e+00	2.604074e+00	2.505852e+00	2.441116e+00	2.397378e+00	2.367661e+00	2.347661e+00	2.334303e+00	2.326233e+00	2.321510e+00	2.319153e+00	2.319187e+00	2.321242e+00	2.324688e+00	2.328694e+00	2.332378e+00	2.335796e+00	2.339816e+00	2.345108e+00	2.351242e+00	2.357177e+00	2.362313e+00	2.366906e+00	2.371335e+00	2.375883e+00	2.380727e+00	2.386023e+00	2.391718e+00	2.397625e+00	2.403470e+00	2.409144e+00	2.414575e+00	2.419740e+00	2.424537e+00	2.428993e+00	2.433415e+00	2.438376e+00	2.444275e+00	2.451244e+00	2.459180e+00	2.468089e+00	2.478135e+00	2.489391e+00	2.501782e+00	2.514839e+00	2.528037e+00	2.540834e+00	2.553391e+00	2.566481e+00	2.581020e+00	2.597153e+00	2.614272e+00	2.631805e+00	2.649736e+00	2.668508e+00	2.688234e+00	2.708782e+00	2.729916e+00	2.751509e+00	2.773524e+00	2.795883e+00	2.818550e+00	2.841391e+00	2.864373e+00	2.887276e+00	2.910138e+00	2.932737e+00	2.954859e+00	2.976365e+00	2.997042e+00	3.016776e+00	3.035518e+00	3.053382e+00	3.070829e+00	3.088495e+00	3.107366e+00	3.128164e+00	3.151143e+00	3.175349e+00	3.198669e+00	3.218027e+00	3.230130e+00	3.232246e+00	3.223404e+00	3.205424e+00	3.183663e+00	3.165775e+00	3.159221e+00	3.168681e+00	3.194032e+00	3.230162e+00	3.272673e+00	3.318105e+00	3.367492e+00	3.426997e+00	3.383859e+00	
SCALARS Pressure float 1
LOOKUP_TABLE default
1.290549e+00	1.264206e+00	1.248338e+00	1.238435e+00	1.231530e+00	1.224775e+00	1.214690e+00	1.198775e+00	1.175263e+00	1.144282e+00	1.107707e+00	1.069460e+00	1.035763e+00	1.012141e+00	1.000149e+00	9.972117e-01	9.988450e-01	1.000983e+00	1.001116e+00	9.983960e-01	9.931306e-01	9.861196e-01	9.782033e-01	9.700498e-01	9.620537e-01	9.543677e-01	9.469794e-01	9.398165e-01	9.327945e-01	9.258655e-01	9.190002e-01	9.121457e-01	9.052547e-01	8.983493e-01	8.914995e-01	8.847713e-01	8.781853e-01	8.717533e-01	8.654875e-01	8.594051e-01	8.535125e-01	8.478133e-01	8.422934e-01	8.369636e-01	8.318545e-01	8.270218e-01	8.224601e-01	8.180697e-01	8.136679e-01	8.092294e-01	8.050403e-01	8.015590e-01	7.989425e-01	7.967887e-01	7.942038e-01	7.901836e-01	7.840870e-01	7.761273e-01	7.675067e-01	7.598687e-01	7.543445e-01	7.511651e-01	7.499462e-01	7.501329e-01	7.513100e-01	7.532404e-01	7.558470e-01	7.590390e-01	7.626929e-01	7.666772e-01	7.710073e-01	7.759106e-01	7.817047e-01	7.884953e-01	7.961728e-01	8.045758e-01	8.137643e-01	8.239827e-01	8.353541e-01	8.479444e-01	8.618874e-01	8.773011e-01	8.943989e-01	9.133805e-01	9.345442e-01	9.583268e-01	9.851144e-01	1.015444e+00	1.050081e+00	1.089619e+00	1.134891e+00	1.186696e+00	1.245069e+00	1.309377e+00	1.377182e+00	1.443417e+00	1.495270e+00	1.523658e+00	1.507271e+00	1.462209e+00	1.420641e+00	1.321071e+00	1.149908e+00	1.012965e+00	9.079206e-01	8.317381e-01	7.800262e-01	7.460631e-01	7.233628e-01	7.080864e-01	6.978461e-01	6.911001e-01	6.869942e-01	6.845574e-01	6.832962e-01	6.831689e-01	6.840406e-01	6.856058e-01	6.874255e-01	6.890913e-01	6.906147e-01	6.924044e-01	6.948126e-01	6.976752e-01	7.004582e-01	7.028620e-01	7.049941e-01	7.070540e-01	7.091674e-01	7.114327e-01	7.139141e-01	7.165983e-01	7.193868e-01	7.221568e-01	7.248458e-01	7.274255e-01	7.298789e-01	7.321582e-01	7.342713e-01	7.363671e-01	7.387131e-01	7.415246e-01	7.448636e-01	7.486838e-01	7.529886e-01	7.578582e-01	7.633424e-01	7.693974e-01	7.758234e-01	7.823356e-01	7.886677e-01	7.948817e-01	8.013746e-01	8.086145e-01	8.166993e-01	8.253317e-01	8.342058e-01	8.433351e-01	8.529340e-01	8.630788e-01	8.737007e-01	8.846901e-01	8.959799e-01	9.075564e-01	9.193818e-01	9.314389e-01	9.436639e-01	9.560218e-01	9.684369e-01	9.808817e-01	9.932509e-01	1.005440e+00	1.017340e+00	1.028834e+00	1.039852e+00	1.050359e+00	1.060426e+00	1.070302e+00	1.080376e+00	1.091201e+00	1.103224e+00	1.116573e+00	1.130695e+00	1.144299e+00	1.155522e+00	1.162389e+00	1.163330e+00	1.157881e+00	1.147239e+00	1.134595e+00	1.124449e+00	1.121063e+00	1.127018e+00	1.141998e+00	1.163405e+00	1.188659e+00	1.216115e+00	1.246309e+00	1.281864e+00	1.279255e+00	
SCALARS Temperature float 1
LOOKUP_TABLE default
1.075611e+00	1.069907e+00	1.065881e+00	1.063272e+00	1.061512e+00	1.059767e+00	1.057340e+00	1.053499e+00	1.047735e+00	1.039913e+00	1.030354e+00	1.020026e+00	1.010603e+00	1.003748e+00	1.000161e+00	9.992805e-01	9.998057e-01	1.000501e+00	1.000606e+00	9.998750e-01	9.983849e-01	9.963667e-01	9.940675e-01	9.916827e-01	9.893329e-01	9.870641e-01	9.848752e-01	9.827411e-01	9.806415e-01	9.785595e-01	9.764810e-01	9.743957e-01	9.722880e-01	9.701639e-01	9.680452e-01	9.659533e-01	9.638919e-01	9.618703e-01	9.598915e-01	9.579586e-01	9.560801e-01	9.542507e-01	9.524747e-01	9.507482e-01	9.490913e-01	9.475136e-01	9.460224e-01	9.445742e-01	9.431195e-01	9.416391e-01	9.402444e-01	9.390855e-01	9.382256e-01	9.375176e-01	9.366527e-01	9.352723e-01	9.331572e-01	9.303740e-01	9.273609e-01	9.246935e-01	9.227699e-01	9.216786e-01	9.212706e-01	9.213591e-01	9.217845e-01	9.224789e-01	9.234008e-01	9.245305e-01	9.258111e-01	9.272066e-01	9.287117e-01	9.304148e-01	9.324146e-01	9.347518e-01	9.373691e-01	9.402270e-01	9.433138e-01	9.467049e-01	9.504614e-01	9.545947e-01	9.591106e-01	9.640488e-01	9.694493e-01	9.753637e-01	9.818628e-01	9.890567e-01	9.970314e-01	1.005870e+00	1.015721e+00	1.026691e+00	1.038858e+00	1.052275e+00	1.066857e+00	1.082233e+00	1.097745e+00	1.111996e+00	1.122791e+00	1.127884e+00	1.125220e+00	1.117668e+00	1.106199e+00	1.081880e+00	1.045901e+00	1.010982e+00	9.805117e-01	9.557334e-01	9.372108e-01	9.241630e-01	9.151198e-01	9.088978e-01	9.046479e-01	9.018561e-01	9.001208e-01	8.990641e-01	8.984893e-01	8.983496e-01	8.986199e-01	8.991768e-01	8.998220e-01	9.004053e-01	9.009226e-01	9.015266e-01	9.023707e-01	9.034147e-01	9.044323e-01	9.053037e-01	9.060621e-01	9.067939e-01	9.075407e-01	9.083462e-01	9.092277e-01	9.101858e-01	9.111786e-01	9.121659e-01	9.131192e-01	9.140329e-01	9.148972e-01	9.156971e-01	9.164328e-01	9.171586e-01	9.179646e-01	9.189388e-01	9.200995e-01	9.214294e-01	9.229255e-01	9.246128e-01	9.265107e-01	9.285940e-01	9.308058e-01	9.330303e-01	9.351780e-01	9.372623e-01	9.394239e-01	9.418205e-01	9.444891e-01	9.473265e-01	9.502169e-01	9.531744e-01	9.562565e-01	9.594913e-01	9.628487e-01	9.662949e-01	9.698037e-01	9.733697e-01	9.769801e-01	9.806273e-01	9.842936e-01	9.879594e-01	9.916221e-01	9.952514e-01	9.988254e-01	1.002323e+00	1.005702e+00	1.008938e+00	1.012012e+00	1.014920e+00	1.017690e+00	1.020391e+00	1.023142e+00	1.026084e+00	1.029343e+00	1.032931e+00	1.036684e+00	1.040237e+00	1.043095e+00	1.044762e+00	1.044881e+00	1.043378e+00	1.040587e+00	1.037318e+00	1.034759e+00	1.034039e+00	1.035802e+00	1.039807e+00	1.045425e+00	1.051895e+00	1.058892e+00	1.066464e+00	1.074745e+00	1.083081e+00	
SCALARS Pressure_Coefficient float 1
LOOKUP_TABLE default
6.485462e-01	5.897452e-01	5.543258e-01	5.322211e-01	5.168087e-01	5.017290e-01	4.792189e-01	4.436935e-01	3.912114e-01	3.220575e-01	2.404179e-01	1.550446e-01	7.982733e-02	2.709945e-02	3.331126e-04	-6.223927e-03	-2.578078e-03	2.194328e-03	2.490526e-03	-3.580420e-03	-1.533358e-02	-3.098306e-02	-4.865325e-02	-6.685317e-02	-8.470149e-02	-1.018578e-01	-1.183496e-01	-1.343382e-01	-1.500123e-01	-1.654787e-01	-1.808032e-01	-1.961034e-01	-2.114850e-01	-2.268990e-01	-2.421886e-01	-2.572069e-01	-2.719077e-01	-2.862650e-01	-3.002512e-01	-3.138278e-01	-3.269810e-01	-3.397025e-01	-3.520237e-01	-3.639206e-01	-3.753247e-01	-3.861120e-01	-3.962944e-01	-4.060945e-01	-4.159199e-01	-4.258271e-01	-4.351780e-01	-4.429486e-01	-4.487891e-01	-4.535967e-01	-4.593666e-01	-4.683401e-01	-4.819487e-01	-4.997157e-01	-5.189582e-01	-5.360074e-01	-5.483382e-01	-5.554350e-01	-5.581559e-01	-5.577391e-01	-5.551117e-01	-5.508027e-01	-5.449844e-01	-5.378593e-01	-5.297033e-01	-5.208099e-01	-5.111445e-01	-5.001995e-01	-4.872664e-01	-4.721087e-01	-4.549713e-01	-4.362148e-01	-4.157047e-01	-3.928957e-01	-3.675133e-01	-3.394098e-01	-3.082870e-01	-2.738814e-01	-2.357167e-01	-1.933472e-01	-1.461067e-01	-9.302061e-02	-3.322673e-02	3.447423e-02	1.117881e-01	2.000431e-01	3.010957e-01	4.167312e-01	5.470293e-01	6.905738e-01	8.419233e-01	9.897695e-01	1.105513e+00	1.168879e+00	1.132301e+00	1.031717e+00	9.389297e-01	7.166768e-01	3.346167e-01	2.893905e-02	-2.055344e-01	-3.755846e-01	-4.910130e-01	-5.668235e-01	-6.174938e-01	-6.515928e-01	-6.744507e-01	-6.895088e-01	-6.986736e-01	-7.041129e-01	-7.069281e-01	-7.072123e-01	-7.052665e-01	-7.017729e-01	-6.977109e-01	-6.939926e-01	-6.905923e-01	-6.865974e-01	-6.812219e-01	-6.748322e-01	-6.686200e-01	-6.632544e-01	-6.584952e-01	-6.538973e-01	-6.491799e-01	-6.441235e-01	-6.385846e-01	-6.325931e-01	-6.263687e-01	-6.201858e-01	-6.141836e-01	-6.084252e-01	-6.029489e-01	-5.978611e-01	-5.931444e-01	-5.884664e-01	-5.832296e-01	-5.769541e-01	-5.695010e-01	-5.609737e-01	-5.513648e-01	-5.404951e-01	-5.282536e-01	-5.147379e-01	-5.003943e-01	-4.858580e-01	-4.717239e-01	-4.578534e-01	-4.433602e-01	-4.271999e-01	-4.091534e-01	-3.898847e-01	-3.700763e-01	-3.496983e-01	-3.282724e-01	-3.056276e-01	-2.819180e-01	-2.573881e-01	-2.321876e-01	-2.063474e-01	-1.799513e-01	-1.530381e-01	-1.257502e-01	-9.816573e-02	-7.045333e-02	-4.267469e-02	-1.506502e-02	1.214183e-02	3.870461e-02	6.436192e-02	8.895462e-02	1.124081e-01	1.348785e-01	1.569232e-01	1.794115e-01	2.035726e-01	2.304097e-01	2.602079e-01	2.917289e-01	3.220949e-01	3.471476e-01	3.624758e-01	3.645756e-01	3.524123e-01	3.286581e-01	3.004358e-01	2.777871e-01	2.702307e-01	2.835228e-01	3.169606e-01	3.647425e-01	4.211137e-01	4.824005e-01	5.497963e-01	6.291607e-01	6.233379e-01	
SCALARS Mach float 1
LOOKUP_TABLE default
4.935187e-01	5.210710e-01	5.398370e-01	5.517335e-01	5.596483e-01	5.674075e-01	5.780725e-01	5.946594e-01	6.189262e-01	6.508137e-01	6.883852e-01	7.275290e-01	7.621402e-01	7.867479e-01	7.994504e-01	8.025535e-01	8.007040e-01	7.982524e-01	7.978805e-01	8.004597e-01	8.057015e-01	8.127716e-01	8.207863e-01	8.290562e-01	8.371631e-01	8.449531e-01	8.524349e-01	8.596982e-01	8.668153e-01	8.738452e-01	8.808369e-01	8.878259e-01	8.948643e-01	9.019327e-01	9.089587e-01	9.158731e-01	9.226651e-01	9.293054e-01	9.357863e-01	9.420998e-01	9.482191e-01	9.541641e-01	9.599216e-01	9.655065e-01	9.708548e-01	9.759375e-01	9.807328e-01	9.853817e-01	9.900440e-01	9.947808e-01	9.992362e-01	1.002933e+00	1.005674e+00	1.007929e+00	1.010680e+00	1.015068e+00	1.021778e+00	1.030588e+00	1.040100e+00	1.048500e+00	1.054546e+00	1.057971e+00	1.059251e+00	1.058974e+00	1.057639e+00	1.055459e+00	1.052564e+00	1.049012e+00	1.044983e+00	1.040587e+00	1.035839e+00	1.030459e+00	1.024131e+00	1.016720e+00	1.008401e+00	9.992920e-01	9.894216e-01	9.785389e-01	9.664329e-01	9.530471e-01	9.383390e-01	9.221488e-01	9.043051e-01	8.845847e-01	8.626789e-01	8.381136e-01	8.104465e-01	7.791769e-01	7.434626e-01	7.024293e-01	6.550349e-01	5.998704e-01	5.353374e-01	4.598663e-01	3.712570e-01	2.683058e-01	1.523983e-01	2.331134e-02	1.112600e-01	2.150599e-01	3.139570e-01	4.617115e-01	6.265041e-01	7.607651e-01	8.672543e-01	9.493468e-01	1.008905e+00	1.050168e+00	1.078500e+00	1.097885e+00	1.111082e+00	1.119734e+00	1.125104e+00	1.128373e+00	1.130149e+00	1.130581e+00	1.129746e+00	1.128024e+00	1.126029e+00	1.124224e+00	1.122623e+00	1.120754e+00	1.118140e+00	1.114905e+00	1.111751e+00	1.109048e+00	1.106695e+00	1.104423e+00	1.102103e+00	1.099600e+00	1.096859e+00	1.093879e+00	1.090788e+00	1.087713e+00	1.084741e+00	1.081892e+00	1.079195e+00	1.076697e+00	1.074398e+00	1.072129e+00	1.069608e+00	1.066559e+00	1.062923e+00	1.058753e+00	1.054057e+00	1.048754e+00	1.042779e+00	1.036210e+00	1.029223e+00	1.022181e+00	1.015367e+00	1.008741e+00	1.001855e+00	9.942005e-01	9.856546e-01	9.765396e-01	9.672224e-01	9.576550e-01	9.476452e-01	9.370949e-01	9.260939e-01	9.147457e-01	9.031289e-01	8.912551e-01	8.791605e-01	8.668634e-01	8.544175e-01	8.418834e-01	8.292656e-01	8.166646e-01	8.041540e-01	7.918090e-01	7.797765e-01	7.681583e-01	7.570242e-01	7.464027e-01	7.362000e-01	7.261694e-01	7.158628e-01	7.047368e-01	6.922799e-01	6.783966e-01	6.636667e-01	6.495159e-01	6.379790e-01	6.311800e-01	6.306945e-01	6.368258e-01	6.481114e-01	6.611571e-01	6.712481e-01	6.740685e-01	6.671494e-01	6.512399e-01	6.284602e-01	6.014838e-01	5.712714e-01	5.371521e-01	4.977784e-01	4.554092e-01	