# vtk DataFile Version 3.0
vtk output
ASCII
DATASET UNSTRUCTURED_GRID
POINTS 5233 float
9.997500e-01	-3.633243e-05	0.0	9.990000e-01	-1.454724e-04	0.0	9.977600e-01	-3.275083e-04	0.0	9.960200e-01	-5.899321e-04	0.0	9.937800e-01	-9.471127e-04	0.0	9.910500e-01	-1.422146e-03	0.0	9.878400e-01	-2.045631e-03	0.0	9.841300e-01	-2.853900e-03	0.0	9.799500e-01	-3.859277e-03	0.0	9.752800e-01	-5.058925e-03	0.0	9.701500e-01	-6.406017e-03	0.0	9.645400e-01	-7.842060e-03	0.0	9.584700e-01	-9.291696e-03	0.0	9.519400e-01	-1.069955e-02	0.0	9.449600e-01	-1.203766e-02	0.0	9.375400e-01	-1.331043e-02	0.0	9.296900e-01	-1.454516e-02	0.0	9.214000e-01	-1.578015e-02	0.0	9.127000e-01	-1.704266e-02	0.0	9.035800e-01	-1.835371e-02	0.0	8.940600e-01	-1.971695e-02	0.0	8.841500e-01	-2.112777e-02	0.0	8.738500e-01	-2.257795e-02	0.0	8.631800e-01	-2.405540e-02	0.0	8.521600e-01	-2.554945e-02	0.0	8.407700e-01	-2.705695e-02	0.0	8.290500e-01	-2.856866e-02	0.0	8.170100e-01	-3.008072e-02	0.0	8.046400e-01	-3.159232e-02	0.0	7.919700e-01	-3.309781e-02	0.0	7.790100e-01	-3.459393e-02	0.0	7.657800e-01	-3.607605e-02	0.0	7.522800e-01	-3.754162e-02	0.0	7.385200e-01	-3.898679e-02	0.0	7.245300e-01	-4.040569e-02	0.0	7.103200e-01	-4.179469e-02	0.0	6.958900e-01	-4.315123e-02	0.0	6.812700e-01	-4.447012e-02	0.0	6.664700e-01	-4.574834e-02	0.0	6.515000e-01	-4.698314e-02	0.0	6.363800e-01	-4.817119e-02	0.0	6.211300e-01	-4.930958e-02	0.0	6.057600e-01	-5.039647e-02	0.0	5.902800e-01	-5.143021e-02	0.0	5.747100e-01	-5.240876e-02	0.0	5.590600e-01	-5.333095e-02	0.0	5.433600e-01	-5.419471e-02	0.0	5.276100e-01	-5.499983e-02	0.0	5.118400e-01	-5.574468e-02	0.0	4.960500e-01	-5.642920e-02	0.0	4.802700e-01	-5.705205e-02	0.0	4.645100e-01	-5.761285e-02	0.0	4.487800e-01	-5.811112e-02	0.0	4.331100e-01	-5.854580e-02	0.0	4.175000e-01	-5.891664e-02	0.0	4.019700e-01	-5.922277e-02	0.0	3.865400e-01	-5.946330e-02	0.0	3.712300e-01	-5.963734e-02	0.0	3.560400e-01	-5.974410e-02	0.0	3.409900e-01	-5.978242e-02	0.0	3.261100e-01	-5.975121e-02	0.0	3.114000e-01	-5.964931e-02	0.0	2.968700e-01	-5.947536e-02	0.0	2.825500e-01	-5.922827e-02	0.0	2.684500e-01	-5.890675e-02	0.0	2.545700e-01	-5.850911e-02	0.0	2.409400e-01	-5.803450e-02	0.0	2.275700e-01	-5.748163e-02	0.0	2.144700e-01	-5.684920e-02	0.0	2.016600e-01	-5.613654e-02	0.0	1.891400e-01	-5.534195e-02	0.0	1.769300e-01	-5.446501e-02	0.0	1.650400e-01	-5.350489e-02	0.0	1.534900e-01	-5.246180e-02	0.0	1.422900e-01	-5.133546e-02	0.0	1.314400e-01	-5.012459e-02	0.0	1.209500e-01	-4.882895e-02	0.0	1.108500e-01	-4.745132e-02	0.0	1.011300e-01	-4.598952e-02	0.0	9.181000e-02	-4.444565e-02	0.0	8.290000e-02	-4.282084e-02	0.0	7.440000e-02	-4.111442e-02	0.0	6.633000e-02	-3.932994e-02	0.0	5.869000e-02	-3.746709e-02	0.0	5.149000e-02	-3.552789e-02	0.0	4.474000e-02	-3.351485e-02	0.0	3.844000e-02	-3.142767e-02	0.0	3.260000e-02	-2.926917e-02	0.0	2.723000e-02	-2.704305e-02	0.0	2.232000e-02	-2.474428e-02	0.0	1.790000e-02	-2.238684e-02	0.0	1.395000e-02	-1.995993e-02	0.0	1.049000e-02	-1.747481e-02	0.0	7.520000e-03	-1.493239e-02	0.0	5.040000e-03	-1.233286e-02	0.0	3.050000e-03	-9.674714e-03	0.0	1.560000e-03	-6.973205e-03	0.0	5.600000e-04	-4.207228e-03	0.0	6.000000e-05	-1.384234e-03	0.0	0.000000e+00	0.000000e+00	0.0	6.000000e-05	1.263941e-03	0.0	5.600000e-04	3.625934e-03	0.0	1.560000e-03	5.790518e-03	0.0	3.050000e-03	7.809351e-03	0.0	5.040000e-03	9.727420e-03	0.0	7.520000e-03	1.155245e-02	0.0	1.049000e-02	1.329942e-02	0.0	1.395000e-02	1.497884e-02	0.0	1.790000e-02	1.659861e-02	0.0	2.232000e-02	1.815837e-02	0.0	2.723000e-02	1.967125e-02	0.0	3.260000e-02	2.113313e-02	0.0	3.844000e-02	2.255172e-02	0.0	4.474000e-02	2.392838e-02	0.0	5.149000e-02	2.526449e-02	0.0	5.869000e-02	2.656308e-02	0.0	6.633000e-02	2.782488e-02	0.0	7.440000e-02	2.905056e-02	0.0	8.290000e-02	3.024204e-02	0.0	9.181000e-02	3.139822e-02	0.0	1.011300e-01	3.252062e-02	0.0	1.108500e-01	3.360920e-02	0.0	1.209500e-01	3.466283e-02	0.0	1.314400e-01	3.568339e-02	0.0	1.422900e-01	3.666857e-02	0.0	1.534900e-01	3.761811e-02	0.0	1.650400e-01	3.853239e-02	0.0	1.769300e-01	3.941072e-02	0.0	1.891400e-01	4.025162e-02	0.0	2.016600e-01	4.105431e-02	0.0	2.144700e-01	4.181730e-02	0.0	2.275700e-01	4.254016e-02	0.0	2.409400e-01	4.322120e-02	0.0	2.545700e-01	4.385916e-02	0.0	2.684500e-01	4.445264e-02	0.0	2.825500e-01	4.499933e-02	0.0	2.968700e-01	4.549805e-02	0.0	3.114000e-01	4.594704e-02	0.0	3.261100e-01	4.634383e-02	0.0	3.409900e-01	4.668654e-02	0.0	3.560400e-01	4.697330e-02	0.0	3.712300e-01	4.720155e-02	0.0	3.865400e-01	4.736899e-02	0.0	4.019700e-01	4.747346e-02	0.0	4.175000e-01	4.751253e-02	0.0	4.331100e-01	4.748384e-02	0.0	4.487800e-01	4.738516e-02	0.0	4.645100e-01	4.721415e-02	0.0	4.802700e-01	4.696883e-02	0.0	4.960500e-01	4.664719e-02	0.0	5.118400e-01	4.624731e-02	0.0	5.276100e-01	4.576805e-02	0.0	5.433600e-01	4.520772e-02	0.0	5.590600e-01	4.456596e-02	0.0	5.747100e-01	4.384166e-02	0.0	5.902800e-01	4.303546e-02	0.0	6.057600e-01	4.214764e-02	0.0	6.211300e-01	4.117957e-02	0.0	6.363800e-01	4.013264e-02	0.0	6.515000e-01	3.900882e-02	0.0	6.664700e-01	3.781146e-02	0.0	6.812700e-01	3.654476e-02	0.0	6.958900e-01	3.521287e-02	0.0	7.103200e-01	3.382061e-02	0.0	7.245300e-01	3.237554e-02	0.0	7.385200e-01	3.088299e-02	0.0	7.522800e-01	2.934990e-02	0.0	7.657800e-01	2.778618e-02	0.0	7.790100e-01	2.620020e-02	0.0	7.919700e-01	2.459959e-02	0.0	8.046400e-01	2.299490e-02	0.0	8.170100e-01	2.139574e-02	0.0	8.290500e-01	1.981447e-02	0.0	8.407700e-01	1.825789e-02	0.0	8.521600e-01	1.673444e-02	0.0	8.631800e-01	1.525495e-02	0.0	8.738500e-01	1.381991e-02	0.0	8.841500e-01	1.243253e-02	0.0	8.940600e-01	1.109402e-02	0.0	9.035800e-01	9.802681e-03	0.0	9.127000e-01	8.561216e-03	0.0	9.214000e-01	7.380570e-03	0.0	9.296900e-01	6.277309e-03	0.0	9.375400e-01	5.282405e-03	0.0	9.449600e-01	4.425010e-03	0.0	9.519400e-01	3.730049e-03	0.0	9.584700e-01	3.203638e-03	0.0	9.645400e-01	2.825589e-03	0.0	9.701500e-01	2.551023e-03	0.0	9.752800e-01	2.324113e-03	0.0	9.799500e-01	2.092601e-03	0.0	9.841300e-01	1.826759e-03	0.0	9.878400e-01	1.519765e-03	0.0	9.910500e-01	1.190142e-03	0.0	9.937800e-01	8.630000e-04	0.0	9.960200e-01	5.666203e-04	0.0	9.977600e-01	3.231871e-04	0.0	9.990000e-01	1.450782e-04	0.0	9.997500e-01	3.632618e-05	0.0	1.000000e+00	0.000000e+00	0.0	1.984229e+01	2.506660e+00	0.0	1.937166e+01	4.973800e+00	0.0	1.859553e+01	7.362490e+00	0.0	1.752613e+01	9.635070e+00	0.0	1.618034e+01	1.175571e+01	0.0	1.457937e+01	1.369094e+01	0.0	1.274848e+01	1.541027e+01	0.0	1.071654e+01	1.688656e+01	0.0	8.515590e+00	1.809654e+01	0.0	6.180340e+00	1.902113e+01	0.0	3.747630e+00	1.964575e+01	0.0	1.255810e+00	1.996053e+01	0.0	-1.255810e+00	1.996053e+01	0.0	-3.747630e+00	1.964574e+01	0.0	-6.180340e+00	1.902113e+01	0.0	-8.515590e+00	1.809654e+01	0.0	-1.071654e+01	1.688656e+01	0.0	-1.274848e+01	1.541026e+01	0.0	-1.457937e+01	1.369094e+01	0.0	-1.618034e+01	1.175570e+01	0.0	-1.752613e+01	9.635070e+00	0.0	-1.859553e+01	7.362490e+00	0.0	-1.937166e+01	4.973800e+00	0.0	-1.984229e+01	2.506660e+00	0.0	-2.000000e+01	0.000000e+00	0.0	-1.984229e+01	-2.506670e+00	0.0	-1.937166e+01	-4.973800e+00	0.0	-1.859553e+01	-7.362490e+00	0.0	-1.752613e+01	-9.635080e+00	0.0	-1.618034e+01	-1.175571e+01	0.0	-1.457937e+01	-1.369094e+01	0.0	-1.274848e+01	-1.541027e+01	0.0	-1.071653e+01	-1.688656e+01	0.0	-8.515580e+00	-1.809654e+01	0.0	-6.180340e+00	-1.902113e+01	0.0	-3.747620e+00	-1.964575e+01	0.0	-1.255810e+00	-1.996053e+01	0.0	1.255810e+00	-1.996053e+01	0.0	3.747630e+00	-1.964574e+01	0.0	6.180340e+00	-1.902113e+01	0.0	8.515590e+00	-1.809654e+01	0.0	1.071654e+01	-1.688656e+01	0.0	1.274848e+01	-1.541026e+01	0.0	1.457937e+01	-1.369094e+01	0.0	1.618034e+01	-1.175570e+01	0.0	1.752614e+01	-9.635070e+00	0.0	1.859553e+01	-7.362490e+00	0.0	1.937166e+01	-4.973790e+00	0.0	1.984229e+01	-2.506660e+00	0.0	2.000000e+01	0.000000e+00	0.0	6.074212e-02	-4.533013e-02	0.0	6.601884e-01	-6.002695e-02	0.0	4.255536e-01	6.172239e-02	0.0	6.897643e-01	4.910065e-02	0.0	3.791232e-01	-7.360936e-02	0.0	9.994675e-01	-7.275913e-04	0.0	9.985545e-01	-1.331429e-03	0.0	7.738132e-01	-4.740501e-02	0.0	6.898601e-01	-5.715323e-02	0.0	-1.127719e-03	5.518010e-03	0.0	7.467801e-01	-5.081252e-02	0.0	5.833313e-01	5.752987e-02	0.0	9.928160e-01	-3.736299e-03	0.0	9.899360e-01	-4.744306e-03	0.0	5.989073e-01	5.659473e-02	0.0	7.187647e-01	-5.406869e-02	0.0	-1.469015e-03	5.999423e-04	0.0	9.865726e-01	-5.906693e-03	0.0	9.827329e-01	-7.226724e-03	0.0	-1.302623e-03	-6.474511e-03	0.0	6.451051e-01	-6.137750e-02	0.0	8.244820e-01	-4.030243e-02	0.0	7.997422e-01	-4.389897e-02	0.0	3.484812e-01	6.060990e-02	0.0	8.479021e-01	-3.667174e-02	0.0	2.473658e-01	5.610227e-02	0.0	8.699422e-01	-3.303111e-02	0.0	1.046347e-02	1.734837e-02	0.0	8.904959e-01	-2.943669e-02	0.0	7.702132e-02	-4.970809e-02	0.0	9.094911e-01	-2.594327e-02	0.0	-1.767239e-03	-3.207653e-03	0.0	9.424827e-01	-1.917036e-02	0.0	9.268476e-01	-2.255276e-02	0.0	1.794729e-02	-2.750367e-02	0.0	4.257416e-01	-7.304023e-02	0.0	8.591037e-01	-3.484722e-02	0.0	9.563357e-01	-1.566849e-02	0.0	9.784089e-01	-8.725862e-03	0.0	9.683302e-01	-1.208166e-02	0.0	1.582634e-01	-6.358088e-02	0.0	9.001952e-01	-2.767539e-02	0.0	7.604295e-01	-4.912459e-02	0.0	9.971360e-01	-2.087298e-03	0.0	5.990500e-01	-6.504989e-02	0.0	4.414441e-01	-7.269043e-02	0.0	5.363196e-01	-6.898448e-02	0.0	4.730157e-01	-7.175813e-02	0.0	5.046766e-01	-7.052091e-02	0.0	4.888342e-01	-7.117645e-02	0.0	1.249493e-01	-5.907333e-02	0.0	2.784370e-02	-3.298432e-02	0.0	3.945689e-01	-7.350137e-02	0.0	4.621867e-02	-4.063182e-02	0.0	4.101098e-01	-7.331199e-02	0.0	3.187148e-01	-7.321762e-02	0.0	3.486126e-01	-7.358415e-02	0.0	3.350730e-02	-3.559802e-02	0.0	2.895106e-01	-7.251248e-02	0.0	9.348851e-01	-2.086844e-02	0.0	1.468046e-01	-6.216907e-02	0.0	1.946436e-01	-6.723984e-02	0.0	8.579557e-02	-5.176569e-02	0.0	1.045869e-01	-5.561262e-02	0.0	5.678223e-01	-6.716494e-02	0.0	1.700659e-01	-6.489888e-02	0.0	6.145275e-01	-6.388829e-02	0.0	8.804133e-01	-3.122547e-02	0.0	2.266764e-02	-3.028453e-02	0.0	9.952218e-01	-2.870170e-03	0.0	6.735779e-03	-1.882632e-02	0.0	1.849170e-02	2.151808e-02	0.0	9.183778e-01	-2.423854e-02	0.0	9.49640
[...]
POINT_DATA 5233

SCALARS Conservative_1 float 1
LOOKUP_TABLE default
1.199830e+00	1.181607e+00	1.171185e+00	1.164748e+00	1.160177e+00	1.155715e+00	1.148831e+00	1.137914e+00	1.121731e+00	1.100373e+00	1.075079e+00	1.048462e+00	1.024887e+00	1.008346e+00	9.999688e-01	9.979087e-01	9.990174e-01	1.000460e+00	1.000486e+00	9.984968e-01	9.947118e-01	9.896886e-01	9.840128e-01	9.781560e-01	9.723960e-01	9.668436e-01	9.614901e-01	9.562889e-01	9.511753e-01	9.461178e-01	9.411004e-01	9.360793e-01	9.310204e-01	9.259403e-01	9.208903e-01	9.159187e-01	9.110444e-01	9.062717e-01	9.016121e-01	8.970820e-01	8.926814e-01	8.884208e-01	8.842826e-01	8.802835e-01	8.764384e-01	8.727991e-01	8.693550e-01	8.660420e-01	8.627128e-01	8.593577e-01	8.561793e-01	8.535317e-01	8.515293e-01	8.498808e-01	8.479140e-01	8.448767e-01	8.402666e-01	8.342282e-01	8.276383e-01	8.217555e-01	8.174704e-01	8.149788e-01	8.140090e-01	8.141273e-01	8.150234e-01	8.164974e-01	8.184998e-01	8.209467e-01	8.237518e-01	8.268026e-01	8.301186e-01	8.338634e-01	8.382841e-01	8.434484e-01	8.492796e-01	8.556311e-01	8.625679e-01	8.702686e-01	8.787904e-01	8.881724e-01	8.985267e-01	9.099121e-01	9.224802e-01	9.363488e-01	9.517082e-01	9.688355e-01	9.879592e-01	1.009438e+00	1.033758e+00	1.061233e+00	1.092395e+00	1.127711e+00	1.167026e+00	1.209878e+00	1.254556e+00	1.298044e+00	1.331743e+00	1.350898e+00	1.339544e+00	1.308301e+00	1.284309e+00	1.221187e+00	1.099604e+00	1.002146e+00	9.261371e-01	8.703958e-01	8.323778e-01	8.073426e-01	7.904842e-01	7.790628e-01	7.713824e-01	7.662735e-01	7.631761e-01	7.613521e-01	7.604269e-01	7.603969e-01	7.611332e-01	7.623989e-01	7.638723e-01	7.652259e-01	7.664757e-01	7.679457e-01	7.698949e-01	7.721736e-01	7.743826e-01	7.762930e-01	7.779965e-01	7.796400e-01	7.813267e-01	7.831271e-01	7.850967e-01	7.872192e-01	7.894220e-01	7.916045e-01	7.937239e-01	7.957549e-01	7.976884e-01	7.994859e-01	8.011565e-01	8.028166e-01	8.046837e-01	8.069219e-01	8.095881e-01	8.126458e-01	8.160846e-01	8.199378e-01	8.242042e-01	8.288352e-01	8.336753e-01	8.385624e-01	8.433377e-01	8.480748e-01	8.530568e-01	8.586076e-01	8.647654e-01	8.712946e-01	8.779799e-01	8.848287e-01	8.920121e-01	8.995769e-01	9.074700e-01	9.156036e-01	9.239294e-01	9.324354e-01	9.410917e-01	9.498847e-01	9.587645e-01	9.677133e-01	9.766570e-01	9.855981e-01	9.944535e-01	1.003143e+00	1.011603e+00	1.019750e+00	1.027538e+00	1.034945e+00	1.042018e+00	1.048937e+00	1.055962e+00	1.063482e+00	1.071795e+00	1.080996e+00	1.090704e+00	1.100056e+00	1.107802e+00	1.112605e+00	1.113376e+00	1.109751e+00	1.102494e+00	1.093771e+00	1.086663e+00	1.084140e+00	1.088043e+00	1.098260e+00	1.112838e+00	1.130007e+00	1.148473e+00	1.168634e+00	1.192714e+00	1.181127e+00	9.999764e-01	9.999695e-01	9.999528e-01	9.999289e-01	9.999048e-01	9.998767e-01	9.998371e-01	9.997820e-01	9.997193e-01	9.996673e-01	9.996329e-01	9.996444e-01	9.996987e-01	9.998094e-01	9.999043e-01	9.999811e-01	1.000023e+00	1.000049e+00	1.000064e+00	1.000070e+00	1.000073e+00	1.000074e+00	1.000074e+00	1.000076e+00	1.000077e+00	1.000080e+00	1.000085e+00	1.000092e+00	1.000101e+00	1.000114e+00	1.000129e+00	1.000150e+00	1.000169e+00	1.000196e+00	1.000213e+00	1.000224e+00	1.000225e+00	1.000213e+00	1.000202e+00	1.000189e+00	1.000183e+00	1.000168e+00	1.000150e+00	1.000130e+00	1.000106e+00	1.000078e+00	1.000060e+00	1.000046e+00	1.000013e+00	9.999797e-01	9.442356e-01	9.020284e-01	8.216595e-01	9.233154e-01	8.407020e-01	1.183064e+00	1.173574e+00	9.407700e-01	9.112343e-01	1.217079e+00	9.307955e-01	8.721457e-01	1.151728e+00	1.144999e+00	8.787599e-01	9.208529e-01	1.307667e+00	1.136027e+00	1.123659e+00	1.337688e+00	8.976113e-01	9.608720e-01	9.507102e-01	8.072526e-01	9.714442e-01	7.942677e-01	9.825523e-01	8.785067e-01	9.931650e-01	9.170321e-01	1.000596e+00	1.344670e+00	1.006070e+00	1.002981e+00	1.100328e+00	8.522809e-01	9.769548e-01	1.025346e+00	1.107405e+00	1.065590e+00	8.483681e-01	9.974750e-01	9.358025e-01	1.164153e+00	8.850980e-01	8.538213e-01	8.706044e-01	8.576683e-01	8.639429e-01	8.606156e-01	8.682390e-01	1.042927e+00	8.461851e-01	9.774652e-01	8.499745e-01	8.197234e-01	8.278229e-01	1.018640e+00	8.181987e-01	1.003592e+00	8.543876e-01	8.347578e-01	9.052960e-01	8.849026e-01	8.774631e-01	8.431056e-01	8.891509e-01	9.880598e-01	1.070064e+00	1.157657e+00	1.209192e+00	8.235275e-01	1.002335e+00	1.012752e+00	1.087640e+00	1.133975e+00	9.660901e-01	8.224679e-01	8.739538e-01	9.257894e-01	9.457231e-01	8.761385e-01	8.279563e-01	8.811937e-01	9.065775e-01	9.600022e-01	1.248741e+00	1.133801e+00	8.341634e-01	8.386424e-01	1.211159e+00	8.250064e-01	8.946188e-01	8.183080e-01	8.204472e-01	8.554339e-01	9.159944e-01	1.279774e+00	1.318487e+00	8.546322e-01	1.324605e+00	7.951148e-01	7.745262e-01	7.811064e-01	7.755325e-01	8.179638e-01	1.140208e+00	8.498200e-01	8.351364e-01	1.097229e+00	1.105881e+00	1.052308e+00	8.401271e-01	8.257809e-01	8.117701e-01	1.083665e+00	1.067069e+00	7.729883e-01	1.092470e+00	1.106629e+00	1.099080e+00	7.739171e-01	7.731227e-01	8.003241e-01	7.963516e-01	7.835862e-01	8.038904e-01	8.303072e-01	8.146693e-01	7.807130e-01	7.771339e-01	8.923979e-01	7.864905e-01	7.900972e-01	9.073303e-01	8.657349e-01	9.570249e-01	9.399362e-01	9.915378e-01	9.743194e-01	1.023959e+00	1.008263e+00	1.059468e+00	1.038462e+00	1.104247e+00	1.075205e+00	1.102352e+00	1.031352e+00	1.045389e+00	9.999922e-01	1.016259e+00	9.656680e-01	9.829712e-01	9.315511e-01	9.484332e-01	8.996847e-01	9.152273e-01	8.598541e-01	8.854604e-01	7.881933e-01	7.921581e-01	7.822127e-01	7.849822e-01	7.771178e-01	7.789962e-01	8.465440e-01	7.868662e-01	8.312316e-01	9.815901e-01	1.043716e+00	9.557526e-01	8.228415e-01	8.673105e-01	1.053553e+00	8.069160e-01	9.227260e-01	7.734673e-01	7.727264e-01	7.983732e-01	7.744910e-01	1.090288e+00	1.092360e+00	8.021720e-01	1.099357e+00	1.110408e+00	8.055245e-01	8.092911e-01	1.091907e+00	1.206471e+00	1.157948e+00	1.174453e+00	8.933150e-01	9.969219e-01	1.124406e+00	8.450478e-01	1.286683e+00	1.170381e+00	9.299604e-01	8.610349e-01	8.189829e-01	7.850499e-01	1.199651e+00	1.259584e+00	8.238468e-01	9.164760e-01	1.003299e+00	1.199623e+00	8.735676e-01	9.118277e-01	9.456504e-01	1.133362e+00	8.258072e-01	9.762674e-01	9.657449e-01	9.125416e-01	1.317256e+00	8.363398e-01	1.132800e+00	1.041618e+00	8.603020e-01	9.212061e-01	9.028548e-01	8.580097e-01	9.244870e-01	8.471735e-01	9.965275e-01	9.505440e-01	9.566125e-01	8.548756e-01	9.153702e-01	1.020568e+00	7.829831e-01	9.232064e-01	7.882727e-01	1.041880e+00	1.100595e+00	8.103340e-01	8.519377e-01	1.099659e+00	1.048693e+00	1.108343e+00	1.100937e+00	1.094582e+00	7.974444e-01	8.086332e-01	7.955149e-01	7.828509e-01	9.072957e-01	8.401773e-01	9.140514e-01	7.859670e-01	7.939494e-01	1.098099e+00	1.119019e+00	1.055567e+00	8.541614e-01	1.215366e+00	1.145814e+00	1.131605e+00	1.009188e+00	1.133598e+00	1.234087e+00	1.331035e+00	1.315080e+00	1.102228e+00	1.217658e+00	9.519011e-01	1.163051e+00	1.148584e+00	8.240142e-01	8.755023e-01	1.123040e+00	9.869259e-01	8.800401e-01	1.141670e+00	1.332386e+00	8.564733e-01	8.204810e-01	9.709544e-01	8.033156e-01	9.816264e-01	9.919758e-01	9.375588e-01	1.000337e+00	1.005606e+00	1.017421e+00	1.048590e+00	1.027453e+00	1.058815e+00	1.110027e+00	8.746791e-01	9.358827e-01	9.407847e-01	1.155392e+00	8.599333e-01	8.625697e-01	8.656887e-01	1.074298e+00	8.516719e-01	8.546335e-01	8.296461e-01	1.004203e+00	1.007884e+00	1.011313e+00	8.671849e-01	9.016378e-01	8.789134e-01	8.902936e-01	1.077039e+00	1.094520e+00	9.260093e-01	9.309414e-01	8.917815e-01	8.828283e-01	8.825397e-01	8.863313e-01	9.851244e-01	9.677426e-01	1.165327e+00	8.350861e-01	8.413262e-01	8.489231e-01	8.443278e-01	8.328763e-01	8.298105e-01	8.232487e-01	8.237888e-01	8.272530e-01	1.298389e+00	1.267563e+00	8.001242e-01	1.095889e+00	8.566975e-01	8.470859e-01	8.420934e-01	8.370987e-01	1.095743e+00	1.100209e+00	1.077330e+00	8.323713e-01	8.279847e-01	8.173596e-01	1.069922e+00	1.096264e+00	7.867417e-01	7.895749e-01	7.994176e-01	8.013764e-01	7.871143e-01	7.848647e-01	7.837624e-01	9.889866e-01	9.557530e-01	9.474671e-01	9.807563e-01	1.013008e+00	1.062611e+00	1.034968e+00	1.027874e+00	1.005239e+00	9.972061e-01	9.724162e-01	9.640731e-01	9.392727e-01	9.311707e-01	9.077328e-01	9.003505e-01	8.673331e-01	8.617035e-01	8.933242e-01	8.865811e-01	7.936918e-01	7.920785e-01	7.906753e-01	7.894511e-01	8.808516e-01	8.085900e-01	8.199759e-01	9.555252e-01	9.606034e-01	8.689629e-01	8.722012e-01	1.069818e+00	8.350214e-01	7.832899e-01	7.840121e-01	8.069619e-01	8.051870e-01	8.146349e-01	8.122841e-01	1.091055e+00	1.084543e+00	8.943550e-01	8.985548e-01	1.025242e+00	1.297447e+00	8.252204e-01	1.311618e+00	8.534895e-01	8.291735e-01	9.510368e-01	8.776787e-01	1.007424e+00	1.107313e+00	1.101247e+00	1.096619e+00	1.081263e+00	1.115966e+00	1.160560e+00	1.181452e+00	1.153149e+00	1.200928e+00	1.103874e+00	1.283286e+00	9.202010e-01	1.010833e+00	1.131565e+00	8.756971e-01	1.172917e+00	1.220860e+00	9.222347e-01	1.275981e+00	9.269029e-01	1.131329e+00	9.863379e-01	1.190700e+00	8.325128e-01	9.812091e-01	9.176287e-01	1.139460e+00	1.160723e+00	1.095991e+00	8.593412e-01	1.093268e+00	9.163445e-01	1.125960e+00	8.544778e-01	8.064804e-01	8.136323e-01	7.934740e-01	7.997655e-01	1.171570e+00	1.293320e+00	1.184941e+00	9.089185e-01	1.240784e+00	1.055114e+00	9.322421e-01	1.312140e+00	8.664655e-01	8.627248e-01	1.077987e+00	9.820345e-01	1.017769e+00	9.872120e-01	9.239109e-01	1.097517e+00	1.095659e+00	1.051761e+00	1.045135e+00	8.119342e-01	8.083699e-01	8.009178e-01	7.917226e-01	9.086770e-01	9.131036e-01	8.457653e-01	9.422463e-01	7.926161e-01	1.095970e+00	1.136238e+00	1.029051e+00	1.134289e+00	1.249583e+00	1.315012e+00	1.053644e+00	1.186193e+00	1.178454e+00	1.070322e+00	1.122730e+00	8.820223e-01	8.610955e-01	8.267006e-01	9.708497e-01	9.760203e-01	9.913258e-01	9.960149e-01	9.597275e-01	9.454124e-01	1.000263e+00	1.004044e+00	1.029618e+00	1.041158e+00	1.112217e+00	9.414092e-01	9.462358e-01	1.145979e+00	8.649953e-01	8.679628e-01	8.572340e-01	8.595297e-01	1.031564e+00	1.015018e+00	1.020989e+00	8.814709e-01	8.736179e-01	8.810140e-01	8.845289e-01	1.085515e+00	1.099628e+00	9.316817e-01	9.365928e-01	9.091774e-01	8.989648e-01	8.897792e-01	8.882151e-01	8.920779e-01	1.011479e+00	9.927415e-01	9.754320e-01	8.368403e-01	8.424716e-01	8.483700e-01	8.604312e-01	8.550939e-01	8.502474e-01	8.417420e-01	8.381300e-01	8.288942e-01	8.298573e-01	8.350296e-01	8.181159e-01	8.494191e-01	8.442752e-01	1.096486e+00	8.393604e-01	8.347428e-01	8.305102e-01	8.233528e-01	1.071781e+00	8.041596e-01	8.101571e-01	8.045734e-01	8.027227e-01	7.920407e-01	7.918608e-01	7.916927e-01	9.553119e-01	1.065128e+00	1.058384e+00	1.038472e+00	1.031761e+00	1.024933e+00	1.010369e+00	1.002848e+00	9.950962e-01	9.793342e-01	9.713436e-01	9.633260e-01	9.473562e-01	9.394382e-01	9.316328e-01	9.089546e-01	8.695798e-01	8.642893e-01	9.018609e-01	8.950492e-01	8.884551e-01	7.992387e-01	7.977042e-01	7.964222e-01	7.953240e-01	7.943900e-01	8.287344e-01	8.425670e-01	9.558871e-01	9.608430e-01	9.657952e-01	8.711659e-01	8.743971e-01	8.600848e-01	8.817691e-01	7.926019e-01	7.944048e-01	7.967109e-01	8.102083e-01	8.204217e-01	8.178488e-01	8.155490e-01	1.089404e+00	1.084293e+00	1.078305e+00	8.960524e-01	9.001507e-01	9.043534e-01	8.324216e-01	8.304534e-01	1.289954e+00	9.280235e-01	1.129352e+00	1.097674e+00	8.830659e-01	1.261923e+00	1.159460e+00	1.013163e+00	1.018089e+00	1.057376e+00	1.112688e+00	8.576853e-01	1.271277e+00	9.661067e-01	1.206345e+00	1.092422e+00	1.120624e+00	1.172081e+00	9.173300e-01	1.130669e+00	1.185408e+00	1.188068e+00	9.563667e-01	8.738804e-01	1.104077e+00	8.600148e-01	9.401773e-01	8.662616e-01	8.357502e-01	1.101029e+00	8.780978e-01	1.090342e+00	1.087309e+00	9.861976e-01	7.997980e-01	8.102347e-01	1.122124e+00	8.186447e-01	9.865668e-01	1.146690e+00	1.105995e+00	1.144062e+00	1.078631e+00	1.128360e+00	9.233679e-01	1.231577e+00	9.284786e-01	9.325719e-01	1.154379e+00	1.129956e+00	1.180674e+00	1.015175e+00	8.615712e-01	8.157155e-01	1.219451e+00	1.002463e+00	9.254046e-01	1.048436e+00	8.174862e-01	8.139428e-01	8.120626e-01	9.144439e-01	9.194440e-01	1.095701e+00	1.042611e+00	1.086644e+00	1.254724e+00	1.296781e+00	1.080017e+00	1.065697e+00	1.113097e+00	8.850790e-01	9.764622e-01	9.814488e-01	9.914408e-01	9.961753e-01	9.673322e-01	9.532141e-01	1.000596e+00	1.004861e+00	1.008989e+00	1.041503e+00	1.053082e+00	9.467763e-01	9.520034e-01	1.137244e+00	8.681845e-01	8.708742e-01	8.628900e-01	8.647368e-01	1.024013e+00	1.031671e+00	8.890322e-01	8.805548e-01	8.871574e-01	1.091101e+00	1.102747e+00	9.376924e-01	9.429661e-01	9.168328e-01	9.066984e-01	8.977190e-01	8.901355e-01	8.945217e-01	1.037311e+00	1.017878e+00	9.993524e-01	9.825082e-01	8.403568e-01	8.449291e-01	8.502866e-01	8.555127e-01	8.678761e-01	8.623110e-01	8.570782e-01	8.523813e-01	8.481633e-01	8.372856e-01	8.357839e-01	8.444904e-01	8.521468e-01	1.094600e+00	1.093697e+00	8.470870e-01	8.422842e-01	8.378131e-01	8.337436e-01	8.301127e-01	8.267721e-01	8.370561e-01	8.084251e-01	8.068015e-01	7.995909e-01	7.998987e-01	8.006680e-01	8.014244e-01	1.067045e+00	1.060932e+00	1.054757e+00	1.042077e+00	1.035745e+00	1.029391e+00	1.021922e+00	1.008936e+00	1.000874e+00	9.934370e-01	9.782261e-01	9.709724e-01	9.628032e-01	9.556318e-01	9.473757e-01	9.403753e-01	9.321625e-01	8.673716e-01	8.717432e-01	9.109256e-01	9.032174e-01	8.973037e-01	8.900775e-01	8.052212e-01	8.038609e-01	8.025369e-01	8.015183e-01	8.006253e-01	8.000322e-01	8.491970e-01	8.647143e-01	9.615736e-01	9.667390e-01	9.714949e-01	8.740540e-01	8.763893e-01	8.803074e-01	8.841761e-01	9.071557e-01	9.340157e-01	8.025353e-01	8.048286e-01	8.086279e-01	8.130695e-01	8.269182e-01	8.241461e-01	8.216740e-01	8.193120e-01	1.072942e+00	1.083252e+00	1.078481e+00	8.977778e-01	9.023960e-01	9.058921e-01	9.107153e-01	8.412916e-01	8.387058e-01	8.367777e-01	1.148039e+00	1.125339e+00	1.073701e+00	1.177464e+00	1.171252e+00	9.363497e-01	9.362234e-01	1.193492e+00	1.096514e+00	1.235372e+00	1.081034e+00	8.826268e-01	8.076003e-01	1.018758e+00	1.127216e+00	1.235019e+00	1.292341e+00	1.294392e+00	1.281541e+00	1.250858e+00	1.138728e+00	8.218083e-01	1.084567e+00	1.121535e+00	1.026534e+00	9.595464e-01	8.664488e-01	1.115922e+00	1.068640e+00	1.082008e+00	8.773973e-01	8.678509e-01	9.227071e-01	9.813473e-01	8.607455e-01	8.874611e-01	8.228968e-01	1.109670e+00	9.483136e-01	1.165198e+00	1.099796e+00	1.292594e+00	1.182392e+00	1.173232e+00	1.019706e+00	1.061193e+00	1.266783e+00	9.859346e-01	1.215154e+00	1.088033e+00	1.162072e+00	1.177068e+00	1.178082e+00	1.125453e+00	8.423468e-01	8.430641e-01	1.104116e+00	8.874199e-01	1.085393e+00	1.113481e+00	9.275211e-01	1.200219e+00	8.192885e-01	8.181538e-01	8.156223e-01	9.187380e-01	1.053339e+00	1.090055e+00	1.275321e+00	1.103670e+00	9.825392e-01	9.866578e-01	9.920367e-01	9.964653e-01	9.611316e-01	9.753934e-01	1.001592e+00	1.005586e+00	1.010530e+00	1.015601e+00	1.052033e+00	1.062701e+00	9.507681e-01	1.128578e+00	8.712679e-01	8.741361e-01	8.679787e-01	8.702773e-01	1.033968e+00	1.042180e+00	8.963681e-01	8.872985e-01	1.095032e+00	1.104732e+00	9.443271e-01	9.246966e-01	9.138297e-01	9.071269e-01	8.946649e-01	1.042282e+00	1.023683e+00	1.005875e+00	9.903692e-01	8.451907e-01	8.475703e-01	8.527419e-01	8.570544e-01	8.623122e-01	8.748524e-01	8.704161e-01	8.633616e-01	8.598400e-01	8.541356e-01	1.094058e+00	1.092112e+00	1.090219e+00	8.545416e-01	8.503750e-01	8.449395e-01	8.414012e-01	8.366838e-01	8.442269e-01	8.563658e-01	8.146699e-01	8.123541e-01	8.069863e-01	8.097774e-01	8.117678e-01	1.062748e+00	1.057316e+00	1.051243e+00	1.045408e+00	1.039195e+00	1.033251e+00	1.026414e+00	1.016522e+00	1.007119e+00	9.954296e-01	9.666703e-01	9.518851e-01	9.371971e-01	9.087120e-01	8.963439e-01	8.117738e-01	8.096934e-01	8.094805e-01	8.075588e-01	8.079272e-01	8.072073e-01	8.071853e-01	8.706247e-01	8.867985e-01	9.677182e-01	9.721982e-01	9.772447e-01	8.772391e-01	8.810845e-01	9.067286e-01	9.306007e-01	9.565690e-01	8.137579e-01	8.167487e-01	8.216250e-01	8.286462e-01	8.357578e-01	8.340225e-01	8.302002e-01	8.285476e-01	8.257264e-01	1.078213e+00	1.072955e+00	9.022819e-01	9.103066e-01	8.515846e-01	8.470889e-01	8.456980e-01	8.427565e-01	1.166081e+00	1.154373e+00	1.181132e+00	1.255021e+00	1.180683e+00	1.088608e+00	1.106552e+00	1.183446e+00	1.086408e+00	1.141049e+00	1.105942e+00	1.255353e+00	1.081789e+00	1.161518e+00	8.282307e-01	1.177728e+00	1.061024e+00	1.152391e+00	1.141403e+00	1.079418e+00	8.887720e-01	1.101714e+00	8.496319e-01	1.035156e+00	1.024784e+00	9.105776e-01	9.441374e-01	8.864295e-01	1.231231e+00	8.726240e-01	9.700964e-01	9.572406e-01	8.171794e-01	1.094247e+00	1.066044e+00	1.212936e+00	1.031074e+00	1.070051e+00	1.170731e+00	1.097581e+00	1.291377e+00	1.245011e+00	1.113745e+00	9.441121e-01	8.701592e-01	8.601514e-01	1.112127e+00	1.173870e+00	1.129519e+00	1.275275e+00	1.176734e+00	1.064226e+00	1.216972e+00	1.199797e+00	8.880065e-01	1.101520e+00	1.083953e+00	1.080346e+00	8.787035e-01	8.244955e-01	8.209880e-01	9.358343e-01	1.091899e+00	1.122824e+00	1.122160e+00	9.901043e-01	9.994705e-01	9.829490e-01	1.009043e+00	1.017496e+00	1.060612e+00	1.120998e+00	8.760369e-01	1.043355e+00	1.051492e+00	8.995763e-01	1.097456e+00	9.513286e-01	9.587197e-01	9.279672e-01	9.145209e-01	8.954053e-01	1.046617e+00	1.028055e+00	1.011281e+00	9.997203e-01	8.534403e-01	8.612425e-01	8.688079e-01	8.739872e-01	8.636217e-01	1.091459e+00	1.088966e+00	8.505489e-01	8.423235e-01	8.759867e-01	8.181644e-01	8.224486e-01	1.003225e+00	1.056086e+00	1.044860e+00	1.033322e+00	1.022737e+00	1.013346e+00	9.908832e-01	9.772006e-01	9.631075e-01	9.489752e-01	9.348269e-01	9.208619e-01	9.081475e-01	8.976333e-01	8.161119e-01	8.148014e-01	8.150139e-01	8.137499e-01	8.158151e-01	8.921856e-01	9.090405e-01	9.672198e-01	9.753029e-01	9.832368e-01	8.800397e-01	8.837615e-01	9.281908e-01	9.512632e-01	9.763934e-01	1.002497e+00	8.262688e-01	8.298758e-01	8.354343e-01	8.439229e-01	8.547786e-01	8.607765e-01	8.360588e-01	8.325226e-01	1.077807e+00	1.073303e+00	9.028147e-01	9.186925e-01	9.271781e-01	8.557389e-01	8.507511e-01	1.117387e+00	1.166021e+00	1.161181e+00	1.136250e+00	1.025433e+00	1.108368e+00	1.173798e+00	1.135624e+00	1.185600e+00	1.135175e+00	1.147607e+00	1.126778e+00	1.092547e+00	1.193643e+00	1.235645e+00	1.088369e+00	9.515579e-01	8.358626e-01	1.125041e+00	1.017115e+00	1.099434e+00	8.876375e-01	1.066704e+00	1.169560e+00	8.756746e-01	1.043563e+00	9.189644e-01	8.966092e-01	1.083529e+00	1.091448e+00	1.082162e+00	1.066987e+00	1.171389e+00	1.098735e+00	1.103072e+00	1.082836e+00	8.282813e-01	8.985620e-01	9.355551e-01	9.897022e-01	1.150516e+00	1.157256e+00	1.272026e+00	1.075361e+00	1.085456e+00	1.175645e+00	1.099196e+00	1.169073e+00	1.152260e+00	8.908347e-01	1.224920e+00	9.799232e-01	9.646261e-01	1.094849e+00	1.233627e+00	1.067208e+00	1.106564e+00	9.438723e-01	1.254331e+00	1.176117e+00	1.005212e+00	1.213105e+00	1.200154e+00	8.802295e-01	1.117584e+00	1.079357e+00	8.891428e-01	8.318477e-01	9.086738e-01	1.118369e+00	1.143470e+00	9.980133e-01	1.007564e+00	1.025387e+00	1.034296e+00	1.114272e+00	8.793567e-01	1.051240e+00	1.058997e+00	8.698607e-01	9.748454e-01	9.827792e-01	9.588075e-01	9.499935e-01	9.347202e-01	9.199153e-01	1.049027e+00	8.580913e-01	8.628120e-01	9.055082e-01	8.915845e-01	9.271361e-01	1.091452e+00	8.708517e-01	8.611031e-01	8.331415e-01	1.059499e+00	1.049559e+00	1.009831e+00	1.038896e+00	1.028593e+00	1.019168e+00	9.991426e-01	9.868018e-01	9.735858e-01	9.601118e-01	9.465196e-01	9.328799e-01	9.199687e-01	8.254361e-01	8.236199e-01	8.227365e-01	8.227719e-01	8.229565e-01	8.273326e-01	9.123168e-01	9.305484e-01	9.665823e-01	9.900014e-01	8.825960e-01	8.863201e-01	9.485170e-01	9.694286e-01	9.929642e-01	1.016473e+00	1.041044e+00	8.402089e-01	8.460180e-01	8.513729e-01	8.595913e-01	8.716927e-01	8.522535e-01	8.451845e-01	8.401009e-01	1.074567e+00	1.067829e+00	9.035561e-01	9.111102e-01	8.790986e-01	8.689905e-01	8.616947e-01	8.577633e-01	1.152326e+00	1.152981e+00	1.149679e+00	1.121129e+00	1.156102e+00	1.140381e+00	1.113623e+00	1.050478e+00	1.172801e+00	1.120687e+00	1.117934e+00	1.071725e+00	1.166005e+00	1.084789e+00	8.330840e-01	1.137610e+00	1.141600e+00	1.128283e+00	1.169441e+00	1.070979e+00	9.260064e-01	1.027001e+00	1.024935e+00	9.594466e-01	1.132804e+00	1.131995e+00	1.128185e+00	1.171841e+00	1.172193e+00	9.002327e-01	9.