# vtk DataFile Version 3.0
vtk output
ASCII
DATASET UNSTRUCTURED_GRID
POINTS 200 float
9.997500e-01	-3.633243e-05	0.0	9.990000e-01	-1.454724e-04	0.0	9.977600e-01	-3.275083e-04	0.0	9.960200e-01	-5.899321e-04	0.0	9.937800e-01	-9.471127e-04	0.0	9.910500e-01	-1.422146e-03	0.0	9.878400e-01	-2.045631e-03	0.0	9.841300e-01	-2.853900e-03	0.0	9.799500e-01	-3.859277e-03	0.0	9.752800e-01	-5.058925e-03	0.0	9.701500e-01	-6.406017e-03	0.0	9.645400e-01	-7.842060e-03	0.0	9.584700e-01	-9.291696e-03	0.0	9.519400e-01	-1.069955e-02	0.0	9.449600e-01	-1.203766e-02	0.0	9.375400e-01	-1.331043e-02	0.0	9.296900e-01	-1.454516e-02	0.0	9.214000e-01	-1.578015e-02	0.0	9.127000e-01	-1.704266e-02	0.0	9.035800e-01	-1.835371e-02	0.0	8.940600e-01	-1.971695e-02	0.0	8.841500e-01	-2.112777e-02	0.0	8.738500e-01	-2.257795e-02	0.0	8.631800e-01	-2.405540e-02	0.0	8.521600e-01	-2.554945e-02	0.0	8.407700e-01	-2.705695e-02	0.0	8.290500e-01	-2.856866e-02	0.0	8.170100e-01	-3.008072e-02	0.0	8.046400e-01	-3.159232e-02	0.0	7.919700e-01	-3.309781e-02	0.0	7.790100e-01	-3.459393e-02	0.0	7.657800e-01	-3.607605e-02	0.0	7.522800e-01	-3.754162e-02	0.0	7.385200e-01	-3.898679e-02	0.0	7.245300e-01	-4.040569e-02	0.0	7.103200e-01	-4.179469e-02	0.0	6.958900e-01	-4.315123e-02	0.0	6.812700e-01	-4.447012e-02	0.0	6.664700e-01	-4.574834e-02	0.0	6.515000e-01	-4.698314e-02	0.0	6.363800e-01	-4.817119e-02	0.0	6.211300e-01	-4.930958e-02	0.0	6.057600e-01	-5.039647e-02	0.0	5.902800e-01	-5.143021e-02	0.0	5.747100e-01	-5.240876e-02	0.0	5.590600e-01	-5.333095e-02	0.0	5.433600e-01	-5.419471e-02	0.0	5.276100e-01	-5.499983e-02	0.0	5.118400e-01	-5.574468e-02	0.0	4.960500e-01	-5.642920e-02	0.0	4.802700e-01	-5.705205e-02	0.0	4.645100e-01	-5.761285e-02	0.0	4.487800e-01	-5.811112e-02	0.0	4.331100e-01	-5.854580e-02	0.0	4.175000e-01	-5.891664e-02	0.0	4.019700e-01	-5.922277e-02	0.0	3.865400e-01	-5.946330e-02	0.0	3.712300e-01	-5.963734e-02	0.0	3.560400e-01	-5.974410e-02	0.0	3.409900e-01	-5.978242e-02	0.0	3.261100e-01	-5.975121e-02	0.0	3.114000e-01	-5.964931e-02	0.0	2.968700e-01	-5.947536e-02	0.0	2.825500e-01	-5.922827e-02	0.0	2.684500e-01	-5.890675e-02	0.0	2.545700e-01	-5.850911e-02	0.0	2.409400e-01	-5.803450e-02	0.0	2.275700e-01	-5.748163e-02	0.0	2.144700e-01	-5.684920e-02	0.0	2.016600e-01	-5.613654e-02	0.0	1.891400e-01	-5.534195e-02	0.0	1.769300e-01	-5.446501e-02	0.0	1.650400e-01	-5.350489e-02	0.0	1.534900e-01	-5.246180e-02	0.0	1.422900e-01	-5.133546e-02	0.0	1.314400e-01	-5.012459e-02	0.0	1.209500e-01	-4.882895e-02	0.0	1.108500e-01	-4.745132e-02	0.0	1.011300e-01	-4.598952e-02	0.0	9.181000e-02	-4.444565e-02	0.0	8.290000e-02	-4.282084e-02	0.0	7.440000e-02	-4.111442e-02	0.0	6.633000e-02	-3.932994e-02	0.0	5.869000e-02	-3.746709e-02	0.0	5.149000e-02	-3.552789e-02	0.0	4.474000e-02	-3.351485e-02	0.0	3.844000e-02	-3.142767e-02	0.0	3.260000e-02	-2.926917e-02	0.0	2.723000e-02	-2.704305e-02	0.0	2.232000e-02	-2.474428e-02	0.0	1.790000e-02	-2.238684e-02	0.0	1.395000e-02	-1.995993e-02	0.0	1.049000e-02	-1.747481e-02	0.0	7.520000e-03	-1.493239e-02	0.0	5.040000e-03	-1.233286e-02	0.0	3.050000e-03	-9.674714e-03	0.0	1.560000e-03	-6.973205e-03	0.0	5.600000e-04	-4.207228e-03	0.0	6.000000e-05	-1.384234e-03	0.0	0.000000e+00	0.000000e+00	0.0	6.000000e-05	1.263941e-03	0.0	5.600000e-04	3.625934e-03	0.0	1.560000e-03	5.790518e-03	0.0	3.050000e-03	7.809351e-03	0.0	5.040000e-03	9.727420e-03	0.0	7.520000e-03	1.155245e-02	0.0	1.049000e-02	1.329942e-02	0.0	1.395000e-02	1.497884e-02	0.0	1.790000e-02	1.659861e-02	0.0	2.232000e-02	1.815837e-02	0.0	2.723000e-02	1.967125e-02	0.0	3.260000e-02	2.113313e-02	0.0	3.844000e-02	2.255172e-02	0.0	4.474000e-02	2.392838e-02	0.0	5.149000e-02	2.526449e-02	0.0	5.869000e-02	2.656308e-02	0.0	6.633000e-02	2.782488e-02	0.0	7.440000e-02	2.905056e-02	0.0	8.290000e-02	3.024204e-02	0.0	9.181000e-02	3.139822e-02	0.0	1.011300e-01	3.252062e-02	0.0	1.108500e-01	3.360920e-02	0.0	1.209500e-01	3.466283e-02	0.0	1.314400e-01	3.568339e-02	0.0	1.422900e-01	3.666857e-02	0.0	1.534900e-01	3.761811e-02	0.0	1.650400e-01	3.853239e-02	0.0	1.769300e-01	3.941072e-02	0.0	1.891400e-01	4.025162e-02	0.0	2.016600e-01	4.105431e-02	0.0	2.144700e-01	4.181730e-02	0.0	2.275700e-01	4.254016e-02	0.0	2.409400e-01	4.322120e-02	0.0	2.545700e-01	4.385916e-02	0.0	2.684500e-01	4.445264e-02	0.0	2.825500e-01	4.499933e-02	0.0	2.968700e-01	4.549805e-02	0.0	3.114000e-01	4.594704e-02	0.0	3.261100e-01	4.634383e-02	0.0	3.409900e-01	4.668654e-02	0.0	3.560400e-01	4.697330e-02	0.0	3.712300e-01	4.720155e-02	0.0	3.865400e-01	4.736899e-02	0.0	4.019700e-01	4.747346e-02	0.0	4.175000e-01	4.751253e-02	0.0	4.331100e-01	4.748384e-02	0.0	4.487800e-01	4.738516e-02	0.0	4.645100e-01	4.721415e-02	0.0	4.802700e-01	4.696883e-02	0.0	4.960500e-01	4.664719e-02	0.0	5.118400e-01	4.624731e-02	0.0	5.276100e-01	4.576805e-02	0.0	5.433600e-01	4.520772e-02	0.0	5.590600e-01	4.456596e-02	0.0	5.747100e-01	4.384166e-02	0.0	5.902800e-01	4.303546e-02	0.0	6.057600e-01	4.214764e-02	0.0	6.211300e-01	4.117957e-02	0.0	6.363800e-01	4.013264e-02	0.0	6.515000e-01	3.900882e-02	0.0	6.664700e-01	3.781146e-02	0.0	6.812700e-01	3.654476e-02	0.0	6.958900e-01	3.521287e-02	0.0	7.103200e-01	3.382061e-02	0.0	7.245300e-01	3.237554e-02	0.0	7.385200e-01	3.088299e-02	0.0	7.522800e-01	2.934990e-02	0.0	7.657800e-01	2.778618e-02	0.0	7.790100e-01	2.620020e-02	0.0	7.919700e-01	2.459959e-02	0.0	8.046400e-01	2.299490e-02	0.0	8.170100e-01	2.139574e-02	0.0	8.290500e-01	1.981447e-02	0.0	8.407700e-01	1.825789e-02	0.0	8.521600e-01	1.673444e-02	0.0	8.631800e-01	1.525495e-02	0.0	8.738500e-01	1.381991e-02	0.0	8.841500e-01	1.243253e-02	0.0	8.940600e-01	1.109402e-02	0.0	9.035800e-01	9.802681e-03	0.0	9.127000e-01	8.561216e-03	0.0	9.214000e-01	7.380570e-03	0.0	9.296900e-01	6.277309e-03	0.0	9.375400e-01	5.282405e-03	0.0	9.449600e-01	4.425010e-03	0.0	9.519400e-01	3.730049e-03	0.0	9.584700e-01	3.203638e-03	0.0	9.645400e-01	2.825589e-03	0.0	9.701500e-01	2.551023e-03	0.0	9.752800e-01	2.324113e-03	0.0	9.799500e-01	2.092601e-03	0.0	9.841300e-01	1.826759e-03	0.0	9.878400e-01	1.519765e-03	0.0	9.910500e-01	1.190142e-03	0.0	9.937800e-01	8.630000e-04	0.0	9.960200e-01	5.666203e-04	0.0	9.977600e-01	3.231871e-04	0.0	9.990000e-01	1.450782e-04	0.0	9.997500e-01	3.632618e-05	0.0	1.000000e+00	0.000000e+00	0.0	
CELLS 200	600
2	199	0	2	0	1	2	1	2	2	2	3	2	3	4	2	4	5	2	5	6	2	6	7	2	7	8	2	8	9	2	9	10	2	10	11	2	11	12	2	12	13	2	13	14	2	14	15	2	15	16	2	16	17	2	17	18	2	18	19	2	19	20	2	20	21	2	21	22	2	22	23	2	23	24	2	24	25	2	25	26	2	26	27	2	27	28	2	28	29	2	29	30	2	30	31	2	31	32	2	32	33	2	33	34	2	34	35	2	35	36	2	36	37	2	37	38	2	38	39	2	39	40	2	40	41	2	41	42	2	42	43	2	43	44	2	44	45	2	45	46	2	46	47	2	47	48	2	48	49	2	49	50	2	50	51	2	51	52	2	52	53	2	53	54	2	54	55	2	55	56	2	56	57	2	57	58	2	58	59	2	59	60	2	60	61	2	61	62	2	62	63	2	63	64	2	64	65	2	65	66	2	66	67	2	67	68	2	68	69	2	69	70	2	70	71	2	71	72	2	72	73	2	73	74	2	74	75	2	75	76	2	76	77	2	77	78	2	78	79	2	79	80	2	80	81	2	81	82	2	82	83	2	83	84	2	84	85	2	85	86	2	86	87	2	87	88	2	88	89	2	89	90	2	90	91	2	91	92	2	92	93	2	93	94	2	94	95	2	95	96	2	96	97	2	97	98	2	98	99	2	99	100	2	100	101	2	101	102	2	102	103	2	103	104	2	104	105	2	105	106	2	106	107	2	107	108	2	108	109	2	109	110	2	110	111	2	111	112	2	112	113	2	113	114	2	114	115	2	115	116	2	116	117	2	117	118	2	118	119	2	119	120	2	120	121	2	121	122	2	122	123	2	123	124	2	124	125	2	125	126	2	126	127	2	127	128	2	128	129	2	129	130	2	130	131	2	131	132	2	132	133	2	133	134	2	134	135	2	135	136	2	136	137	2	137	138	2	138	139	2	139	140	2	140	141	2	141	142	2	142	143	2	143	144	2	144	145	2	145	146	2	146	147	2	147	148	2	148	149	2	149	150	2	150	151	2	151	152	2	152	153	2	153	154	2	154	155	2	155	156	2	156	157	2	157	158	2	158	159	2	159	160	2	160	161	2	161	162	2	162	163	2	163	164	2	164	165	2	165	166	2	166	167	2	167	168	2	168	169	2	169	170	2	170	171	2	171	172	2	172	173	2	173	174	2	174	175	2	175	176	2	176	177	2	177	178	2	178	179	2	179	180	2	180	181	2	181	182	2	182	183	2	183	184	2	184	185	2	185	186	2	186	187	2	187	188	2	188	189	2	189	190	2	190	191	2	191	192	2	192	193	2	193	194	2	194	195	2	195	196	2	196	197	2	197	198	2	198	199	
CELL_TYPES 200
3	3	3	3	3	3	3	3	3	3	3	3	3	3	3	3	3	3	3	3	3	3	3	3	3	3	3	3	3	3	3	3	3	3	3	3	3	3	3	3	3	3	3	3	3	3	3	3	3	3	3	3	3	3	3	3	3	3	3	3	3	3	3	3	3	3	3	3	3	3	3	3	3	3	3	3	3	3	3	3	3	3	3	3	3	3	3	3	3	3	3	3	3	3	3	3	3	3	3	3	3	3	3	3	3	3	3	3	3	3	3	3	3	3	3	3	3	3	3	3	3	3	3	3	3	3	3	3	3	3	3	3	3	3	3	3	3	3	3	3	3	3	3	3	3	3	3	3	3	3	3	3	3	3	3	3	3	3	3	3	3	3	3	3	3	3	3	3	3	3	3	3	3	3	3	3	3	3	3	3	3	3	3	3	3	3	3	3	3	3	3	3	3	3	3	3	3	3	3	3	
POINT_DATA 200

SCALARS Conservative_1 float 1
LOOKUP_TABLE default
1.199830e+00	1.181607e+00	1.171185e+00	1.164748e+00	1.160177e+00	1.155715e+00	1.148831e+00	1.137914e+00	1.121731e+00	1.100373e+00	1.075079e+00	1.048462e+00	1.024887e+00	1.008346e+00	9.999688e-01	9.979087e-01	9.990174e-01	1.000460e+00	1.000486e+00	9.984968e-01	9.947118e-01	9.896886e-01	9.840128e-01	9.781560e-01	9.723960e-01	9.668436e-01	9.614901e-01	9.562889e-01	9.511753e-01	9.461178e-01	9.411004e-01	9.360793e-01	9.310204e-01	9.259403e-01	9.208903e-01	9.159187e-01	9.110444e-01	9.062717e-01	9.016121e-01	8.970820e-01	8.926814e-01	8.884208e-01	8.842826e-01	8.802835e-01	8.764384e-01	8.727991e-01	8.693550e-01	8.660420e-01	8.627128e-01	8.593577e-01	8.561793e-01	8.535317e-01	8.515293e-01	8.498808e-01	8.479140e-01	8.448767e-01	8.402666e-01	8.342282e-01	8.276383e-01	8.217555e-01	8.174704e-01	8.149788e-01	8.140090e-01	8.141273e-01	8.150234e-01	8.164974e-01	8.184998e-01	8.209467e-01	8.237518e-01	8.268026e-01	8.301186e-01	8.338634e-01	8.382841e-01	8.434484e-01	8.492796e-01	8.556311e-01	8.625679e-01	8.702686e-01	8.787904e-01	8.881724e-01	8.985267e-01	9.099121e-01	9.224802e-01	9.363488e-01	9.517082e-01	9.688355e-01	9.879592e-01	1.009438e+00	1.033758e+00	1.061233e+00	1.092395e+00	1.127711e+00	1.167026e+00	1.209878e+00	1.254556e+00	1.298044e+00	1.331743e+00	1.350898e+00	1.339544e+00	1.308301e+00	1.284309e+00	1.221187e+00	1.099604e+00	1.002146e+00	9.261371e-01	8.703958e-01	8.323778e-01	8.073426e-01	7.904842e-01	7.790628e-01	7.713824e-01	7.662735e-01	7.631761e-01	7.613521e-01	7.604269e-01	7.603969e-01	7.611332e-01	7.623989e-01	7.638723e-01	7.652259e-01	7.664757e-01	7.679457e-01	7.698949e-01	7.721736e-01	7.743826e-01	7.762930e-01	7.779965e-01	7.796400e-01	7.813267e-01	7.831271e-01	7.850967e-01	7.872192e-01	7.894220e-01	7.916045e-01	7.937239e-01	7.957549e-01	7.976884e-01	7.994859e-01	8.011565e-01	8.028166e-01	8.046837e-01	8.069219e-01	8.095881e-01	8.126458e-01	8.160846e-01	8.199378e-01	8.242042e-01	8.288352e-01	8.336753e-01	8.385624e-01	8.433377e-01	8.480748e-01	8.530568e-01	8.586076e-01	8.647654e-01	8.712946e-01	8.779799e-01	8.848287e-01	8.920121e-01	8.995769e-01	9.074700e-01	9.156036e-01	9.239294e-01	9.324354e-01	9.410917e-01	9.498847e-01	9.587645e-01	9.677133e-01	9.766570e-01	9.855981e-01	9.944535e-01	1.003143e+00	1.011603e+00	1.019750e+00	1.027538e+00	1.034945e+00	1.042018e+00	1.048937e+00	1.055962e+00	1.063482e+00	1.071795e+00	1.080996e+00	1.090704e+00	1.100056e+00	1.107802e+00	1.112605e+00	1.113376e+00	1.109751e+00	1.102494e+00	1.093771e+00	1.086663e+00	1.084140e+00	1.088043e+00	1.098260e+00	1.112838e+00	1.130007e+00	1.148473e+00	1.168634e+00	1.192714e+00	1.181127e+00	
SCALARS Conservative_2 float 1
LOOKUP_TABLE default
7.195711e-01	7.459441e-01	7.640316e-01	7.748370e-01	7.807247e-01	7.854944e-01	7.912974e-01	8.009611e-01	8.159711e-01	8.363809e-01	8.604744e-01	8.849235e-01	9.060840e-01	9.215741e-01	9.308041e-01	9.347691e-01	9.355244e-01	9.351644e-01	9.351485e-01	9.360884e-01	9.380378e-01	9.406955e-01	9.436859e-01	9.467185e-01	9.496066e-01	9.522845e-01	9.547473e-01	9.570370e-01	9.591641e-01	9.611610e-01	9.630625e-01	9.648610e-01	9.665709e-01	9.681897e-01	9.697048e-01	9.711042e-01	9.724024e-01	9.735805e-01	9.746486e-01	9.756220e-01	9.764818e-01	9.772629e-01	9.779388e-01	9.785467e-01	9.790540e-01	9.795016e-01	9.798668e-01	9.802017e-01	9.804744e-01	9.807241e-01	9.808917e-01	9.810044e-01	9.810470e-01	9.810764e-01	9.811116e-01	9.811853e-01	9.812244e-01	9.811482e-01	9.808249e-01	9.803292e-01	9.798243e-01	9.794099e-01	9.791593e-01	9.790073e-01	9.789546e-01	9.789105e-01	9.788976e-01	9.788444e-01	9.787643e-01	9.785900e-01	9.783353e-01	9.779463e-01	9.774250e-01	9.766914e-01	9.757327e-01	9.744087e-01	9.727393e-01	9.706299e-01	9.678497e-01	9.642441e-01	9.597226e-01	9.539932e-01	9.467926e-01	9.377034e-01	9.262102e-01	9.115841e-01	8.928928e-01	8.690610e-01	8.385156e-01	7.991062e-01	7.483464e-01	6.831891e-01	5.999723e-01	4.964962e-01	3.727774e-01	2.365836e-01	1.074306e-01	1.081561e-02	-2.156311e-02	5.237715e-03	7.302754e-02	2.104118e-01	4.133806e-01	5.901457e-01	7.151889e-01	7.967972e-01	8.484066e-01	8.813327e-01	9.026111e-01	9.169462e-01	9.269870e-01	9.341541e-01	9.396229e-01	9.438988e-01	9.473291e-01	9.502701e-01	9.527840e-01	9.549571e-01	9.568869e-01	9.585518e-01	9.600371e-01	9.614564e-01	9.628257e-01	9.640572e-01	9.651554e-01	9.661189e-01	9.670037e-01	9.678147e-01	9.685940e-01	9.693387e-01	9.700811e-01	9.708006e-01	9.715009e-01	9.721505e-01	9.727634e-01	9.733243e-01	9.738459e-01	9.743193e-01	9.747586e-01	9.751818e-01	9.756382e-01	9.761072e-01	9.765955e-01	9.770844e-01	9.775665e-01	9.780368e-01	9.784643e-01	9.788530e-01	9.791261e-01	9.793195e-01	9.794165e-01	9.794486e-01	9.793941e-01	9.792253e-01	9.788782e-01	9.783261e-01	9.776052e-01	9.766602e-01	9.754950e-01	9.740515e-01	9.723273e-01	9.702976e-01	9.679668e-01	9.653185e-01	9.623480e-01	9.590492e-01	9.554206e-01	9.515024e-01	9.472286e-01	9.427104e-01	9.379546e-01	9.329797e-01	9.279017e-01	9.227753e-01	9.176556e-01	9.125684e-01	9.074581e-01	9.022017e-01	8.965066e-01	8.900763e-01	8.825750e-01	8.739955e-01	8.647635e-01	8.559624e-01	8.491323e-01	8.458398e-01	8.470949e-01	8.528024e-01	8.615026e-01	8.705288e-01	8.765736e-01	8.769932e-01	8.704802e-01	8.577683e-01	8.395903e-01	8.174950e-01	7.911942e-01	7.596529e-01	7.213238e-01	6.623531e-01	
SCALARS Conservative_3 float 1
LOOKUP_TABLE default
1.010184e-01	1.066664e-01	1.128619e-01	1.197590e-01	1.301745e-01	1.447932e-01	1.632688e-01	1.836876e-01	2.029007e-01	2.169853e-01	2.227580e-01	2.186413e-01	2.056011e-01	1.874323e-01	1.688614e-01	1.535573e-01	1.431588e-01	1.374253e-01	1.350050e-01	1.342654e-01	1.339105e-01	1.331765e-01	1.317781e-01	1.297429e-01	1.272393e-01	1.244668e-01	1.215591e-01	1.186053e-01	1.156312e-01	1.126246e-01	1.095739e-01	1.064588e-01	1.032678e-01	9.999345e-02	9.662167e-02	9.316742e-02	8.962712e-02	8.601925e-02	8.235024e-02	7.863201e-02	7.487781e-02	7.109454e-02	6.730071e-02	6.349784e-02	5.969347e-02	5.587898e-02	5.205813e-02	4.824307e-02	4.445732e-02	4.070524e-02	3.695057e-02	3.313644e-02	2.924041e-02	2.524942e-02	2.119550e-02	1.712257e-02	1.307577e-02	9.042444e-03	4.915286e-03	5.572493e-04	-4.068768e-03	-8.941232e-03	-1.404867e-02	-1.937960e-02	-2.497223e-02	-3.085465e-02	-3.708320e-02	-4.367476e-02	-5.066293e-02	-5.806769e-02	-6.593606e-02	-7.433223e-02	-8.332659e-02	-9.295169e-02	-1.032502e-01	-1.142741e-01	-1.261345e-01	-1.388983e-01	-1.526413e-01	-1.674879e-01	-1.835566e-01	-2.009600e-01	-2.198537e-01	-2.403727e-01	-2.626375e-01	-2.867664e-01	-3.128303e-01	-3.407742e-01	-3.702113e-01	-4.004096e-01	-4.298922e-01	-4.555508e-01	-4.723087e-01	-4.717485e-01	-4.409530e-01	-3.645008e-01	-2.306872e-01	-3.812295e-02	1.857028e-01	3.517528e-01	4.962336e-01	6.609771e-01	7.235998e-01	6.884645e-01	6.113257e-01	5.276659e-01	4.531916e-01	3.914208e-01	3.412218e-01	3.001987e-01	2.666138e-01	2.386810e-01	2.152254e-01	1.952945e-01	1.781521e-01	1.632839e-01	1.503043e-01	1.388614e-01	1.287007e-01	1.195505e-01	1.112118e-01	1.036155e-01	9.671199e-02	9.040896e-02	8.457607e-02	7.906720e-02	7.385665e-02	6.891978e-02	6.424724e-02	5.978864e-02	5.551215e-02	5.138620e-02	4.737950e-02	4.345416e-02	3.958584e-02	3.575483e-02	3.194737e-02	2.814198e-02	2.430942e-02	2.042899e-02	1.650418e-02	1.253761e-02	8.519353e-03	4.418786e-03	2.179008e-04	-4.090910e-03	-8.507148e-03	-1.302517e-02	-1.766166e-02	-2.242313e-02	-2.732528e-02	-3.238668e-02	-3.756066e-02	-4.282120e-02	-4.811876e-02	-5.347308e-02	-5.889843e-02	-6.437356e-02	-6.984066e-02	-7.525672e-02	-8.058162e-02	-8.580239e-02	-9.086044e-02	-9.572668e-02	-1.003313e-01	-1.046504e-01	-1.086132e-01	-1.121850e-01	-1.153104e-01	-1.179454e-01	-1.200493e-01	-1.215882e-01	-1.225631e-01	-1.229997e-01	-1.229704e-01	-1.226211e-01	-1.221266e-01	-1.216646e-01	-1.213069e-01	-1.208893e-01	-1.198797e-01	-1.173819e-01	-1.122787e-01	-1.036856e-01	-9.141288e-02	-7.638276e-02	-6.075836e-02	-4.762652e-02	-4.023256e-02	-4.078053e-02	-4.936605e-02	-6.375409e-02	-8.013703e-02	-9.478560e-02	-1.049784e-01	-1.097949e-01	-1.102824e-01	-1.061991e-01	-1.003425e-01	2.576127e-03	
SCALARS Conservative_4 float 1
LOOKUP_TABLE default
3.446404e+00	3.400798e+00	3.375516e+00	3.360002e+00	3.348859e+00	3.337992e+00	3.320899e+00	3.293711e+00	3.253335e+00	3.199999e+00	3.136721e+00	3.069891e+00	3.010526e+00	2.968854e+00	2.947776e+00	2.942583e+00	2.945327e+00	2.948884e+00	2.948858e+00	2.943724e+00	2.934048e+00	2.921230e+00	2.906740e+00	2.891772e+00	2.877029e+00	2.862795e+00	2.849048e+00	2.835677e+00	2.822511e+00	2.809474e+00	2.796531e+00	2.783563e+00	2.770482e+00	2.757332e+00	2.744245e+00	2.731347e+00	2.718689e+00	2.706279e+00	2.694149e+00	2.682347e+00	2.670865e+00	2.659743e+00	2.648924e+00	2.638464e+00	2.628391e+00	2.618853e+00	2.609815e+00	2.601123e+00	2.592378e+00	2.583568e+00	2.575205e+00	2.568230e+00	2.562936e+00	2.558573e+00	2.553382e+00	2.545398e+00	2.533284e+00	2.517399e+00	2.500009e+00	2.484435e+00	2.473057e+00	2.466412e+00	2.463812e+00	2.464100e+00	2.466468e+00	2.470363e+00	2.475669e+00	2.482144e+00	2.489573e+00	2.497642e+00	2.506412e+00	2.516301e+00	2.527966e+00	2.541570e+00	2.556920e+00	2.573598e+00	2.591802e+00	2.611990e+00	2.634266e+00	2.658719e+00	2.685657e+00	2.715194e+00	2.747715e+00	2.783485e+00	2.822957e+00	2.866788e+00	2.915493e+00	2.969952e+00	3.031317e+00	3.100238e+00	3.177977e+00	3.265579e+00	3.362403e+00	3.467260e+00	3.575832e+00	3.681285e+00	3.762483e+00	3.809719e+00	3.781262e+00	3.702942e+00	3.649754e+00	3.500054e+00	3.191126e+00	2.943281e+00	2.748266e+00	2.604431e+00	2.506102e+00	2.441272e+00	2.397454e+00	2.367670e+00	2.347615e+00	2.334212e+00	2.326106e+00	2.321354e+00	2.318974e+00	2.318991e+00	2.321032e+00	2.324468e+00	2.328468e+00	2.332148e+00	2.335561e+00	2.339577e+00	2.344866e+00	2.351000e+00	2.356937e+00	2.362075e+00	2.366668e+00	2.371097e+00	2.375643e+00	2.380487e+00	2.385781e+00	2.391477e+00	2.397385e+00	2.403231e+00	2.408908e+00	2.414345e+00	2.419520e+00	2.424331e+00	2.428804e+00	2.433251e+00	2.438256e+00	2.444241e+00	2.451357e+00	2.459505e+00	2.468657e+00	2.478900e+00	2.490223e+00	2.502503e+00	2.515310e+00	2.528231e+00	2.540845e+00	2.553357e+00	2.566504e+00	2.581133e+00	2.597327e+00	2.614462e+00	2.631986e+00	2.649903e+00	2.668668e+00	2.688390e+00	2.708933e+00	2.730059e+00	2.751643e+00	2.773652e+00	2.796005e+00	2.818665e+00	2.841501e+00	2.864476e+00	2.887374e+00	2.910231e+00	2.932825e+00	2.954944e+00	2.976446e+00	2.997119e+00	3.016849e+00	3.035588e+00	3.053448e+00	3.070892e+00	3.088554e+00	3.107421e+00	3.128217e+00	3.151194e+00	3.175400e+00	3.198719e+00	3.218076e+00	3.230175e+00	3.232282e+00	3.223428e+00	3.205430e+00	3.183648e+00	3.165741e+00	3.159174e+00	3.168629e+00	3.193985e+00	3.230126e+00	3.272649e+00	3.318091e+00	3.367486e+00	3.426997e+00	3.383860e+00	
SCALARS Pressure float 1
LOOKUP_TABLE default
1.290551e+00	1.264211e+00	1.248347e+00	1.238448e+00	1.231547e+00	1.224795e+00	1.214712e+00	1.198797e+00	1.175283e+00	1.144297e+00	1.107716e+00	1.069459e+00	1.035751e+00	1.012120e+00	1.000123e+00	9.971824e-01	9.988147e-01	1.000952e+00	1.001084e+00	9.983627e-01	9.930953e-01	9.860823e-01	9.781640e-01	9.700088e-01	9.620115e-01	9.543244e-01	9.469354e-01	9.397718e-01	9.327492e-01	9.258196e-01	9.189535e-01	9.120982e-01	9.052063e-01	8.982999e-01	8.914493e-01	8.847203e-01	8.781337e-01	8.717011e-01	8.654350e-01	8.593525e-01	8.534602e-01	8.477615e-01	8.422425e-01	8.369139e-01	8.318065e-01	8.269761e-01	8.224172e-01	8.180297e-01	8.136308e-01	8.091953e-01	8.050092e-01	8.015317e-01	7.989205e-01	7.967744e-01	7.942004e-01	7.901929e-01	7.841071e-01	7.761515e-01	7.675248e-01	7.598734e-01	7.543342e-01	7.511419e-01	7.499130e-01	7.500920e-01	7.512623e-01	7.531862e-01	7.557860e-01	7.589708e-01	7.626167e-01	7.665925e-01	7.709142e-01	7.758101e-01	7.815977e-01	7.883826e-01	7.960545e-01	8.044519e-01	8.136352e-01	8.238492e-01	8.352170e-01	8.478046e-01	8.617459e-01	8.771589e-01	8.942572e-01	9.132406e-01	9.344079e-01	9.581959e-01	9.849912e-01	1.015331e+00	1.049981e+00	1.089535e+00	1.134824e+00	1.186649e+00	1.245042e+00	1.309366e+00	1.377182e+00	1.443419e+00	1.495268e+00	1.523655e+00	1.507287e+00	1.462258e+00	1.420724e+00	1.321219e+00	1.150136e+00	1.013214e+00	9.081437e-01	8.319101e-01	7.801435e-01	7.461338e-01	7.233946e-01	7.080862e-01	6.978198e-01	6.910527e-01	6.869301e-01	6.844799e-01	6.832082e-01	6.830727e-01	6.839383e-01	6.854991e-01	6.873161e-01	6.889800e-01	6.905014e-01	6.922891e-01	6.946958e-01	6.975583e-01	7.003421e-01	7.027468e-01	7.048792e-01	7.069387e-01	7.090515e-01	7.113162e-01	7.137972e-01	7.164813e-01	7.192700e-01	7.220405e-01	7.247307e-01	7.273131e-01	7.297711e-01	7.320570e-01	7.341786e-01	7.362858e-01	7.386525e-01	7.415043e-01	7.449141e-01	7.488380e-01	7.532626e-01	7.582319e-01	7.637526e-01	7.697557e-01	7.760584e-01	7.824318e-01	7.886704e-01	7.948608e-01	8.013825e-01	8.086685e-01	8.167855e-01	8.254275e-01	8.342972e-01	8.434200e-01	8.530153e-01	8.631587e-01	8.737781e-01	8.847637e-01	8.960497e-01	9.076230e-01	9.194457e-01	9.314999e-01	9.437219e-01	9.560768e-01	9.684893e-01	9.809317e-01	9.932985e-01	1.005485e+00	1.017383e+00	1.028876e+00	1.039892e+00	1.050397e+00	1.060462e+00	1.070336e+00	1.080409e+00	1.091231e+00	1.103253e+00	1.116602e+00	1.130723e+00	1.144327e+00	1.155550e+00	1.162414e+00	1.163350e+00	1.157893e+00	1.147241e+00	1.134585e+00	1.124427e+00	1.121034e+00	1.126987e+00	1.141970e+00	1.163383e+00	1.188644e+00	1.216106e+00	1.246304e+00	1.281862e+00	1.279256e+00	
SCALARS Temperature float 1
LOOKUP_TABLE default
1.075612e+00	1.069908e+00	1.065884e+00	1.063275e+00	1.061516e+00	1.059773e+00	1.057346e+00	1.053504e+00	1.047740e+00	1.039918e+00	1.030357e+00	1.020026e+00	1.010600e+00	1.003742e+00	1.000154e+00	9.992721e-01	9.997972e-01	1.000492e+00	1.000597e+00	9.998657e-01	9.983749e-01	9.963560e-01	9.940562e-01	9.916709e-01	9.893207e-01	9.870515e-01	9.848623e-01	9.827279e-01	9.806281e-01	9.785458e-01	9.764670e-01	9.743813e-01	9.722733e-01	9.701489e-01	9.680298e-01	9.659376e-01	9.638759e-01	9.618541e-01	9.598751e-01	9.579420e-01	9.560636e-01	9.542342e-01	9.524585e-01	9.507323e-01	9.490759e-01	9.474988e-01	9.460085e-01	9.445613e-01	9.431074e-01	9.416280e-01	9.402343e-01	9.390767e-01	9.382185e-01	9.375131e-01	9.366520e-01	9.352760e-01	9.331646e-01	9.303828e-01	9.273675e-01	9.246952e-01	9.227663e-01	9.216704e-01	9.212589e-01	9.213448e-01	9.217678e-01	9.224600e-01	9.233795e-01	9.245068e-01	9.257846e-01	9.271772e-01	9.286796e-01	9.303802e-01	9.323780e-01	9.347135e-01	9.373292e-01	9.401854e-01	9.432709e-01	9.466609e-01	9.504167e-01	9.545496e-01	9.590654e-01	9.640040e-01	9.694053e-01	9.753209e-01	9.818218e-01	9.890181e-01	9.969959e-01	1.005838e+00	1.015693e+00	1.026668e+00	1.038840e+00	1.052263e+00	1.066850e+00	1.082230e+00	1.097745e+00	1.111996e+00	1.122790e+00	1.127883e+00	1.125224e+00	1.117677e+00	1.106217e+00	1.081914e+00	1.045954e+00	1.011044e+00	9.805715e-01	9.557836e-01	9.372469e-01	9.241850e-01	9.151285e-01	9.088950e-01	9.046353e-01	9.018355e-01	9.000938e-01	8.990321e-01	8.984534e-01	8.983107e-01	8.985789e-01	8.991344e-01	8.997787e-01	9.003616e-01	9.008784e-01	9.014818e-01	9.023255e-01	9.033697e-01	9.043878e-01	9.052597e-01	9.060184e-01	9.067502e-01	9.074969e-01	9.083023e-01	9.091839e-01	9.101420e-01	9.111351e-01	9.121228e-01	9.130766e-01	9.139913e-01	9.148573e-01	9.156597e-01	9.163985e-01	9.171283e-01	9.179413e-01	9.189295e-01	9.201149e-01	9.214814e-01	9.230202e-01	9.247433e-01	9.266546e-01	9.287198e-01	9.308880e-01	9.330632e-01	9.351775e-01	9.372531e-01	9.394246e-01	9.418371e-01	9.445169e-01	9.473576e-01	9.502465e-01	9.532014e-01	9.562822e-01	9.595163e-01	9.628727e-01	9.663174e-01	9.698249e-01	9.733897e-01	9.769990e-01	9.806452e-01	9.843104e-01	9.879753e-01	9.916371e-01	9.952654e-01	9.988386e-01	1.002335e+00	1.005714e+00	1.008949e+00	1.012023e+00	1.014930e+00	1.017700e+00	1.020400e+00	1.023151e+00	1.026092e+00	1.029351e+00	1.032938e+00	1.036691e+00	1.040244e+00	1.043101e+00	1.044768e+00	1.044885e+00	1.043381e+00	1.040587e+00	1.037315e+00	1.034753e+00	1.034031e+00	1.035793e+00	1.039799e+00	1.045420e+00	1.051891e+00	1.058889e+00	1.066463e+00	1.074745e+00	1.083081e+00	
SCALARS Pressure_Coefficient float 1
LOOKUP_TABLE default
6.485521e-01	5.897571e-01	5.543453e-01	5.322493e-01	5.168458e-01	5.017735e-01	4.792681e-01	4.437432e-01	3.912566e-01	3.220922e-01	2.404364e-01	1.550417e-01	7.980077e-02	2.705288e-02	2.737420e-04	-6.289368e-03	-2.645698e-03	2.125509e-03	2.419679e-03	-3.654656e-03	-1.541220e-02	-3.106640e-02	-4.874103e-02	-6.694468e-02	-8.479587e-02	-1.019544e-01	-1.184479e-01	-1.344379e-01	-1.501135e-01	-1.655813e-01	-1.809074e-01	-1.962094e-01	-2.115930e-01	-2.270091e-01	-2.423008e-01	-2.573207e-01	-2.720230e-01	-2.863814e-01	-3.003684e-01	-3.139452e-01	-3.270978e-01	-3.398180e-01	-3.521373e-01	-3.640314e-01	-3.754318e-01	-3.862140e-01	-3.963902e-01	-4.061837e-01	-4.160026e-01	-4.259034e-01	-4.352474e-01	-4.430096e-01	-4.488381e-01	-4.536285e-01	-4.593742e-01	-4.683194e-01	-4.819038e-01	-4.996618e-01	-5.189178e-01	-5.359968e-01	-5.483612e-01	-5.554868e-01	-5.582298e-01	-5.578304e-01	-5.552180e-01	-5.509237e-01	-5.451205e-01	-5.380117e-01	-5.298734e-01	-5.209989e-01	-5.113522e-01	-5.004240e-01	-4.875052e-01	-4.723603e-01	-4.552354e-01	-4.364914e-01	-4.159929e-01	-3.931937e-01	-3.678192e-01	-3.397218e-01	-3.086029e-01	-2.741990e-01	-2.360331e-01	-1.936594e-01	-1.464110e-01	-9.331273e-02	-3.350173e-02	3.422184e-02	1.115644e-01	1.998542e-01	3.009472e-01	4.166267e-01	5.469682e-01	6.905496e-01	8.419242e-01	9.897748e-01	1.105508e+00	1.168873e+00	1.132336e+00	1.031826e+00	9.391163e-01	7.170068e-01	3.351243e-01	2.949492e-02	-2.050365e-01	-3.752007e-01	-4.907510e-01	-5.666655e-01	-6.174227e-01	-6.515933e-01	-6.745095e-01	-6.896146e-01	-6.988168e-01	-7.042859e-01	-7.071245e-01	-7.074270e-01	-7.054950e-01	-7.020109e-01	-6.979551e-01	-6.942411e-01	-6.908451e-01	-6.868548e-01	-6.814826e-01	-6.750932e-01	-6.688792e-01	-6.635117e-01	-6.587518e-01	-6.541546e-01	-6.494385e-01	-6.443836e-01	-6.388455e-01	-6.328543e-01	-6.266294e-01	-6.204453e-01	-6.144404e-01	-6.086762e-01	-6.031895e-01	-5.980872e-01	-5.933514e-01	-5.886477e-01	-5.833651e-01	-5.769993e-01	-5.693881e-01	-5.606295e-01	-5.507532e-01	-5.396609e-01	-5.273380e-01	-5.139382e-01	-4.998697e-01	-4.856433e-01	-4.717179e-01	-4.579001e-01	-4.433426e-01	-4.270792e-01	-4.089608e-01	-3.896708e-01	-3.698722e-01	-3.495090e-01	-3.280908e-01	-3.054494e-01	-2.817452e-01	-2.572239e-01	-2.320320e-01	-2.061986e-01	-1.798088e-01	-1.529021e-01	-1.256208e-01	-9.804279e-02	-7.033634e-02	-4.256316e-02	-1.495862e-02	1.224346e-02	3.880189e-02	6.445509e-02	8.904375e-02	1.124930e-01	1.349592e-01	1.569994e-01	1.794833e-01	2.036406e-01	2.304749e-01	2.602718e-01	2.917924e-01	3.221581e-01	3.472088e-01	3.625315e-01	3.646205e-01	3.524399e-01	3.286623e-01	3.004132e-01	2.777395e-01	2.701661e-01	2.834533e-01	3.168979e-01	3.646936e-01	4.210801e-01	4.823801e-01	5.497860e-01	6.291574e-01	6.233393e-01	
SCALARS Mach float 1
LOOKUP_TABLE default
4.935148e-01	5.210643e-01	5.398267e-01	5.517190e-01	5.596296e-01	5.673852e-01	5.780481e-01	5.946349e-01	6.189039e-01	6.507964e-01	6.883755e-01	7.275292e-01	7.621512e-01	7.867682e-01	7.994769e-01	8.025827e-01	8.007342e-01	7.982830e-01	7.979120e-01	8.004927e-01	8.057365e-01	8.128088e-01	8.208255e-01	8.290971e-01	8.372054e-01	8.449963e-01	8.524790e-01	8.597430e-01	8.668608e-01	8.738915e-01	8.808839e-01	8.878738e-01	8.949132e-01	9.019826e-01	9.090097e-01	9.159250e-01	9.227177e-01	9.293587e-01	9.358401e-01	9.421538e-01	9.482729e-01	9.542174e-01	9.599741e-01	9.655579e-01	9.709045e-01	9.759848e-01	9.807773e-01	9.854232e-01	9.900825e-01	9.948163e-01	9.992685e-01	1.002962e+00	1.005697e+00	1.007943e+00	1.010683e+00	1.015056e+00	1.021755e+00	1.030560e+00	1.040079e+00	1.048494e+00	1.054557e+00	1.057997e+00	1.059288e+00	1.059019e+00	1.057691e+00	1.055519e+00	1.052631e+00	1.049087e+00	1.045066e+00	1.040679e+00	1.035940e+00	1.030568e+00	1.024247e+00	1.016842e+00	1.008528e+00	9.994245e-01	9.895591e-01	9.786805e-01	9.665774e-01	9.531936e-01	9.384866e-01	9.222963e-01	9.044512e-01	8.847281e-01	8.628178e-01	8.382463e-01	8.105709e-01	7.792908e-01	7.435637e-01	7.025154e-01	6.551039e-01	5.999211e-01	5.353697e-01	4.598821e-01	3.712614e-01	2.683080e-01	1.524097e-01	2.334413e-02	1.111953e-01	2.149591e-01	3.138233e-01	4.615343e-01	6.262867e-01	7.605420e-01	8.670522e-01	9.491835e-01	1.008790e+00	1.050099e+00	1.078472e+00	1.097894e+00	1.111121e+00	1.119797e+00	1.125188e+00	1.128471e+00	1.130260e+00	1.130701e+00	1.129872e+00	1.128155e+00	1.126162e+00	1.124359e+00	1.122760e+00	1.120893e+00	1.118280e+00	1.115045e+00	1.111889e+00	1.109185e+00	1.106830e+00	1.104558e+00	1.102239e+00	1.099736e+00	1.096996e+00	1.094015e+00	1.090924e+00	1.087847e+00	1.084874e+00	1.082022e+00	1.079319e+00	1.076814e+00	1.074505e+00	1.072224e+00	1.069681e+00	1.066588e+00	1.062875e+00	1.058590e+00	1.053760e+00	1.048343e+00	1.042326e+00	1.035813e+00	1.028963e+00	1.022076e+00	1.015369e+00	1.008770e+00	1.001852e+00	9.941475e-01	9.855656e-01	9.764396e-01	9.671271e-01	9.575672e-01	9.475616e-01	9.370134e-01	9.260151e-01	9.146711e-01	9.030586e-01	8.911882e-01	8.790967e-01	8.668028e-01	8.543600e-01	8.418291e-01	8.292141e-01	8.166157e-01	8.041074e-01	7.917646e-01	7.797341e-01	7.681178e-01	7.569855e-01	7.463658e-01	7.361651e-01	7.261365e-01	7.158319e-01	7.047075e-01	6.922517e-01	6.783689e-01	6.636390e-01	6.494882e-01	6.379522e-01	6.311560e-01	6.306759e-01	6.368155e-01	6.481122e-01	6.611703e-01	6.712726e-01	6.741004e-01	6.671831e-01	6.512705e-01	6.284846e-01	6.015014e-01	5.712830e-01	5.371591e-01	4.977822e-01	4.554091e-01	