# vtk DataFile Version 3.0
vtk output
ASCII
DATASET UNSTRUCTURED_GRID
POINTS 5233 float
9.997500e-01	-3.633653e-05	0.0	9.990000e-01	-1.457306e-04	0.0	9.977600e-01	-3.303315e-04	0.0	9.960200e-01	-6.050985e-04	0.0	9.937800e-01	-1.001481e-03	0.0	9.910500e-01	-1.570683e-03	0.0	9.878400e-01	-2.377778e-03	0.0	9.841300e-01	-3.490453e-03	0.0	9.799500e-01	-4.925966e-03	0.0	9.752800e-01	-6.652294e-03	0.0	9.701500e-01	-8.546190e-03	0.0	9.645400e-01	-1.045072e-02	0.0	9.584700e-01	-1.219059e-02	0.0	9.519400e-01	-1.364804e-02	0.0	9.449600e-01	-1.478940e-02	0.0	9.375400e-01	-1.567110e-02	0.0	9.296900e-01	-1.641059e-02	0.0	9.214000e-01	-1.714405e-02	0.0	9.127000e-01	-1.798155e-02	0.0	9.035800e-01	-1.899070e-02	0.0	8.940600e-01	-2.018471e-02	0.0	8.841500e-01	-2.153516e-02	0.0	8.738500e-01	-2.298834e-02	0.0	8.631800e-01	-2.447733e-02	0.0	8.521600e-01	-2.593804e-02	0.0	8.407700e-01	-2.732270e-02	0.0	8.290500e-01	-2.859115e-02	0.0	8.170100e-01	-2.972330e-02	0.0	8.046400e-01	-3.071464e-02	0.0	7.919700e-01	-3.156834e-02	0.0	7.790100e-01	-3.229720e-02	0.0	7.657800e-01	-3.291783e-02	0.0	7.522800e-01	-3.344917e-02	0.0	7.385200e-01	-3.390875e-02	0.0	7.245300e-01	-3.431132e-02	0.0	7.103200e-01	-3.466939e-02	0.0	6.958900e-01	-3.499250e-02	0.0	6.812700e-01	-3.528679e-02	0.0	6.664700e-01	-3.555677e-02	0.0	6.515000e-01	-3.580556e-02	0.0	6.363800e-01	-3.603558e-02	0.0	6.211300e-01	-3.624934e-02	0.0	6.057600e-01	-3.645006e-02	0.0	5.902800e-01	-3.664177e-02	0.0	5.747100e-01	-3.682923e-02	0.0	5.590600e-01	-3.701806e-02	0.0	5.433600e-01	-3.721407e-02	0.0	5.276100e-01	-3.742353e-02	0.0	5.118400e-01	-3.765194e-02	0.0	4.960500e-01	-3.790445e-02	0.0	4.802700e-01	-3.818462e-02	0.0	4.645100e-01	-3.849484e-02	0.0	4.487800e-01	-3.883590e-02	0.0	4.331100e-01	-3.920638e-02	0.0	4.175000e-01	-3.960377e-02	0.0	4.019700e-01	-4.002342e-02	0.0	3.865400e-01	-4.045911e-02	0.0	3.712300e-01	-4.090330e-02	0.0	3.560400e-01	-4.134797e-02	0.0	3.409900e-01	-4.178375e-02	0.0	3.261100e-01	-4.220047e-02	0.0	3.114000e-01	-4.258860e-02	0.0	2.968700e-01	-4.293829e-02	0.0	2.825500e-01	-4.323944e-02	0.0	2.684500e-01	-4.348290e-02	0.0	2.545700e-01	-4.366011e-02	0.0	2.409400e-01	-4.376274e-02	0.0	2.275700e-01	-4.378351e-02	0.0	2.144700e-01	-4.371586e-02	0.0	2.016600e-01	-4.355410e-02	0.0	1.891400e-01	-4.329309e-02	0.0	1.769300e-01	-4.292875e-02	0.0	1.650400e-01	-4.245765e-02	0.0	1.534900e-01	-4.187767e-02	0.0	1.422900e-01	-4.118719e-02	0.0	1.314400e-01	-4.038463e-02	0.0	1.209500e-01	-3.946963e-02	0.0	1.108500e-01	-3.844482e-02	0.0	1.011300e-01	-3.731001e-02	0.0	9.181000e-02	-3.606894e-02	0.0	8.290000e-02	-3.472550e-02	0.0	7.440000e-02	-3.328293e-02	0.0	6.633000e-02	-3.174885e-02	0.0	5.869000e-02	-3.012852e-02	0.0	5.149000e-02	-2.843004e-02	0.0	4.474000e-02	-2.666276e-02	0.0	3.844000e-02	-2.483434e-02	0.0	3.260000e-02	-2.295578e-02	0.0	2.723000e-02	-2.103922e-02	0.0	2.232000e-02	-1.908953e-02	0.0	1.790000e-02	-1.712750e-02	0.0	1.395000e-02	-1.515233e-02	0.0	1.049000e-02	-1.318015e-02	0.0	7.520000e-03	-1.121595e-02	0.0	5.040000e-03	-9.260369e-03	0.0	3.050000e-03	-7.306611e-03	0.0	1.560000e-03	-5.349391e-03	0.0	5.600000e-04	-3.336597e-03	0.0	6.000000e-05	-1.183366e-03	0.0	0.000000e+00	0.000000e+00	0.0	6.000000e-05	1.143256e-03	0.0	5.600000e-04	3.132732e-03	0.0	1.560000e-03	4.910572e-03	0.0	3.050000e-03	6.577746e-03	0.0	5.040000e-03	8.194284e-03	0.0	7.520000e-03	9.776435e-03	0.0	1.049000e-02	1.133997e-02	0.0	1.395000e-02	1.289335e-02	0.0	1.790000e-02	1.444073e-02	0.0	2.232000e-02	1.597690e-02	0.0	2.723000e-02	1.750924e-02	0.0	3.260000e-02	1.902764e-02	0.0	3.844000e-02	2.053387e-02	0.0	4.474000e-02	2.202335e-02	0.0	5.149000e-02	2.349169e-02	0.0	5.869000e-02	2.493665e-02	0.0	6.633000e-02	2.635387e-02	0.0	7.440000e-02	2.773932e-02	0.0	8.290000e-02	2.909087e-02	0.0	9.181000e-02	3.040341e-02	0.0	1.011300e-01	3.167530e-02	0.0	1.108500e-01	3.290363e-02	0.0	1.209500e-01	3.408474e-02	0.0	1.314400e-01	3.521877e-02	0.0	1.422900e-01	3.630173e-02	0.0	1.534900e-01	3.733235e-02	0.0	1.650400e-01	3.831046e-02	0.0	1.769300e-01	3.923514e-02	0.0	1.891400e-01	4.010504e-02	0.0	2.016600e-01	4.091990e-02	0.0	2.144700e-01	4.167905e-02	0.0	2.275700e-01	4.238320e-02	0.0	2.409400e-01	4.303194e-02	0.0	2.545700e-01	4.362550e-02	0.0	2.684500e-01	4.416406e-02	0.0	2.825500e-01	4.464701e-02	0.0	2.968700e-01	4.507477e-02	0.0	3.114000e-01	4.544713e-02	0.0	3.261100e-01	4.576320e-02	0.0	3.409900e-01	4.602245e-02	0.0	3.560400e-01	4.622413e-02	0.0	3.712300e-01	4.636680e-02	0.0	3.865400e-01	4.644905e-02	0.0	4.019700e-01	4.646934e-02	0.0	4.175000e-01	4.642577e-02	0.0	4.331100e-01	4.631637e-02	0.0	4.487800e-01	4.613911e-02	0.0	4.645100e-01	4.589158e-02	0.0	4.802700e-01	4.557169e-02	0.0	4.960500e-01	4.517699e-02	0.0	5.118400e-01	4.470488e-02	0.0	5.276100e-01	4.415337e-02	0.0	5.433600e-01	4.351949e-02	0.0	5.590600e-01	4.280152e-02	0.0	5.747100e-01	4.199665e-02	0.0	5.902800e-01	4.110399e-02	0.0	6.057600e-01	4.012237e-02	0.0	6.211300e-01	3.905229e-02	0.0	6.363800e-01	3.789499e-02	0.0	6.515000e-01	3.665337e-02	0.0	6.664700e-01	3.533326e-02	0.0	6.812700e-01	3.394292e-02	0.0	6.958900e-01	3.249201e-02	0.0	7.103200e-01	3.099217e-02	0.0	7.245300e-01	2.945866e-02	0.0	7.385200e-01	2.790422e-02	0.0	7.522800e-01	2.634221e-02	0.0	7.657800e-01	2.478674e-02	0.0	7.790100e-01	2.324707e-02	0.0	7.919700e-01	2.172784e-02	0.0	8.046400e-01	2.023229e-02	0.0	8.170100e-01	1.875883e-02	0.0	8.290500e-01	1.730529e-02	0.0	8.407700e-01	1.586256e-02	0.0	8.521600e-01	1.442259e-02	0.0	8.631800e-01	1.298072e-02	0.0	8.738500e-01	1.152463e-02	0.0	8.841500e-01	1.004812e-02	0.0	8.940600e-01	8.548536e-03	0.0	9.035800e-01	7.027880e-03	0.0	9.127000e-01	5.503924e-03	0.0	9.214000e-01	4.017973e-03	0.0	9.296900e-01	2.632346e-03	0.0	9.375400e-01	1.437984e-03	0.0	9.449600e-01	5.250391e-04	0.0	9.519400e-01	-3.441898e-05	0.0	9.584700e-01	-2.200762e-04	0.0	9.645400e-01	-8.193723e-05	0.0	9.701500e-01	2.661831e-04	0.0	9.752800e-01	6.764013e-04	0.0	9.799500e-01	1.015305e-03	0.0	9.841300e-01	1.194930e-03	0.0	9.878400e-01	1.194236e-03	0.0	9.910500e-01	1.045876e-03	0.0	9.937800e-01	8.105315e-04	0.0	9.960200e-01	5.520472e-04	0.0	9.977600e-01	3.204820e-04	0.0	9.990000e-01	1.448312e-04	0.0	9.997500e-01	3.632227e-05	0.0	1.000000e+00	0.000000e+00	0.0	1.984229e+01	2.506660e+00	0.0	1.937166e+01	4.973800e+00	0.0	1.859553e+01	7.362490e+00	0.0	1.752613e+01	9.635070e+00	0.0	1.618034e+01	1.175571e+01	0.0	1.457937e+01	1.369094e+01	0.0	1.274848e+01	1.541027e+01	0.0	1.071654e+01	1.688656e+01	0.0	8.515590e+00	1.809654e+01	0.0	6.180340e+00	1.902113e+01	0.0	3.747630e+00	1.964575e+01	0.0	1.255810e+00	1.996053e+01	0.0	-1.255810e+00	1.996053e+01	0.0	-3.747630e+00	1.964574e+01	0.0	-6.180340e+00	1.902113e+01	0.0	-8.515590e+00	1.809654e+01	0.0	-1.071654e+01	1.688656e+01	0.0	-1.274848e+01	1.541026e+01	0.0	-1.457937e+01	1.369094e+01	0.0	-1.618034e+01	1.175570e+01	0.0	-1.752613e+01	9.635070e+00	0.0	-1.859553e+01	7.362490e+00	0.0	-1.937166e+01	4.973800e+00	0.0	-1.984229e+01	2.506660e+00	0.0	-2.000000e+01	0.000000e+00	0.0	-1.984229e+01	-2.506670e+00	0.0	-1.937166e+01	-4.973800e+00	0.0	-1.859553e+01	-7.362490e+00	0.0	-1.752613e+01	-9.635080e+00	0.0	-1.618034e+01	-1.175571e+01	0.0	-1.457937e+01	-1.369094e+01	0.0	-1.274848e+01	-1.541027e+01	0.0	-1.071653e+01	-1.688656e+01	0.0	-8.515580e+00	-1.809654e+01	0.0	-6.180340e+00	-1.902113e+01	0.0	-3.747620e+00	-1.964575e+01	0.0	-1.255810e+00	-1.996053e+01	0.0	1.255810e+00	-1.996053e+01	0.0	3.747630e+00	-1.964574e+01	0.0	6.180340e+00	-1.902113e+01	0.0	8.515590e+00	-1.809654e+01	0.0	1.071654e+01	-1.688656e+01	0.0	1.274848e+01	-1.541026e+01	0.0	1.457937e+01	-1.369094e+01	0.0	1.618034e+01	-1.175570e+01	0.0	1.752614e+01	-9.635070e+00	0.0	1.859553e+01	-7.362490e+00	0.0	1.937166e+01	-4.973790e+00	0.0	1.984229e+01	-2.506660e+00	0.0	2.000000e+01	0.000000e+00	0.0	6.108360e-02	-3.781717e-02	0.0	6.595807e-01	-4.947038e-02	0.0	4.255876e-01	6.058666e-02	0.0	6.897891e-01	4.645236e-02	0.0	3.792346e-01	-5.496058e-02	0.0	9.994686e-01	-7.278826e-04	0.0	9.985579e-01	-1.337752e-03	0.0	7.733705e-01	-4.454079e-02	0.0	6.892539e-01	-4.857536e-02	0.0	-8.069217e-04	4.852045e-03	0.0	7.462604e-01	-4.618270e-02	0.0	5.833742e-01	5.561748e-02	0.0	9.928497e-01	-3.879197e-03	0.0	9.899917e-01	-5.027999e-03	0.0	5.989504e-01	5.459149e-02	0.0	7.181891e-01	-4.749597e-02	0.0	-1.237533e-03	5.750970e-04	0.0	9.866571e-01	-6.414351e-03	0.0	9.828498e-01	-8.048274e-03	0.0	-8.849726e-04	-5.210191e-03	0.0	6.445072e-01	-4.986213e-02	0.0	8.242240e-01	-3.989916e-02	0.0	7.993912e-01	-4.248207e-02	0.0	3.485025e-01	5.988222e-02	0.0	8.477202e-01	-3.682616e-02	0.0	2.473422e-01	5.582906e-02	0.0	8.698134e-01	-3.341682e-02	0.0	1.066416e-02	1.536799e-02	0.0	8.904020e-01	-2.999149e-02	0.0	7.735045e-02	-4.166095e-02	0.0	9.094311e-01	-2.688478e-02	0.0	-1.445499e-03	-2.610909e-03	0.0	9.425597e-01	-2.147140e-02	0.0	9.268431e-01	-2.417182e-02	0.0	1.838284e-02	-2.214669e-02	0.0	4.257213e-01	-5.398700e-02	0.0	8.589514e-01	-3.514408e-02	0.0	9.564901e-01	-1.818102e-02	0.0	9.785573e-01	-9.940174e-03	0.0	9.685127e-01	-1.412881e-02	0.0	1.586108e-01	-5.267220e-02	0.0	9.001169e-01	-2.838418e-02	0.0	7.599459e-01	-4.540851e-02	0.0	9.971448e-01	-2.111219e-03	0.0	5.985199e-01	-5.085911e-02	0.0	4.413772e-01	-5.366460e-02	0.0	5.359558e-01	-5.193905e-02	0.0	4.728525e-01	-5.304782e-02	0.0	5.044135e-01	-5.247511e-02	0.0	4.886217e-01	-5.275497e-02	0.0	1.252812e-01	-4.941553e-02	0.0	2.825019e-02	-2.688401e-02	0.0	3.946380e-01	-5.464109e-02	0.0	4.658155e-02	-3.364395e-02	0.0	4.101349e-01	-5.431528e-02	0.0	3.189678e-01	-5.603066e-02	0.0	3.488012e-01	-5.555809e-02	0.0	3.389748e-02	-2.917912e-02	0.0	2.898132e-01	-5.631836e-02	0.0	9.349192e-01	-2.285809e-02	0.0	1.471464e-01	-5.170289e-02	0.0	1.950037e-01	-5.486244e-02	0.0	8.612163e-02	-4.343532e-02	0.0	1.049129e-01	-4.666272e-02	0.0	5.673661e-01	-5.142195e-02	0.0	1.704187e-01	-5.352287e-02	0.0	6.139687e-01	-5.055005e-02	0.0	8.803035e-01	-3.168407e-02	0.0	2.308910e-02	-2.453512e-02	0.0	9.952403e-01	-2.933773e-03	0.0	7.199162e-03	-1.493904e-02	0.0	1.863601e-02	1.936498e-02	0.0	9.183417e-01	-2.549172e-02	0.0	9.49
[...]
POINT_DATA 5233

SCALARS Conservative_1 float 1
LOOKUP_TABLE default
-1.224314e-01	-2.062842e-01	-2.105117e-01	-2.167269e-01	-2.244311e-01	-2.255790e-01	-2.171933e-01	-1.948473e-01	-1.539517e-01	-9.005563e-02	-1.058035e-03	1.120276e-01	2.400720e-01	3.429245e-01	3.506724e-01	2.541353e-01	1.407637e-01	7.467636e-02	4.845329e-02	4.313257e-02	5.343753e-02	7.754322e-02	1.120529e-01	1.531042e-01	1.972819e-01	2.427837e-01	2.889886e-01	3.319343e-01	3.610969e-01	3.636981e-01	3.370108e-01	2.946420e-01	2.549622e-01	2.265365e-01	2.071822e-01	1.919643e-01	1.782966e-01	1.660338e-01	1.553561e-01	1.460183e-01	1.374449e-01	1.293346e-01	1.215403e-01	1.141125e-01	1.070836e-01	1.005989e-01	9.479083e-02	8.983419e-02	8.588459e-02	8.309196e-02	8.158002e-02	8.143971e-02	8.272638e-02	8.547086e-02	8.971592e-02	9.543183e-02	1.026284e-01	1.112482e-01	1.212735e-01	1.326308e-01	1.452842e-01	1.591289e-01	1.741682e-01	1.903487e-01	2.074675e-01	2.248282e-01	2.416124e-01	2.574606e-01	2.734986e-01	2.919922e-01	3.165023e-01	3.508328e-01	3.951609e-01	4.392388e-01	4.625994e-01	4.482778e-01	3.991779e-01	3.387274e-01	2.914759e-01	2.636262e-01	2.436401e-01	2.190586e-01	1.876686e-01	1.534840e-01	1.189061e-01	8.354689e-02	4.667823e-02	8.389695e-03	-3.131532e-02	-7.250827e-02	-1.156062e-01	-1.609029e-01	-2.094878e-01	-2.613937e-01	-3.184531e-01	-3.784030e-01	-4.346544e-01	-4.780243e-01	-4.997999e-01	-4.828841e-01	-4.407161e-01	-3.497100e-01	-2.115120e-01	-8.579656e-02	6.894515e-03	7.041702e-02	1.127375e-01	1.430873e-01	1.668013e-01	1.864327e-01	2.031446e-01	2.183560e-01	2.352070e-01	2.554132e-01	2.743597e-01	2.822347e-01	2.740068e-01	2.599580e-01	2.628765e-01	3.005010e-01	3.692332e-01	4.450687e-01	5.007111e-01	5.227395e-01	5.151739e-01	4.910370e-01	4.621084e-01	4.342897e-01	4.090060e-01	3.860335e-01	3.653525e-01	3.471482e-01	3.315238e-01	3.183499e-01	3.072430e-01	2.978674e-01	2.899214e-01	2.833899e-01	2.781930e-01	2.741176e-01	2.707765e-01	2.681094e-01	2.665579e-01	2.659902e-01	2.656288e-01	2.645333e-01	2.617512e-01	2.568538e-01	2.503092e-01	2.429192e-01	2.350240e-01	2.265575e-01	2.170996e-01	2.065407e-01	1.949468e-01	1.823167e-01	1.686786e-01	1.539611e-01	1.382654e-01	1.216671e-01	1.043995e-01	8.675610e-02	6.900490e-02	5.155133e-02	3.467232e-02	1.874272e-02	3.962250e-03	-9.422816e-03	-2.141615e-02	-3.204074e-02	-4.157327e-02	-5.026775e-02	-5.858443e-02	-6.688852e-02	-7.576094e-02	-8.557399e-02	-9.704348e-02	-1.108382e-01	-1.276929e-01	-1.481074e-01	-1.719353e-01	-1.979953e-01	-2.241266e-01	-2.473902e-01	-2.648823e-01	-2.740088e-01	-2.727827e-01	-2.599030e-01	-2.353472e-01	-2.014238e-01	-1.651561e-01	-1.393746e-01	-1.357591e-01	-1.556577e-01	-1.909766e-01	-2.333343e-01	-2.706256e-01	-3.066425e-01	-4.538541e-01	-2.965422e-01	-2.109316e-04	-2.124925e-04	-2.132254e-04	-2.148900e-04	-2.167487e-04	-2.162728e-04	-2.110817e-04	-1.976436e-04	-1.665569e-04	-1.292056e-04	-6.684067e-05	2.490258e-05	1.245183e-04	1.895542e-04	2.106032e-04	2.040544e-04	1.857754e-04	1.593202e-04	1.316360e-04	1.105372e-04	8.766235e-05	7.580017e-05	1.831614e-04	2.823476e-05	-2.411546e-04	7.475951e-05	1.919357e-04	1.173453e-04	5.033693e-05	5.462214e-05	6.018633e-05	7.335887e-05	8.840339e-05	1.025278e-04	1.144458e-04	1.153566e-04	9.243190e-05	3.973060e-05	-3.515059e-05	-9.044552e-05	-1.344474e-04	-1.678876e-04	-1.880574e-04	-2.007362e-04	-2.064592e-04	-2.085736e-04	-2.099285e-04	-2.107879e-04	-2.085354e-04	-2.106436e-04	1.404241e-01	1.450214e-01	2.622595e-01	7.769272e-02	1.056389e-01	-1.808149e-01	-2.052634e-01	2.952914e-01	1.651117e-01	-3.196244e-01	2.257168e-01	1.850815e-01	-2.154103e-01	-2.092983e-01	1.721275e-01	1.902776e-01	-4.462988e-01	-1.939583e-01	-1.664621e-01	-4.445351e-01	1.366535e-01	2.812556e-01	3.377207e-01	2.690660e-01	1.973745e-01	3.194923e-01	1.207762e-01	6.312336e-02	6.410264e-02	2.029847e-01	4.910577e-02	-4.746920e-01	2.505106e-01	9.446273e-02	-1.196031e-01	8.748274e-02	1.578487e-01	2.066546e-01	-1.236611e-01	1.334731e-02	3.970495e-01	5.053001e-02	2.565046e-01	-2.105193e-01	1.143464e-01	8.416173e-02	9.104549e-02	8.157211e-02	8.407412e-02	8.221750e-02	3.952384e-01	-3.892005e-02	9.823731e-02	7.194448e-02	9.217170e-02	1.479137e-01	1.243377e-01	-5.979871e-04	1.759347e-01	1.661122e-01	4.305358e-01	2.867792e-01	2.249219e-01	2.812768e-01	1.014994e-01	3.525632e-01	1.214080e-01	8.847526e-02	-7.851672e-02	-2.151301e-01	-2.547171e-01	1.292066e-01	6.060177e-02	2.725702e-01	-6.364514e-02	-2.192895e-01	2.387884e-01	2.235048e-01	9.590615e-02	2.051362e-01	3.282229e-01	3.359548e-01	2.526392e-01	1.076795e-01	1.543500e-01	1.063057e-01	-3.044142e-01	-1.625117e-01	1.143552e-01	3.141180e-01	-1.485556e-01	2.384488e-01	2.462323e-01	1.613856e-01	2.075953e-01	8.220353e-02	1.772340e-01	-3.988998e-01	-4.045329e-01	2.184139e-01	-4.752407e-01	1.743335e-01	2.561482e-01	2.148783e-01	4.577342e-01	2.630844e-01	-2.562707e-01	2.273923e-01	2.504902e-01	-2.049934e-01	-2.427811e-01	-1.161417e-01	2.432984e-01	2.603113e-01	2.645562e-01	-1.982020e-01	-1.538963e-01	2.400840e-01	-1.783342e-01	-2.487937e-01	-2.354157e-01	3.118312e-01	2.593575e-01	2.897801e-01	3.078465e-01	4.381963e-01	2.771578e-01	2.564096e-01	2.636341e-01	4.917233e-01	4.993040e-01	1.433273e-01	3.895352e-01	3.496658e-01	1.113166e-01	1.971242e-01	1.453853e-02	4.468405e-02	-3.227201e-02	-1.116813e-02	-6.784872e-02	-5.026892e-02	-1.337375e-01	-8.850114e-02	-2.459741e-01	-1.758878e-01	-2.277427e-01	-7.756784e-02	-1.011876e-01	-4.151819e-02	-5.892511e-02	1.071980e-03	-2.224127e-02	6.095563e-02	2.912823e-02	1.276387e-01	9.457152e-02	2.083090e-01	1.582076e-01	3.684626e-01	3.333603e-01	4.656352e-01	4.127169e-01	2.381672e-01	5.074116e-01	9.958295e-02	1.935662e-01	2.676806e-01	-4.503881e-02	1.061610e-01	3.186039e-01	1.355535e-01	8.705437e-02	-1.235414e-01	1.536852e-01	1.641121e-02	2.579974e-01	2.483224e-01	2.980460e-01	3.877262e-01	-1.554453e-01	-1.459205e-01	2.828373e-01	-1.547818e-01	-1.794433e-01	2.726284e-01	2.663465e-01	-2.188083e-01	-4.449014e-01	-3.035923e-01	-3.815886e-01	1.288434e-01	3.639958e-02	-2.146574e-01	2.355855e-01	-3.552648e-01	-2.075516e-01	1.738797e-01	4.322035e-01	1.914797e-01	2.246431e-01	-2.974213e-01	-3.615509e-01	1.768383e-01	1.645896e-01	5.752554e-02	-2.468510e-01	1.864840e-01	1.538839e-01	2.926806e-01	-1.888372e-01	1.379178e-01	1.598031e-01	2.328048e-01	2.070670e-01	-4.089398e-01	2.467423e-01	-1.625188e-01	9.371873e-02	3.909446e-01	1.761553e-01	1.361758e-01	8.336560e-02	1.856266e-01	1.009506e-01	5.882472e-02	3.096130e-01	-2.031310e-02	9.931353e-02	1.003527e-01	-6.129776e-02	4.048907e-01	8.428946e-02	4.404099e-01	-9.353553e-02	-1.601700e-01	2.667163e-01	2.272325e-01	-2.253189e-01	-1.071401e-01	-1.742600e-01	-2.238695e-01	-1.675843e-01	3.203282e-01	2.706973e-01	3.348217e-01	3.299133e-01	1.444799e-01	2.616913e-01	2.731773e-02	4.860442e-01	2.212839e-01	-2.017511e-01	-1.972263e-01	-1.225986e-01	3.530959e-01	-3.219543e-01	-2.633523e-01	-2.276041e-01	-7.878057e-02	-2.222595e-01	-2.907692e-01	-4.565183e-01	-4.449490e-01	-1.222767e-01	-2.573748e-01	1.279651e-01	-2.094169e-01	-2.068793e-01	2.595035e-01	9.230401e-02	-1.685915e-01	9.760517e-02	1.740266e-01	-2.008777e-01	-4.405564e-01	8.587718e-02	2.603518e-01	1.951054e-01	2.891567e-01	1.269080e-01	7.413672e-02	1.594593e-01	5.306077e-02	7.636179e-02	2.018122e-01	-4.547370e-02	1.664143e-01	2.027667e-02	-1.386174e-01	3.860284e-01	2.283723e-01	2.605382e-01	-2.094809e-01	8.208739e-02	8.201408e-02	8.308291e-02	-8.339769e-02	9.467823e-02	8.963568e-02	1.269860e-01	2.674224e-02	1.182742e-01	1.748785e-01	4.065878e-01	2.339243e-01	9.703824e-02	1.146730e-01	-4.344990e-02	-9.688194e-02	1.885904e-01	2.045496e-01	2.777981e-01	3.355104e-01	1.024177e-01	1.083134e-01	6.101367e-02	9.465553e-02	-2.042406e-01	1.171315e-01	1.084536e-01	3.131251e-01	2.824092e-01	2.338480e-01	2.206081e-01	1.628861e-01	1.499091e-01	2.063810e-01	-4.102470e-01	-3.336339e-01	1.978972e-01	-1.579443e-01	2.186225e-01	2.352838e-01	2.430750e-01	2.499548e-01	-1.842247e-01	-2.157422e-01	-1.772497e-01	2.549949e-01	2.579825e-01	2.611150e-01	-1.584237e-01	-2.203054e-01	2.336858e-01	2.351427e-01	3.080371e-01	2.977713e-01	4.660888e-01	4.890488e-01	4.628502e-01	-2.414003e-02	2.331844e-02	3.762566e-02	-1.370777e-02	-5.212294e-02	-1.398895e-01	-8.159102e-02	-7.094112e-02	-4.307164e-02	-3.382726e-02	-2.395438e-03	9.948467e-03	5.267653e-02	6.832375e-02	1.162302e-01	1.317306e-01	1.983252e-01	2.091169e-01	1.466431e-01	1.607506e-01	3.517180e-01	3.708693e-01	3.920259e-01	4.151904e-01	6.663426e-02	1.734004e-01	1.503893e-01	3.007986e-01	2.709318e-01	8.521204e-02	8.831826e-02	-1.472684e-01	1.266062e-01	2.641495e-01	2.287377e-01	2.757838e-01	2.819208e-01	2.621949e-01	2.639360e-01	-2.097473e-01	-1.948681e-01	1.214220e-01	1.285773e-01	-8.692715e-03	-3.748523e-01	1.915093e-01	-4.074797e-01	9.757413e-02	1.637803e-01	2.800026e-01	9.040614e-02	7.131021e-02	-1.753158e-01	-1.675683e-01	-2.042428e-01	-1.598552e-01	-1.895471e-01	-3.089314e-01	-3.277885e-01	-2.074261e-01	-2.736645e-01	-1.241901e-01	-3.865847e-01	1.919642e-01	9.536749e-02	-1.834040e-01	1.856780e-01	-2.055425e-01	-2.774428e-01	1.658666e-01	-3.506675e-01	1.771193e-01	-1.614011e-01	1.062885e-01	-2.385040e-01	1.294212e-01	1.321969e-01	1.553401e-01	-1.939479e-01	-1.997822e-01	-1.756202e-01	2.163259e-01	-2.058422e-01	1.027861e-01	-2.132692e-01	2.250002e-01	2.872928e-01	2.630218e-01	4.395425e-01	2.101286e-01	-3.318403e-01	-3.798254e-01	-2.833433e-01	3.908792e-02	-3.380013e-01	2.472402e-02	1.681378e-01	-4.264287e-01	3.475488e-01	8.357158e-02	-8.743565e-02	-4.670398e-02	-5.760803e-02	-1.902049e-02	8.741340e-02	-1.682021e-01	-2.074326e-01	-1.153109e-01	-1.015989e-01	2.676156e-01	2.796877e-01	3.202684e-01	3.431752e-01	1.373659e-01	1.457916e-01	2.403391e-01	-6.874173e-04	4.599952e-01	-1.863485e-01	-2.372075e-01	-1.001115e-01	-2.223808e-01	-3.151540e-01	-4.286771e-01	-5.142378e-02	-2.138205e-01	-2.077344e-01	-2.864277e-02	-1.672309e-01	1.733273e-01	8.535990e-02	2.552003e-01	1.929722e-01	1.611902e-01	8.482042e-02	6.936561e-02	1.144887e-01	1.435398e-01	6.119745e-02	6.122161e-02	1.307453e-01	8.204978e-02	-1.446095e-01	2.353521e-01	2.619946e-01	-2.017762e-01	8.287665e-02	8.330717e-02	9.235293e-02	8.826185e-02	-1.668724e-02	1.288043e-01	1.482220e-01	3.637461e-01	3.702304e-01	9.438639e-02	9.905842e-02	-7.522047e-02	-1.142091e-01	1.902650e-01	2.093012e-01	2.252980e-01	2.736766e-01	3.266605e-01	1.042715e-01	1.100005e-01	1.705504e-02	5.026415e-02	8.288921e-02	1.198864e-01	1.113599e-01	1.039254e-01	3.119925e-01	2.796125e-01	2.561785e-01	2.279215e-01	2.161724e-01	1.514141e-01	1.399629e-01	2.036549e-01	1.796690e-01	2.333997e-01	2.412083e-01	-1.967438e-01	2.472034e-01	2.512341e-01	2.537427e-01	2.561680e-01	-1.615247e-01	2.116914e-01	2.012296e-01	2.963643e-01	3.073223e-01	4.688095e-01	4.545197e-01	4.100950e-01	2.874595e-02	-1.458118e-01	-1.301352e-01	-8.913443e-02	-7.778168e-02	-6.742857e-02	-4.811656e-02	-3.852450e-02	-2.893005e-02	-8.231286e-03	3.181215e-03	1.562111e-02	4.275062e-02	5.718714e-02	7.226463e-02	1.178255e-01	1.972517e-01	2.071578e-01	1.326435e-01	1.467607e-01	1.603937e-01	3.354157e-01	3.526067e-01	3.717350e-01	3.926384e-01	4.155298e-01	1.541777e-01	1.286520e-01	2.791530e-01	2.582470e-01	2.267930e-01	8.476359e-02	8.715397e-02	1.021417e-01	7.283576e-02	2.746370e-01	2.269687e-01	2.088795e-01	2.732239e-01	2.570325e-01	2.580269e-01	2.597912e-01	-1.997241e-01	-1.896487e-01	-1.766188e-01	1.161487e-01	1.227351e-01	1.297630e-01	1.903922e-01	1.768768e-01	-3.735785e-01	1.786453e-01	-2.181374e-01	-1.735730e-01	9.292353e-02	-3.523041e-01	-2.093806e-01	8.154298e-02	9.827365e-02	-5.688944e-02	-1.868637e-01	2.201774e-01	-3.512437e-01	-2.234383e-02	-2.624792e-01	-1.926734e-01	-2.014974e-01	-2.655590e-01	1.037223e-01	-2.154504e-01	-2.836292e-01	-2.502106e-01	2.603546e-01	3.060442e-01	-1.247011e-01	9.551100e-02	1.522167e-01	8.595374e-02	1.525111e-01	-1.727278e-01	1.831452e-01	-1.927730e-01	-1.895278e-01	-1.594993e-02	4.316433e-01	2.839848e-01	-1.664021e-01	1.899777e-01	1.118455e-01	-2.535804e-01	-1.770259e-01	-1.986389e-01	-6.133205e-02	-1.589488e-01	1.576413e-01	-2.952947e-01	1.673492e-01	1.793127e-01	-1.933587e-01	-1.803181e-01	-2.284156e-01	-5.493433e-02	2.133953e-01	2.629041e-01	-3.119166e-01	-6.545893e-02	8.793340e-02	-1.098932e-01	2.578526e-01	2.689100e-01	2.757914e-01	1.396849e-01	1.478838e-01	-1.780819e-01	-1.125981e-01	-1.634795e-01	-3.259228e-01	-3.961570e-01	-9.010149e-02	-2.161067e-02	-1.484071e-01	1.698198e-01	1.608561e-01	1.348188e-01	9.217640e-02	7.763123e-02	1.003929e-01	1.277547e-01	6.851087e-02	6.577670e-02	6.990718e-02	6.509071e-02	2.189321e-02	2.409762e-01	2.536960e-01	-1.901989e-01	8.476482e-02	8.456558e-02	9.122107e-02	8.805579e-02	1.082985e-01	9.764751e-02	3.315160e-01	3.297132e-01	9.715396e-02	-9.619449e-02	-1.254010e-01	1.933147e-01	2.173489e-01	2.155311e-01	2.631607e-01	3.069346e-01	1.016321e-01	1.068432e-01	-2.461462e-02	7.638712e-03	3.973624e-02	7.062169e-02	1.224876e-01	1.143202e-01	1.070208e-01	1.007838e-01	2.765611e-01	2.522709e-01	2.345002e-01	2.217514e-01	2.107023e-01	1.316678e-01	1.416197e-01	1.997001e-01	2.293709e-01	-1.841185e-01	-1.894910e-01	2.362519e-01	2.412006e-01	2.447864e-01	2.472251e-01	2.488376e-01	1.801159e-01	1.596869e-01	2.938232e-01	3.055335e-01	4.418833e-01	4.351239e-01	4.020304e-01	3.455581e-01	-1.494571e-01	-1.361483e-01	-1.228912e-01	-9.765782e-02	-8.599185e-02	-7.524383e-02	-6.451853e-02	-4.597178e-02	-3.504663e-02	-2.584676e-02	-4.618792e-03	6.635444e-03	1.939307e-02	3.175338e-02	4.589764e-02	5.909697e-02	7.441152e-02	2.024652e-01	1.945986e-01	1.167850e-01	1.323372e-01	1.446044e-01	1.594696e-01	3.191637e-01	3.345861e-01	3.518709e-01	3.707981e-01	3.911979e-01	4.130698e-01	1.341390e-01	1.077926e-01	2.429513e-01	2.173250e-01	1.893286e-01	8.547900e-02	8.688660e-02	8.980111e-02	8.013952e-02	4.945150e-02	1.578257e-02	2.807244e-01	2.281332e-01	1.998968e-01	1.921438e-01	2.499324e-01	2.508292e-01	2.516663e-01	2.539695e-01	-1.621935e-01	-1.828573e-01	-1.737183e-01	1.124221e-01	1.184204e-01	1.249950e-01	1.318592e-01	1.880005e-01	1.760457e-01	1.639806e-01	-1.865312e-01	-2.084480e-01	-5.448227e-02	-3.161145e-01	-2.177368e-01	1.734915e-01	1.649226e-01	-2.478897e-01	-1.737223e-01	-3.031359e-01	-9.239839e-02	2.693690e-01	4.121131e-01	-7.922469e-02	-2.072044e-01	-3.257271e-01	-4.046049e-01	-4.153970e-01	-3.797428e-01	-3.261518e-01	-1.919810e-01	2.510739e-01	-8.430043e-02	-1.665565e-01	7.825471e-02	2.308395e-01	9.393526e-02	-1.924906e-01	-1.511314e-01	-1.745644e-01	1.835913e-01	2.009711e-01	9.464838e-02	-7.505631e-03	2.139933e-01	9.388550e-02	2.481330e-01	-1.834343e-01	1.370552e-01	-2.893456e-01	-1.738770e-01	-3.977033e-01	-2.302099e-01	-2.174729e-01	7.926170e-02	-6.253996e-02	-3.449805e-01	-3.994875e-02	-2.763549e-01	-1.807780e-01	-2.492241e-01	-2.788917e-01	-2.571188e-01	-1.560494e-01	1.337430e-01	1.428341e-01	-1.769001e-01	1.656606e-01	-1.790274e-01	-1.512594e-01	1.533158e-01	-2.890947e-01	2.579360e-01	2.630990e-01	2.720424e-01	1.371103e-01	-1.207744e-01	-1.635479e-01	-3.639127e-01	-1.241130e-01	1.328747e-01	1.143605e-01	9.499308e-02	8.106694e-02	1.125736e-01	8.609139e-02	7.129441e-02	6.687473e-02	6.698980e-02	7.102918e-02	1.265468e-02	-2.164970e-02	2.256821e-01	-1.781534e-01	8.668795e-02	8.621754e-02	9.051688e-02	8.835922e-02	6.764733e-02	4.465896e-02	2.968024e-01	2.953867e-01	-1.106146e-01	-1.329655e-01	1.979451e-01	2.060845e-01	2.530300e-01	2.796627e-01	1.017850e-01	-3.240904e-02	-1.520593e-03	2.878067e-02	5.786087e-02	1.246884e-01	1.169271e-01	1.097638e-01	1.036301e-01	9.877758e-02	2.495825e-01	2.295604e-01	2.173462e-01	2.051788e-01	1.963649e-01	-1.756963e-01	-1.783398e-01	-1.803765e-01	2.242817e-01	2.284475e-01	2.347513e-01	2.365551e-01	2.406461e-01	1.590858e-01	1.390841e-01	2.798025e-01	2.917044e-01	4.151223e-01	3.864722e-01	3.378884e-01	-1.391812e-01	-1.280377e-01	-1.158865e-01	-1.043732e-01	-9.301206e-02	-8.206001e-02	-7.166673e-02	-5.700734e-02	-4.260081e-02	-2.743269e-02	1.560707e-02	4.052459e-02	6.714781e-02	1.219867e-01	1.473740e-01	3.027683e-01	3.182103e-01	3.324826e-01	3.514052e-01	3.664240e-01	3.867576e-01	4.038165e-01	1.136651e-01	8.708036e-02	2.043273e-01	1.840037e-01	1.585552e-01	8.647574e-02	8.857123e-02	5.968385e-02	2.886831e-02	-4.581446e-03	2.793491e-01	2.270546e-01	1.931289e-01	1.774546e-01	1.701916e-01	2.408853e-01	2.434760e-01	2.426029e-01	2.439298e-01	-1.681426e-01	-1.597730e-01	1.116908e-01	1.234132e-01	1.847287e-01	1.752204e-01	1.634560e-01	1.535783e-01	-2.115878e-01	-2.761181e-01	-2.334645e-01	-3.483241e-01	-2.438304e-01	-1.002445e-01	-1.793323e-01	-2.672947e-01	-1.706058e-01	-1.957186e-01	-1.384233e-01	-3.336733e-01	-9.458309e-02	-2.067688e-01	2.381080e-01	-2.845023e-01	-1.255028e-01	-2.336175e-01	-1.796798e-01	-7.743202e-02	9.112355e-02	-1.741869e-01	1.307836e-01	4.491251e-02	5.949264e-02	1.148723e-01	1.532537e-01	2.335596e-01	-3.021798e-01	9.129174e-02	9.729431e-02	1.207040e-01	3.730577e-01	-1.702709e-01	-1.436431e-01	-2.991946e-01	-8.903963e-02	-5.224337e-02	-2.977925e-01	-1.712580e-01	-3.995763e-01	-3.187605e-01	-1.541612e-01	1.772396e-01	1.956742e-01	2.117854e-01	-1.863816e-01	-2.605619e-01	-2.148389e-01	-3.749235e-01	-2.261083e-01	-6.750887e-02	-2.815217e-01	-2.583209e-01	1.629228e-01	-1.226415e-01	-1.692310e-01	-1.660906e-01	1.796357e-01	2.473463e-01	2.619023e-01	1.563346e-01	-1.618536e-01	-1.984199e-01	-1.522008e-01	1.028313e-01	7.682850e-02	7.190570e-02	6.427184e-02	6.107123e-02	-2.558052e-02	-1.675183e-01	8.791736e-02	2.535845e-02	1.323134e-03	2.600630e-01	-1.205274e-01	1.993817e-01	2.079425e-01	2.114265e-01	2.505248e-01	9.698579e-02	-3.913969e-02	-8.797178e-03	2.131131e-02	4.414338e-02	1.154867e-01	1.038778e-01	9.659581e-02	2.064618e-01	1.864793e-01	-1.704359e-01	-1.708360e-01	2.229177e-01	2.296376e-01	1.195199e-01	2.818002e-01	3.246771e-01	-3.697182e-02	-1.245893e-01	-1.034076e-01	-8.300248e-02	-6.591665e-02	-5.127539e-02	-2.023737e-02	3.085916e-04	2.302646e-02	4.713176e-02	7.246654e-02	9.836902e-02	1.233930e-01	1.449092e-01	3.074905e-01	3.366928e-01	3.597012e-01	3.794598e-01	3.822815e-01	9.348310e-02	6.729197e-02	1.910119e-01	1.620754e-01	1.298596e-01	8.711192e-02	8.795303e-02	4.069338e-02	1.129765e-02	-2.142537e-02	-5.434511e-02	2.695057e-01	2.200726e-01	1.850035e-01	1.644649e-01	1.510065e-01	1.427906e-01	2.328093e-01	2.330450e-01	-1.625745e-01	-1.551374e-01	1.050301e-01	1.264306e-01	1.398933e-01	1.675475e-01	1.485592e-01	-1.925807e-01	-2.154915e-01	-2.115845e-01	-2.245874e-01	-2.244338e-03	-1.812242e-01	-2.648615e-01	-1.892755e-01	-2.413413e-01	-1.726863e-01	-2.010662e-01	-1.759642e-01	-1.589185e-01	-2.749013e-01	-3.067347e-01	-1.636915e-01	1.770088e-01	2.241375e-01	-2.062288e-01	5.326180e-02	-1.206611e-01	1.109088e-01	-1.276648e-01	-2.195315e-01	9.348616e-02	1.073428e-02	1.176300e-01	9.330389e-02	-9.313741e-02	-1.114568e-01	-9.631045e-02	-7.128668e-02	-2.844036e-01	-1.697895e-01	-1.743598e-01	-1.607413e-01	2.418014e-01	1.430167e-01	1.428059e-01	6.125851e-02	-2.614962e-01	-2.723550e-01	-3.657202e-01	-7.326970e-02	-1.625151e-01	-2.478558e-01	-1.279877e-01	-2.475073e-01	-1.961593e-01	8.927524e-02	-2.946584e-01	7.983718e-02	1.054864e-01	-1.667509e-01	-3.191607e-01	-5.230842e-02	-1.435902e-01	1.596009e-01	-3.461702e-01	-2.298686e-01	3.215774e-02	-2.794023e-01	-2.612623e-01	1.765332e-01	-1.473122e-01	-1.580316e-01	1.601808e-01	2.302726e-01	1.237841e-01	-1.896806e-01	-2.191574e-01	7.923364e-02	6.261781e-02	4.445869e-02	2.984360e-02	-1.584732e-01	8.945637e-02	-9.136249e-03	-3.060877e-02	9.933723e-02	1.521750e-01	1.263749e-01	1.856558e-01	1.449628e-01	1.924833e-01	2.220171e-01	-4.277583e-02	1.196276e-01	1.076491e-01	2.220798e-01	2.031298e-01	1.290729e-01	-1.649059e-01	1.923925e-01	2.057921e-01	3.080824e-01	-1.283732e-01	-1.109656e-01	-4.562502e-02	-9.230533e-02	-7.499466e-02	-5.972113e-02	-3.060755e-02	-1.274030e-02	7.797060e-03	2.993246e-02	5.318686e-02	7.736534e-02	1.015556e-01	2.589765e-01	2.812159e-01	3.065305e-01	3.307588e-01	3.504326e-01	3.428435e-01	7.504715e-02	4.803398e-02	1.758082e-01	1.018542e-01	8.766954e-02	8.759776e-02	2.302547e-02	-3.827468e-03	-3.438802e-02	-6.541877e-02	-9.597918e-02	2.548651e-01	2.065812e-01	1.723870e-01	1.498089e-01	1.326351e-01