# vtk DataFile Version 3.0
vtk output
ASCII
DATASET UNSTRUCTURED_GRID
POINTS 200 float
9.997500e-01	-3.633653e-05	0.0	9.990000e-01	-1.457306e-04	0.0	9.977600e-01	-3.303315e-04	0.0	9.960200e-01	-6.050985e-04	0.0	9.937800e-01	-1.001481e-03	0.0	9.910500e-01	-1.570683e-03	0.0	9.878400e-01	-2.377778e-03	0.0	9.841300e-01	-3.490453e-03	0.0	9.799500e-01	-4.925966e-03	0.0	9.752800e-01	-6.652294e-03	0.0	9.701500e-01	-8.546190e-03	0.0	9.645400e-01	-1.045072e-02	0.0	9.584700e-01	-1.219059e-02	0.0	9.519400e-01	-1.364804e-02	0.0	9.449600e-01	-1.478940e-02	0.0	9.375400e-01	-1.567110e-02	0.0	9.296900e-01	-1.641059e-02	0.0	9.214000e-01	-1.714405e-02	0.0	9.127000e-01	-1.798155e-02	0.0	9.035800e-01	-1.899070e-02	0.0	8.940600e-01	-2.018471e-02	0.0	8.841500e-01	-2.153516e-02	0.0	8.738500e-01	-2.298834e-02	0.0	8.631800e-01	-2.447733e-02	0.0	8.521600e-01	-2.593804e-02	0.0	8.407700e-01	-2.732270e-02	0.0	8.290500e-01	-2.859115e-02	0.0	8.170100e-01	-2.972330e-02	0.0	8.046400e-01	-3.071464e-02	0.0	7.919700e-01	-3.156834e-02	0.0	7.790100e-01	-3.229720e-02	0.0	7.657800e-01	-3.291783e-02	0.0	7.522800e-01	-3.344917e-02	0.0	7.385200e-01	-3.390875e-02	0.0	7.245300e-01	-3.431132e-02	0.0	7.103200e-01	-3.466939e-02	0.0	6.958900e-01	-3.499250e-02	0.0	6.812700e-01	-3.528679e-02	0.0	6.664700e-01	-3.555677e-02	0.0	6.515000e-01	-3.580556e-02	0.0	6.363800e-01	-3.603558e-02	0.0	6.211300e-01	-3.624934e-02	0.0	6.057600e-01	-3.645006e-02	0.0	5.902800e-01	-3.664177e-02	0.0	5.747100e-01	-3.682923e-02	0.0	5.590600e-01	-3.701806e-02	0.0	5.433600e-01	-3.721407e-02	0.0	5.276100e-01	-3.742353e-02	0.0	5.118400e-01	-3.765194e-02	0.0	4.960500e-01	-3.790445e-02	0.0	4.802700e-01	-3.818462e-02	0.0	4.645100e-01	-3.849484e-02	0.0	4.487800e-01	-3.883590e-02	0.0	4.331100e-01	-3.920638e-02	0.0	4.175000e-01	-3.960377e-02	0.0	4.019700e-01	-4.002342e-02	0.0	3.865400e-01	-4.045911e-02	0.0	3.712300e-01	-4.090330e-02	0.0	3.560400e-01	-4.134797e-02	0.0	3.409900e-01	-4.178375e-02	0.0	3.261100e-01	-4.220047e-02	0.0	3.114000e-01	-4.258860e-02	0.0	2.968700e-01	-4.293829e-02	0.0	2.825500e-01	-4.323944e-02	0.0	2.684500e-01	-4.348290e-02	0.0	2.545700e-01	-4.366011e-02	0.0	2.409400e-01	-4.376274e-02	0.0	2.275700e-01	-4.378351e-02	0.0	2.144700e-01	-4.371586e-02	0.0	2.016600e-01	-4.355410e-02	0.0	1.891400e-01	-4.329309e-02	0.0	1.769300e-01	-4.292875e-02	0.0	1.650400e-01	-4.245765e-02	0.0	1.534900e-01	-4.187767e-02	0.0	1.422900e-01	-4.118719e-02	0.0	1.314400e-01	-4.038463e-02	0.0	1.209500e-01	-3.946963e-02	0.0	1.108500e-01	-3.844482e-02	0.0	1.011300e-01	-3.731001e-02	0.0	9.181000e-02	-3.606894e-02	0.0	8.290000e-02	-3.472550e-02	0.0	7.440000e-02	-3.328293e-02	0.0	6.633000e-02	-3.174885e-02	0.0	5.869000e-02	-3.012852e-02	0.0	5.149000e-02	-2.843004e-02	0.0	4.474000e-02	-2.666276e-02	0.0	3.844000e-02	-2.483434e-02	0.0	3.260000e-02	-2.295578e-02	0.0	2.723000e-02	-2.103922e-02	0.0	2.232000e-02	-1.908953e-02	0.0	1.790000e-02	-1.712750e-02	0.0	1.395000e-02	-1.515233e-02	0.0	1.049000e-02	-1.318015e-02	0.0	7.520000e-03	-1.121595e-02	0.0	5.040000e-03	-9.260369e-03	0.0	3.050000e-03	-7.306611e-03	0.0	1.560000e-03	-5.349391e-03	0.0	5.600000e-04	-3.336597e-03	0.0	6.000000e-05	-1.183366e-03	0.0	0.000000e+00	0.000000e+00	0.0	6.000000e-05	1.143256e-03	0.0	5.600000e-04	3.132732e-03	0.0	1.560000e-03	4.910572e-03	0.0	3.050000e-03	6.577746e-03	0.0	5.040000e-03	8.194284e-03	0.0	7.520000e-03	9.776435e-03	0.0	1.049000e-02	1.133997e-02	0.0	1.395000e-02	1.289335e-02	0.0	1.790000e-02	1.444073e-02	0.0	2.232000e-02	1.597690e-02	0.0	2.723000e-02	1.750924e-02	0.0	3.260000e-02	1.902764e-02	0.0	3.844000e-02	2.053387e-02	0.0	4.474000e-02	2.202335e-02	0.0	5.149000e-02	2.349169e-02	0.0	5.869000e-02	2.493665e-02	0.0	6.633000e-02	2.635387e-02	0.0	7.440000e-02	2.773932e-02	0.0	8.290000e-02	2.909087e-02	0.0	9.181000e-02	3.040341e-02	0.0	1.011300e-01	3.167530e-02	0.0	1.108500e-01	3.290363e-02	0.0	1.209500e-01	3.408474e-02	0.0	1.314400e-01	3.521877e-02	0.0	1.422900e-01	3.630173e-02	0.0	1.534900e-01	3.733235e-02	0.0	1.650400e-01	3.831046e-02	0.0	1.769300e-01	3.923514e-02	0.0	1.891400e-01	4.010504e-02	0.0	2.016600e-01	4.091990e-02	0.0	2.144700e-01	4.167905e-02	0.0	2.275700e-01	4.238320e-02	0.0	2.409400e-01	4.303194e-02	0.0	2.545700e-01	4.362550e-02	0.0	2.684500e-01	4.416406e-02	0.0	2.825500e-01	4.464701e-02	0.0	2.968700e-01	4.507477e-02	0.0	3.114000e-01	4.544713e-02	0.0	3.261100e-01	4.576320e-02	0.0	3.409900e-01	4.602245e-02	0.0	3.560400e-01	4.622413e-02	0.0	3.712300e-01	4.636680e-02	0.0	3.865400e-01	4.644905e-02	0.0	4.019700e-01	4.646934e-02	0.0	4.175000e-01	4.642577e-02	0.0	4.331100e-01	4.631637e-02	0.0	4.487800e-01	4.613911e-02	0.0	4.645100e-01	4.589158e-02	0.0	4.802700e-01	4.557169e-02	0.0	4.960500e-01	4.517699e-02	0.0	5.118400e-01	4.470488e-02	0.0	5.276100e-01	4.415337e-02	0.0	5.433600e-01	4.351949e-02	0.0	5.590600e-01	4.280152e-02	0.0	5.747100e-01	4.199665e-02	0.0	5.902800e-01	4.110399e-02	0.0	6.057600e-01	4.012237e-02	0.0	6.211300e-01	3.905229e-02	0.0	6.363800e-01	3.789499e-02	0.0	6.515000e-01	3.665337e-02	0.0	6.664700e-01	3.533326e-02	0.0	6.812700e-01	3.394292e-02	0.0	6.958900e-01	3.249201e-02	0.0	7.103200e-01	3.099217e-02	0.0	7.245300e-01	2.945866e-02	0.0	7.385200e-01	2.790422e-02	0.0	7.522800e-01	2.634221e-02	0.0	7.657800e-01	2.478674e-02	0.0	7.790100e-01	2.324707e-02	0.0	7.919700e-01	2.172784e-02	0.0	8.046400e-01	2.023229e-02	0.0	8.170100e-01	1.875883e-02	0.0	8.290500e-01	1.730529e-02	0.0	8.407700e-01	1.586256e-02	0.0	8.521600e-01	1.442259e-02	0.0	8.631800e-01	1.298072e-02	0.0	8.738500e-01	1.152463e-02	0.0	8.841500e-01	1.004812e-02	0.0	8.940600e-01	8.548536e-03	0.0	9.035800e-01	7.027880e-03	0.0	9.127000e-01	5.503924e-03	0.0	9.214000e-01	4.017973e-03	0.0	9.296900e-01	2.632346e-03	0.0	9.375400e-01	1.437984e-03	0.0	9.449600e-01	5.250391e-04	0.0	9.519400e-01	-3.441898e-05	0.0	9.584700e-01	-2.200762e-04	0.0	9.645400e-01	-8.193723e-05	0.0	9.701500e-01	2.661831e-04	0.0	9.752800e-01	6.764013e-04	0.0	9.799500e-01	1.015305e-03	0.0	9.841300e-01	1.194930e-03	0.0	9.878400e-01	1.194236e-03	0.0	9.910500e-01	1.045876e-03	0.0	9.937800e-01	8.105315e-04	0.0	9.960200e-01	5.520472e-04	0.0	9.977600e-01	3.204820e-04	0.0	9.990000e-01	1.448312e-04	0.0	9.997500e-01	3.632227e-05	0.0	1.000000e+00	0.000000e+00	0.0	
CELLS 200	600
2	199	0	2	0	1	2	1	2	2	2	3	2	3	4	2	4	5	2	5	6	2	6	7	2	7	8	2	8	9	2	9	10	2	10	11	2	11	12	2	12	13	2	13	14	2	14	15	2	15	16	2	16	17	2	17	18	2	18	19	2	19	20	2	20	21	2	21	22	2	22	23	2	23	24	2	24	25	2	25	26	2	26	27	2	27	28	2	28	29	2	29	30	2	30	31	2	31	32	2	32	33	2	33	34	2	34	35	2	35	36	2	36	37	2	37	38	2	38	39	2	39	40	2	40	41	2	41	42	2	42	43	2	43	44	2	44	45	2	45	46	2	46	47	2	47	48	2	48	49	2	49	50	2	50	51	2	51	52	2	52	53	2	53	54	2	54	55	2	55	56	2	56	57	2	57	58	2	58	59	2	59	60	2	60	61	2	61	62	2	62	63	2	63	64	2	64	65	2	65	66	2	66	67	2	67	68	2	68	69	2	69	70	2	70	71	2	71	72	2	72	73	2	73	74	2	74	75	2	75	76	2	76	77	2	77	78	2	78	79	2	79	80	2	80	81	2	81	82	2	82	83	2	83	84	2	84	85	2	85	86	2	86	87	2	87	88	2	88	89	2	89	90	2	90	91	2	91	92	2	92	93	2	93	94	2	94	95	2	95	96	2	96	97	2	97	98	2	98	99	2	99	100	2	100	101	2	101	102	2	102	103	2	103	104	2	104	105	2	105	106	2	106	107	2	107	108	2	108	109	2	109	110	2	110	111	2	111	112	2	112	113	2	113	114	2	114	115	2	115	116	2	116	117	2	117	118	2	118	119	2	119	120	2	120	121	2	121	122	2	122	123	2	123	124	2	124	125	2	125	126	2	126	127	2	127	128	2	128	129	2	129	130	2	130	131	2	131	132	2	132	133	2	133	134	2	134	135	2	135	136	2	136	137	2	137	138	2	138	139	2	139	140	2	140	141	2	141	142	2	142	143	2	143	144	2	144	145	2	145	146	2	146	147	2	147	148	2	148	149	2	149	150	2	150	151	2	151	152	2	152	153	2	153	154	2	154	155	2	155	156	2	156	157	2	157	158	2	158	159	2	159	160	2	160	161	2	161	162	2	162	163	2	163	164	2	164	165	2	165	166	2	166	167	2	167	168	2	168	169	2	169	170	2	170	171	2	171	172	2	172	173	2	173	174	2	174	175	2	175	176	2	176	177	2	177	178	2	178	179	2	179	180	2	180	181	2	181	182	2	182	183	2	183	184	2	184	185	2	185	186	2	186	187	2	187	188	2	188	189	2	189	190	2	190	191	2	191	192	2	192	193	2	193	194	2	194	195	2	195	196	2	196	197	2	197	198	2	198	199	
CELL_TYPES 200
3	3	3	3	3	3	3	3	3	3	3	3	3	3	3	3	3	3	3	3	3	3	3	3	3	3	3	3	3	3	3	3	3	3	3	3	3	3	3	3	3	3	3	3	3	3	3	3	3	3	3	3	3	3	3	3	3	3	3	3	3	3	3	3	3	3	3	3	3	3	3	3	3	3	3	3	3	3	3	3	3	3	3	3	3	3	3	3	3	3	3	3	3	3	3	3	3	3	3	3	3	3	3	3	3	3	3	3	3	3	3	3	3	3	3	3	3	3	3	3	3	3	3	3	3	3	3	3	3	3	3	3	3	3	3	3	3	3	3	3	3	3	3	3	3	3	3	3	3	3	3	3	3	3	3	3	3	3	3	3	3	3	3	3	3	3	3	3	3	3	3	3	3	3	3	3	3	3	3	3	3	3	3	3	3	3	3	3	3	3	3	3	3	3	3	3	3	3	3	3	
POINT_DATA 200

SCALARS Conservative_1 float 1
LOOKUP_TABLE default
-1.224314e-01	-2.062842e-01	-2.105117e-01	-2.167269e-01	-2.244311e-01	-2.255790e-01	-2.171933e-01	-1.948473e-01	-1.539517e-01	-9.005563e-02	-1.058035e-03	1.120276e-01	2.400720e-01	3.429245e-01	3.506724e-01	2.541353e-01	1.407637e-01	7.467636e-02	4.845329e-02	4.313257e-02	5.343753e-02	7.754322e-02	1.120529e-01	1.531042e-01	1.972819e-01	2.427837e-01	2.889886e-01	3.319343e-01	3.610969e-01	3.636981e-01	3.370108e-01	2.946420e-01	2.549622e-01	2.265365e-01	2.071822e-01	1.919643e-01	1.782966e-01	1.660338e-01	1.553561e-01	1.460183e-01	1.374449e-01	1.293346e-01	1.215403e-01	1.141125e-01	1.070836e-01	1.005989e-01	9.479083e-02	8.983419e-02	8.588459e-02	8.309196e-02	8.158002e-02	8.143971e-02	8.272638e-02	8.547086e-02	8.971592e-02	9.543183e-02	1.026284e-01	1.112482e-01	1.212735e-01	1.326308e-01	1.452842e-01	1.591289e-01	1.741682e-01	1.903487e-01	2.074675e-01	2.248282e-01	2.416124e-01	2.574606e-01	2.734986e-01	2.919922e-01	3.165023e-01	3.508328e-01	3.951609e-01	4.392388e-01	4.625994e-01	4.482778e-01	3.991779e-01	3.387274e-01	2.914759e-01	2.636262e-01	2.436401e-01	2.190586e-01	1.876686e-01	1.534840e-01	1.189061e-01	8.354689e-02	4.667823e-02	8.389695e-03	-3.131532e-02	-7.250827e-02	-1.156062e-01	-1.609029e-01	-2.094878e-01	-2.613937e-01	-3.184531e-01	-3.784030e-01	-4.346544e-01	-4.780243e-01	-4.997999e-01	-4.828841e-01	-4.407161e-01	-3.497100e-01	-2.115120e-01	-8.579656e-02	6.894515e-03	7.041702e-02	1.127375e-01	1.430873e-01	1.668013e-01	1.864327e-01	2.031446e-01	2.183560e-01	2.352070e-01	2.554132e-01	2.743597e-01	2.822347e-01	2.740068e-01	2.599580e-01	2.628765e-01	3.005010e-01	3.692332e-01	4.450687e-01	5.007111e-01	5.227395e-01	5.151739e-01	4.910370e-01	4.621084e-01	4.342897e-01	4.090060e-01	3.860335e-01	3.653525e-01	3.471482e-01	3.315238e-01	3.183499e-01	3.072430e-01	2.978674e-01	2.899214e-01	2.833899e-01	2.781930e-01	2.741176e-01	2.707765e-01	2.681094e-01	2.665579e-01	2.659902e-01	2.656288e-01	2.645333e-01	2.617512e-01	2.568538e-01	2.503092e-01	2.429192e-01	2.350240e-01	2.265575e-01	2.170996e-01	2.065407e-01	1.949468e-01	1.823167e-01	1.686786e-01	1.539611e-01	1.382654e-01	1.216671e-01	1.043995e-01	8.675610e-02	6.900490e-02	5.155133e-02	3.467232e-02	1.874272e-02	3.962250e-03	-9.422816e-03	-2.141615e-02	-3.204074e-02	-4.157327e-02	-5.026775e-02	-5.858443e-02	-6.688852e-02	-7.576094e-02	-8.557399e-02	-9.704348e-02	-1.108382e-01	-1.276929e-01	-1.481074e-01	-1.719353e-01	-1.979953e-01	-2.241266e-01	-2.473902e-01	-2.648823e-01	-2.740088e-01	-2.727827e-01	-2.599030e-01	-2.353472e-01	-2.014238e-01	-1.651561e-01	-1.393746e-01	-1.357591e-01	-1.556577e-01	-1.909766e-01	-2.333343e-01	-2.706256e-01	-3.066425e-01	-4.538541e-01	-2.965422e-01	
SCALARS Conservative_2 float 1
LOOKUP_TABLE default
-2.017417e-03	1.946069e-01	2.301462e-01	2.554193e-01	2.789877e-01	2.909499e-01	2.885210e-01	2.658077e-01	2.172120e-01	1.380056e-01	2.728824e-02	-1.089289e-01	-2.556277e-01	-3.730888e-01	-3.923399e-01	-2.960797e-01	-1.725348e-01	-9.694177e-02	-6.491115e-02	-5.622578e-02	-6.567303e-02	-9.128733e-02	-1.288601e-01	-1.736361e-01	-2.214653e-01	-2.699303e-01	-3.180713e-01	-3.621071e-01	-3.920742e-01	-3.954929e-01	-3.692752e-01	-3.265958e-01	-2.860305e-01	-2.566185e-01	-2.363345e-01	-2.201969e-01	-2.055680e-01	-1.923552e-01	-1.807775e-01	-1.705968e-01	-1.612018e-01	-1.522765e-01	-1.436615e-01	-1.354187e-01	-1.275842e-01	-1.203261e-01	-1.137933e-01	-1.081929e-01	-1.037000e-01	-1.004929e-01	-9.871461e-02	-9.847238e-02	-9.982769e-02	-1.028157e-01	-1.074737e-01	-1.137644e-01	-1.216807e-01	-1.311470e-01	-1.421190e-01	-1.545000e-01	-1.682219e-01	-1.831510e-01	-1.992495e-01	-2.164338e-01	-2.344637e-01	-2.526261e-01	-2.700518e-01	-2.863339e-01	-3.025061e-01	-3.207619e-01	-3.444664e-01	-3.772734e-01	-4.193840e-01	-4.610147e-01	-4.824090e-01	-4.670237e-01	-4.174232e-01	-3.560878e-01	-3.068859e-01	-2.760337e-01	-2.522926e-01	-2.232170e-01	-1.863259e-01	-1.454234e-01	-1.028122e-01	-5.793415e-02	-9.807837e-03	4.176925e-02	9.717871e-02	1.570036e-01	2.224071e-01	2.945955e-01	3.763936e-01	4.692699e-01	5.780636e-01	7.006897e-01	8.321252e-01	9.458173e-01	9.975658e-01	9.922819e-01	9.343355e-01	7.909019e-01	5.481418e-01	3.390820e-01	1.802888e-01	7.065836e-02	-4.109630e-03	-5.783801e-02	-9.868687e-02	-1.312618e-01	-1.580540e-01	-1.812795e-01	-2.045547e-01	-2.298741e-01	-2.530001e-01	-2.646189e-01	-2.600412e-01	-2.493766e-01	-2.547727e-01	-2.934413e-01	-3.619406e-01	-4.371365e-01	-4.926946e-01	-5.156296e-01	-5.097761e-01	-4.876887e-01	-4.607505e-01	-4.347196e-01	-4.110173e-01	-3.894688e-01	-3.700574e-01	-3.529590e-01	-3.382799e-01	-3.258930e-01	-3.154486e-01	-3.066180e-01	-2.991256e-01	-2.929503e-01	-2.880370e-01	-2.841795e-01	-2.809989e-01	-2.784052e-01	-2.768363e-01	-2.761903e-01	-2.757180e-01	-2.744689e-01	-2.714635e-01	-2.662940e-01	-2.594397e-01	-2.516844e-01	-2.433638e-01	-2.343802e-01	-2.243108e-01	-2.130104e-01	-2.005439e-01	-1.868829e-01	-1.720330e-01	-1.559198e-01	-1.386001e-01	-1.201731e-01	-1.008462e-01	-8.094950e-02	-6.076553e-02	-4.075964e-02	-2.125128e-02	-2.689689e-03	1.468072e-02	3.055241e-02	4.491584e-02	5.778713e-02	6.949135e-02	8.033683e-02	9.088343e-02	1.016052e-01	1.131909e-01	1.261859e-01	1.414904e-01	1.600241e-01	1.827969e-01	2.105428e-01	2.431479e-01	2.791105e-01	3.155021e-01	3.481935e-01	3.729195e-01	3.858046e-01	3.839349e-01	3.656387e-01	3.314175e-01	2.852913e-01	2.377161e-01	2.060109e-01	2.044879e-01	2.342630e-01	2.852001e-01	3.474245e-01	4.039544e-01	4.620339e-01	6.965617e-01	3.066808e-01	
SCALARS Conservative_3 float 1
LOOKUP_TABLE default
-1.245493e-01	-9.665326e-02	-1.020735e-01	-1.060941e-01	-1.198622e-01	-1.436211e-01	-1.766087e-01	-2.166108e-01	-2.596813e-01	-2.994476e-01	-3.268427e-01	-3.325161e-01	-3.069258e-01	-2.450995e-01	-1.674852e-01	-1.110404e-01	-8.697263e-02	-8.243022e-02	-8.952987e-02	-1.035278e-01	-1.185981e-01	-1.306845e-01	-1.377687e-01	-1.390230e-01	-1.345662e-01	-1.253984e-01	-1.125549e-01	-9.671484e-02	-7.907711e-02	-6.182068e-02	-4.703037e-02	-3.528064e-02	-2.577766e-02	-1.795977e-02	-1.177494e-02	-7.213080e-03	-3.816926e-03	-1.134248e-03	1.162932e-03	3.133324e-03	4.825420e-03	6.195736e-03	7.254209e-03	7.928836e-03	8.206359e-03	8.034140e-03	7.421673e-03	6.375546e-03	4.943164e-03	3.184775e-03	1.182449e-03	-9.752462e-04	-3.186979e-03	-5.339928e-03	-7.335797e-03	-9.052706e-03	-1.039789e-02	-1.126184e-02	-1.156178e-02	-1.119611e-02	-1.009932e-02	-8.190021e-03	-5.412270e-03	-1.681760e-03	3.094380e-03	9.002872e-03	1.599876e-02	2.398819e-02	3.282704e-02	4.282082e-02	5.439505e-02	6.814249e-02	8.489714e-02	1.045763e-01	1.250276e-01	1.428684e-01	1.565559e-01	1.684856e-01	1.828322e-01	2.013929e-01	2.220340e-01	2.417325e-01	2.598461e-01	2.774538e-01	2.951691e-01	3.126220e-01	3.293443e-01	3.451935e-01	3.600396e-01	3.735919e-01	3.854156e-01	3.944931e-01	3.993805e-01	3.967222e-01	3.803844e-01	3.400747e-01	2.559339e-01	1.237167e-01	-2.662911e-02	-1.233193e-01	-2.307793e-01	-4.203570e-01	-5.558296e-01	-5.817863e-01	-5.545154e-01	-5.092796e-01	-4.618249e-01	-4.187535e-01	-3.815224e-01	-3.492793e-01	-3.209926e-01	-2.960303e-01	-2.746510e-01	-2.568474e-01	-2.407350e-01	-2.232023e-01	-2.028880e-01	-1.824426e-01	-1.668890e-01	-1.590585e-01	-1.568674e-01	-1.549732e-01	-1.489665e-01	-1.380097e-01	-1.240968e-01	-1.097885e-01	-9.658154e-02	-8.474171e-02	-7.403605e-02	-6.424485e-02	-5.525916e-02	-4.704546e-02	-3.950667e-02	-3.253677e-02	-2.604171e-02	-1.990400e-02	-1.409769e-02	-8.555409e-03	-3.203888e-03	2.119329e-03	7.474291e-03	1.269564e-02	1.758704e-02	2.252999e-02	2.779243e-02	3.322685e-02	3.880996e-02	4.450121e-02	5.026137e-02	5.608712e-02	6.200708e-02	6.808828e-02	7.429922e-02	8.061866e-02	8.697733e-02	9.334184e-02	9.966971e-02	1.058311e-01	1.117241e-01	1.171851e-01	1.220699e-01	1.262757e-01	1.296358e-01	1.321460e-01	1.337320e-01	1.345151e-01	1.345593e-01	1.341226e-01	1.333736e-01	1.326324e-01	1.320822e-01	1.320037e-01	1.325013e-01	1.337388e-01	1.356857e-01	1.384123e-01	1.417487e-01	1.454455e-01	1.489067e-01	1.509992e-01	1.500783e-01	1.442456e-01	1.319200e-01	1.124687e-01	8.653664e-02	5.606741e-02	2.416848e-02	-4.971022e-03	-2.617118e-02	-3.395497e-02	-2.412562e-02	2.977130e-03	3.906385e-02	7.238068e-02	9.545301e-02	1.070218e-01	1.099894e-01	1.277423e-01	1.110103e-01	-4.542321e-01	
SCALARS Conservative_4 float 1
LOOKUP_TABLE default
1.463814e-02	-4.257564e-02	-4.701319e-02	-5.019756e-02	-5.356078e-02	-5.455281e-02	-5.290247e-02	-4.756274e-02	-3.745784e-02	-2.147288e-02	1.007793e-03	2.980144e-02	6.247892e-02	8.860031e-02	9.048302e-02	6.542012e-02	3.604736e-02	1.928740e-02	1.267638e-02	1.119276e-02	1.371016e-02	1.980452e-02	2.857599e-02	3.901140e-02	5.025288e-02	6.182864e-02	7.349839e-02	8.420647e-02	9.127716e-02	9.163635e-02	8.480383e-02	7.421040e-02	6.434580e-02	5.728164e-02	5.242566e-02	4.857545e-02	4.511668e-02	4.201971e-02	3.932929e-02	3.697220e-02	3.481109e-02	3.276285e-02	3.079891e-02	2.892485e-02	2.715509e-02	2.552083e-02	2.405820e-02	2.281188e-02	2.181948e-02	2.112047e-02	2.074263e-02	2.071138e-02	2.104035e-02	2.174070e-02	2.281693e-02	2.427153e-02	2.609562e-02	2.828520e-02	3.082560e-02	3.370863e-02	3.691395e-02	4.042875e-02	4.423770e-02	4.833954e-02	5.266250e-02	5.705017e-02	6.128523e-02	6.531884e-02	6.941786e-02	7.422257e-02	8.056573e-02	8.934506e-02	1.004501e-01	1.112320e-01	1.166543e-01	1.127057e-01	1.003351e-01	8.533835e-02	7.366195e-02	6.671411e-02	6.162312e-02	5.535407e-02	4.740399e-02	3.878142e-02	3.008918e-02	2.120517e-02	1.196002e-02	2.374910e-03	-7.523895e-03	-1.777839e-02	-2.838283e-02	-3.952229e-02	-5.118042e-02	-6.357475e-02	-7.658763e-02	-8.982492e-02	-1.026344e-01	-1.104126e-01	-1.093217e-01	-1.069757e-01	-1.017854e-01	-7.612837e-02	-4.303437e-02	-1.587903e-02	4.522263e-03	1.865027e-02	2.850219e-02	3.574598e-02	4.158380e-02	4.643974e-02	5.064261e-02	5.445574e-02	5.867641e-02	6.374772e-02	6.857781e-02	7.073664e-02	6.891104e-02	6.551958e-02	6.613919e-02	7.526092e-02	9.219849e-02	1.111647e-01	1.253661e-01	1.312947e-01	1.297547e-01	1.239112e-01	1.167084e-01	1.097083e-01	1.033028e-01	9.748163e-02	9.223345e-02	8.760799e-02	8.363726e-02	8.027826e-02	7.745334e-02	7.505985e-02	7.303726e-02	7.136912e-02	7.004874e-02	6.901363e-02	6.815562e-02	6.745461e-02	6.704819e-02	6.689183e-02	6.677319e-02	6.648244e-02	6.577334e-02	6.453789e-02	6.289040e-02	6.101568e-02	5.903087e-02	5.688582e-02	5.449373e-02	5.181899e-02	4.888015e-02	4.569689e-02	4.225267e-02	3.854381e-02	3.456870e-02	3.037618e-02	2.600840e-02	2.154175e-02	1.704856e-02	1.262347e-02	8.347703e-03	4.305371e-03	5.600356e-04	-2.837067e-03	-5.877689e-03	-8.579408e-03	-1.099595e-02	-1.320751e-02	-1.530573e-02	-1.741818e-02	-1.963739e-02	-2.212133e-02	-2.500814e-02	-2.849026e-02	-3.275533e-02	-3.794968e-02	-4.402195e-02	-5.067896e-02	-5.733367e-02	-6.325665e-02	-6.770519e-02	-7.004352e-02	-6.976390e-02	-6.653049e-02	-6.032677e-02	-5.173518e-02	-4.264004e-02	-3.651468e-02	-3.620444e-02	-4.182456e-02	-5.125415e-02	-6.310649e-02	-7.316656e-02	-8.451501e-02	-1.622484e-01	-7.871208e-02	
SCALARS Surface_Sensitivity float 1
LOOKUP_TABLE default
-7.485320e+02	1.968334e+02	8.366354e+00	6.356810e+00	4.948604e+00	2.891693e+00	2.259224e+00	2.038881e+00	1.772097e+00	1.432421e+00	4.869107e+00	7.835510e+00	-3.402160e+00	-1.425319e+01	-5.930986e+00	5.108935e+00	5.229952e+00	1.127081e+00	-1.644048e-01	2.274964e-01	3.487069e-01	1.170560e-01	-1.045389e-01	2.763110e-01	1.526645e+00	2.008840e+00	7.205189e-03	-2.774474e+00	-3.435065e+00	-1.536082e+00	8.605643e-01	1.775478e+00	1.198342e+00	3.251033e-01	-7.240973e-02	-4.576350e-02	6.562816e-02	8.900471e-02	5.778611e-02	3.136621e-02	2.819943e-02	2.976578e-02	3.112699e-02	2.994038e-02	3.092669e-02	3.109766e-02	3.140299e-02	3.001133e-02	2.831312e-02	2.600010e-02	2.456283e-02	2.287757e-02	2.191455e-02	2.121894e-02	2.139742e-02	2.462547e-02	2.959053e-02	3.186138e-02	2.248493e-02	1.077335e-02	3.394673e-02	1.183935e-01	1.565487e-01	-5.089461e-02	-4.509305e-01	-4.312235e-01	8.300314e-01	3.276518e+00	4.782491e+00	2.986172e+00	-1.342448e+00	-5.738558e+00	-8.299562e+00	-7.585304e+00	-3.365770e+00	2.305216e+00	5.932888e+00	5.446851e+00	2.134300e+00	-7.630764e-01	-1.350610e+00	-4.382300e-01	2.746885e-01	2.846250e-01	8.980574e-02	6.854803e-02	1.612054e-01	2.376752e-01	3.295436e-01	5.223279e-01	8.256723e-01	1.332858e+00	2.324739e+00	3.878910e+00	6.047195e+00	8.769086e+00	7.007217e+00	1.759009e+01	1.212360e+01	-1.104477e+01	3.937842e+01	4.377948e+01	2.739589e+01	1.573457e+01	6.182482e+00	3.043713e+00	1.790584e+00	8.811950e-01	3.357770e-01	-6.967443e-02	-3.077157e-01	1.896600e-02	9.849302e-01	1.492704e+00	1.205344e-01	-3.006526e+00	-5.398338e+00	-4.064286e+00	1.376540e+00	7.874190e+00	1.135220e+01	9.943627e+00	5.045696e+00	-3.237238e-01	-3.916462e+00	-5.297963e+00	-5.281972e+00	-4.772821e+00	-4.214481e+00	-3.659489e+00	-3.098604e+00	-2.558509e+00	-2.084152e+00	-1.680530e+00	-1.325227e+00	-1.020952e+00	-8.466264e-01	-9.117580e-01	-1.026833e+00	-3.499476e-01	2.237732e+00	6.317019e+00	7.971585e+00	4.940721e+00	6.709241e-01	-1.772226e+00	-2.181255e+00	-1.537683e+00	-7.546717e-01	-2.408407e-01	-3.977472e-02	-2.220742e-02	-3.322071e-02	-1.220926e-02	5.633762e-03	-1.482054e-02	-4.984858e-02	-5.835185e-02	-4.373750e-02	-2.517523e-02	-1.777872e-02	-1.955518e-02	-2.140622e-02	-2.493665e-02	-2.590770e-02	-2.601783e-02	-2.195651e-02	-1.937759e-02	-1.417047e-02	-1.430077e-02	-1.503374e-02	-2.012451e-02	-2.662416e-02	-3.545849e-02	-4.100743e-02	-5.633537e-02	-7.949007e-02	-1.222339e-01	-1.829067e-01	-2.504594e-01	-3.035323e-01	-3.296517e-01	-3.054071e-01	-2.326206e-01	-1.192583e-01	2.038291e-02	1.881971e-01	3.617194e-01	5.321069e-01	6.006998e-01	-1.430640e-01	-2.244694e+00	-4.385020e+00	-5.391945e+00	-7.734199e+00	-9.008421e+00	-1.633280e+01	-3.007307e+02	6.212794e+02	4.200380e+02	