# vtk DataFile Version 3.0
vtk output
ASCII
DATASET UNSTRUCTURED_GRID
POINTS 5233 float
9.997500e-01	-3.633229e-05	0.0	9.990000e-01	-1.454639e-04	0.0	9.977600e-01	-3.274154e-04	0.0	9.960200e-01	-5.894302e-04	0.0	9.937800e-01	-9.452990e-04	0.0	9.910500e-01	-1.417132e-03	0.0	9.878400e-01	-2.034228e-03	0.0	9.841300e-01	-2.831525e-03	0.0	9.799500e-01	-3.820551e-03	0.0	9.752800e-01	-4.998472e-03	0.0	9.701500e-01	-6.319846e-03	0.0	9.645400e-01	-7.728270e-03	0.0	9.584700e-01	-9.150956e-03	0.0	9.519400e-01	-1.053452e-02	0.0	9.449600e-01	-1.185203e-02	0.0	9.375400e-01	-1.310775e-02	0.0	9.296900e-01	-1.432812e-02	0.0	9.214000e-01	-1.555022e-02	0.0	9.127000e-01	-1.680040e-02	0.0	9.035800e-01	-1.809909e-02	0.0	8.940600e-01	-1.944986e-02	0.0	8.841500e-01	-2.084827e-02	0.0	8.738500e-01	-2.228641e-02	0.0	8.631800e-01	-2.375248e-02	0.0	8.521600e-01	-2.523605e-02	0.0	8.407700e-01	-2.673406e-02	0.0	8.290500e-01	-2.823735e-02	0.0	8.170100e-01	-2.974207e-02	0.0	8.046400e-01	-3.124742e-02	0.0	7.919700e-01	-3.274778e-02	0.0	7.790100e-01	-3.423993e-02	0.0	7.657800e-01	-3.571931e-02	0.0	7.522800e-01	-3.718346e-02	0.0	7.385200e-01	-3.862860e-02	0.0	7.245300e-01	-4.004895e-02	0.0	7.103200e-01	-4.144095e-02	0.0	6.958900e-01	-4.280209e-02	0.0	6.812700e-01	-4.412720e-02	0.0	6.664700e-01	-4.541330e-02	0.0	6.515000e-01	-4.665759e-02	0.0	6.363800e-01	-4.785671e-02	0.0	6.211300e-01	-4.900768e-02	0.0	6.057600e-01	-5.010852e-02	0.0	5.902800e-01	-5.115748e-02	0.0	5.747100e-01	-5.215234e-02	0.0	5.590600e-01	-5.309177e-02	0.0	5.433600e-01	-5.397343e-02	0.0	5.276100e-01	-5.479695e-02	0.0	5.118400e-01	-5.556042e-02	0.0	4.960500e-01	-5.626356e-02	0.0	4.802700e-01	-5.690476e-02	0.0	4.645100e-01	-5.748338e-02	0.0	4.487800e-01	-5.799872e-02	0.0	4.331100e-01	-5.844944e-02	0.0	4.175000e-01	-5.883511e-02	0.0	4.019700e-01	-5.915461e-02	0.0	3.865400e-01	-5.940689e-02	0.0	3.712300e-01	-5.959088e-02	0.0	3.560400e-01	-5.970565e-02	0.0	3.409900e-01	-5.974995e-02	0.0	3.261100e-01	-5.972258e-02	0.0	3.114000e-01	-5.962235e-02	0.0	2.968700e-01	-5.944787e-02	0.0	2.825500e-01	-5.919808e-02	0.0	2.684500e-01	-5.887171e-02	0.0	2.545700e-01	-5.846717e-02	0.0	2.409400e-01	-5.798370e-02	0.0	2.275700e-01	-5.742016e-02	0.0	2.144700e-01	-5.677540e-02	0.0	2.016600e-01	-5.604894e-02	0.0	1.891400e-01	-5.523929e-02	0.0	1.769300e-01	-5.434626e-02	0.0	1.650400e-01	-5.336927e-02	0.0	1.534900e-01	-5.230880e-02	0.0	1.422900e-01	-5.116486e-02	0.0	1.314400e-01	-4.993645e-02	0.0	1.209500e-01	-4.862362e-02	0.0	1.108500e-01	-4.722949e-02	0.0	1.011300e-01	-4.575215e-02	0.0	9.181000e-02	-4.419404e-02	0.0	8.290000e-02	-4.255658e-02	0.0	7.440000e-02	-4.083942e-02	0.0	6.633000e-02	-3.904641e-02	0.0	5.869000e-02	-3.717750e-02	0.0	5.149000e-02	-3.523498e-02	0.0	4.474000e-02	-3.322163e-02	0.0	3.844000e-02	-3.113736e-02	0.0	3.260000e-02	-2.898519e-02	0.0	2.723000e-02	-2.676897e-02	0.0	2.232000e-02	-2.448381e-02	0.0	1.790000e-02	-2.214369e-02	0.0	1.395000e-02	-1.973785e-02	0.0	1.049000e-02	-1.727738e-02	0.0	7.520000e-03	-1.476296e-02	0.0	5.040000e-03	-1.219435e-02	0.0	3.050000e-03	-9.569420e-03	0.0	1.560000e-03	-6.902152e-03	0.0	5.600000e-04	-4.169825e-03	0.0	6.000000e-05	-1.375787e-03	0.0	0.000000e+00	0.000000e+00	0.0	6.000000e-05	1.262832e-03	0.0	5.600000e-04	3.623023e-03	0.0	1.560000e-03	5.787563e-03	0.0	3.050000e-03	7.807963e-03	0.0	5.040000e-03	9.728782e-03	0.0	7.520000e-03	1.155720e-02	0.0	1.049000e-02	1.330764e-02	0.0	1.395000e-02	1.499004e-02	0.0	1.790000e-02	1.661177e-02	0.0	2.232000e-02	1.817194e-02	0.0	2.723000e-02	1.968324e-02	0.0	3.260000e-02	2.114114e-02	0.0	3.844000e-02	2.255300e-02	0.0	4.474000e-02	2.391990e-02	0.0	5.149000e-02	2.524302e-02	0.0	5.869000e-02	2.652525e-02	0.0	6.633000e-02	2.776724e-02	0.0	7.440000e-02	2.896970e-02	0.0	8.290000e-02	3.013459e-02	0.0	9.181000e-02	3.126102e-02	0.0	1.011300e-01	3.235070e-02	0.0	1.108500e-01	3.340390e-02	0.0	1.209500e-01	3.441989e-02	0.0	1.314400e-01	3.540087e-02	0.0	1.422900e-01	3.634511e-02	0.0	1.534900e-01	3.725285e-02	0.0	1.650400e-01	3.812497e-02	0.0	1.769300e-01	3.896139e-02	0.0	1.891400e-01	3.976125e-02	0.0	2.016600e-01	4.052440e-02	0.0	2.144700e-01	4.124998e-02	0.0	2.275700e-01	4.193815e-02	0.0	2.409400e-01	4.258781e-02	0.0	2.545700e-01	4.319827e-02	0.0	2.684500e-01	4.376866e-02	0.0	2.825500e-01	4.429714e-02	0.0	2.968700e-01	4.478295e-02	0.0	3.114000e-01	4.522463e-02	0.0	3.261100e-01	4.562001e-02	0.0	3.409900e-01	4.596737e-02	0.0	3.560400e-01	4.626492e-02	0.0	3.712300e-01	4.651010e-02	0.0	3.865400e-01	4.670047e-02	0.0	4.019700e-01	4.683369e-02	0.0	4.175000e-01	4.690702e-02	0.0	4.331100e-01	4.691769e-02	0.0	4.487800e-01	4.686296e-02	0.0	4.645100e-01	4.673998e-02	0.0	4.802700e-01	4.654607e-02	0.0	4.960500e-01	4.627856e-02	0.0	5.118400e-01	4.593479e-02	0.0	5.276100e-01	4.551282e-02	0.0	5.433600e-01	4.501022e-02	0.0	5.590600e-01	4.442582e-02	0.0	5.747100e-01	4.375778e-02	0.0	5.902800e-01	4.300599e-02	0.0	6.057600e-01	4.217008e-02	0.0	6.211300e-01	4.125082e-02	0.0	6.363800e-01	4.024911e-02	0.0	6.515000e-01	3.916650e-02	0.0	6.664700e-01	3.800601e-02	0.0	6.812700e-01	3.677165e-02	0.0	6.958900e-01	3.546747e-02	0.0	7.103200e-01	3.409828e-02	0.0	7.245300e-01	3.267173e-02	0.0	7.385200e-01	3.119338e-02	0.0	7.522800e-01	2.967043e-02	0.0	7.657800e-01	2.811310e-02	0.0	7.790100e-01	2.653014e-02	0.0	7.919700e-01	2.492956e-02	0.0	8.046400e-01	2.332228e-02	0.0	8.170100e-01	2.171829e-02	0.0	8.290500e-01	2.013028e-02	0.0	8.407700e-01	1.856531e-02	0.0	8.521600e-01	1.703210e-02	0.0	8.631800e-01	1.554175e-02	0.0	8.738500e-01	1.409502e-02	0.0	8.841500e-01	1.269546e-02	0.0	8.940600e-01	1.134464e-02	0.0	9.035800e-01	1.004119e-02	0.0	9.127000e-01	8.788006e-03	0.0	9.214000e-01	7.595895e-03	0.0	9.296900e-01	6.480827e-03	0.0	9.375400e-01	5.472810e-03	0.0	9.449600e-01	4.599792e-03	0.0	9.519400e-01	3.885777e-03	0.0	9.584700e-01	3.336726e-03	0.0	9.645400e-01	2.933388e-03	0.0	9.701500e-01	2.632778e-03	0.0	9.752800e-01	2.381537e-03	0.0	9.799500e-01	2.129421e-03	0.0	9.841300e-01	1.848048e-03	0.0	9.878400e-01	1.530620e-03	0.0	9.910500e-01	1.194917e-03	0.0	9.937800e-01	8.647277e-04	0.0	9.960200e-01	5.670984e-04	0.0	9.977600e-01	3.232757e-04	0.0	9.990000e-01	1.450863e-04	0.0	9.997500e-01	3.632631e-05	0.0	1.000000e+00	0.000000e+00	0.0	1.984229e+01	2.506660e+00	0.0	1.937166e+01	4.973800e+00	0.0	1.859553e+01	7.362490e+00	0.0	1.752613e+01	9.635070e+00	0.0	1.618034e+01	1.175571e+01	0.0	1.457937e+01	1.369094e+01	0.0	1.274848e+01	1.541027e+01	0.0	1.071654e+01	1.688656e+01	0.0	8.515590e+00	1.809654e+01	0.0	6.180340e+00	1.902113e+01	0.0	3.747630e+00	1.964575e+01	0.0	1.255810e+00	1.996053e+01	0.0	-1.255810e+00	1.996053e+01	0.0	-3.747630e+00	1.964574e+01	0.0	-6.180340e+00	1.902113e+01	0.0	-8.515590e+00	1.809654e+01	0.0	-1.071654e+01	1.688656e+01	0.0	-1.274848e+01	1.541026e+01	0.0	-1.457937e+01	1.369094e+01	0.0	-1.618034e+01	1.175570e+01	0.0	-1.752613e+01	9.635070e+00	0.0	-1.859553e+01	7.362490e+00	0.0	-1.937166e+01	4.973800e+00	0.0	-1.984229e+01	2.506660e+00	0.0	-2.000000e+01	0.000000e+00	0.0	-1.984229e+01	-2.506670e+00	0.0	-1.937166e+01	-4.973800e+00	0.0	-1.859553e+01	-7.362490e+00	0.0	-1.752613e+01	-9.635080e+00	0.0	-1.618034e+01	-1.175571e+01	0.0	-1.457937e+01	-1.369094e+01	0.0	-1.274848e+01	-1.541027e+01	0.0	-1.071653e+01	-1.688656e+01	0.0	-8.515580e+00	-1.809654e+01	0.0	-6.180340e+00	-1.902113e+01	0.0	-3.747620e+00	-1.964575e+01	0.0	-1.255810e+00	-1.996053e+01	0.0	1.255810e+00	-1.996053e+01	0.0	3.747630e+00	-1.964574e+01	0.0	6.180340e+00	-1.902113e+01	0.0	8.515590e+00	-1.809654e+01	0.0	1.071654e+01	-1.688656e+01	0.0	1.274848e+01	-1.541026e+01	0.0	1.457937e+01	-1.369094e+01	0.0	1.618034e+01	-1.175570e+01	0.0	1.752614e+01	-9.635070e+00	0.0	1.859553e+01	-7.362490e+00	0.0	1.937166e+01	-4.973790e+00	0.0	1.984229e+01	-2.506660e+00	0.0	2.000000e+01	0.000000e+00	0.0	6.074671e-02	-4.504712e-02	0.0	6.601914e-01	-5.969986e-02	0.0	4.255350e-01	6.115064e-02	0.0	6.897482e-01	4.932991e-02	0.0	3.791264e-01	-7.355069e-02	0.0	9.994671e-01	-7.273432e-04	0.0	9.985539e-01	-1.330703e-03	0.0	7.738073e-01	-4.705350e-02	0.0	6.898608e-01	-5.681067e-02	0.0	-1.119663e-03	5.516791e-03	0.0	7.467763e-01	-5.045813e-02	0.0	5.833025e-01	5.746777e-02	0.0	9.928139e-01	-3.729936e-03	0.0	9.899328e-01	-4.732521e-03	0.0	5.988795e-01	5.658420e-02	0.0	7.187631e-01	-5.371711e-02	0.0	-1.461478e-03	6.042259e-04	0.0	9.865680e-01	-5.886167e-03	0.0	9.827266e-01	-7.193461e-03	0.0	-1.287799e-03	-6.417735e-03	0.0	6.451091e-01	-6.106049e-02	0.0	8.244722e-01	-3.997185e-02	0.0	7.997342e-01	-4.355554e-02	0.0	3.484775e-01	5.991487e-02	0.0	8.478908e-01	-3.635832e-02	0.0	2.473822e-01	5.547006e-02	0.0	8.699295e-01	-3.273880e-02	0.0	1.046750e-02	1.735295e-02	0.0	8.904821e-01	-2.916855e-02	0.0	7.702252e-02	-4.943969e-02	0.0	9.094765e-01	-2.570103e-02	0.0	-1.757394e-03	-3.179933e-03	0.0	9.424676e-01	-1.898756e-02	0.0	9.268326e-01	-2.233797e-02	0.0	1.796305e-02	-2.726058e-02	0.0	4.257471e-01	-7.294591e-02	0.0	8.590917e-01	-3.454390e-02	0.0	9.563215e-01	-1.552643e-02	0.0	9.784007e-01	-8.675543e-03	0.0	9.683184e-01	-1.198729e-02	0.0	1.582556e-01	-6.343012e-02	0.0	9.001810e-01	-2.742005e-02	0.0	7.604246e-01	-4.877096e-02	0.0	9.971351e-01	-2.085674e-03	0.0	5.990566e-01	-6.477168e-02	0.0	4.414502e-01	-7.258147e-02	0.0	5.363276e-01	-6.877258e-02	0.0	4.730228e-01	-7.161684e-02	0.0	5.046844e-01	-7.034473e-02	0.0	4.888417e-01	-7.101794e-02	0.0	1.249437e-01	-5.887247e-02	0.0	2.785685e-02	-3.271345e-02	0.0	3.945730e-01	-7.343238e-02	0.0	4.622682e-02	-4.034447e-02	0.0	4.101146e-01	-7.323107e-02	0.0	3.187138e-01	-7.318124e-02	0.0	3.486138e-01	-7.354064e-02	0.0	3.351885e-02	-3.531838e-02	0.0	2.895074e-01	-7.247480e-02	0.0	9.348699e-01	-2.066877e-02	0.0	1.467974e-01	-6.200149e-02	0.0	1.946354e-01	-6.713684e-02	0.0	8.579517e-02	-5.150780e-02	0.0	1.045836e-01	-5.538085e-02	0.0	5.678299e-01	-6.691842e-02	0.0	1.700577e-01	-6.476468e-02	0.0	6.145333e-01	-6.359582e-02	0.0	8.804000e-01	-3.094494e-02	0.0	2.268219e-02	-3.002581e-02	0.0	9.952205e-01	-2.866896e-03	0.0	6.753553e-03	-1.864966e-02	0.0	1.849578e-02	2.152402e-02	0.0	9.183629e-01	-2.400972e-02	0.0	9.49625
[...]
POINT_DATA 5233

SCALARS Conservative_1 float 1
LOOKUP_TABLE default
1.199495e+00	1.181094e+00	1.170462e+00	1.163786e+00	1.158980e+00	1.154328e+00	1.147353e+00	1.136482e+00	1.120522e+00	1.099580e+00	1.074892e+00	1.049036e+00	1.026245e+00	1.010283e+00	1.002167e+00	1.000103e+00	1.001073e+00	1.002360e+00	1.002287e+00	1.000277e+00	9.965372e-01	9.916013e-01	9.860311e-01	9.802809e-01	9.746182e-01	9.691521e-01	9.638766e-01	9.587492e-01	9.537088e-01	9.487250e-01	9.437822e-01	9.388388e-01	9.338610e-01	9.288631e-01	9.238914e-01	9.189892e-01	9.141739e-01	9.094466e-01	9.048175e-01	9.002999e-01	8.958922e-01	8.916013e-01	8.874069e-01	8.833213e-01	8.793606e-01	8.755783e-01	8.719657e-01	8.684515e-01	8.648810e-01	8.612592e-01	8.578489e-01	8.550747e-01	8.530516e-01	8.513591e-01	8.490714e-01	8.451981e-01	8.392431e-01	8.317440e-01	8.242147e-01	8.182218e-01	8.144556e-01	8.127303e-01	8.124947e-01	8.132150e-01	8.145938e-01	8.164812e-01	8.188684e-01	8.216965e-01	8.248887e-01	8.283325e-01	8.320338e-01	8.361385e-01	8.408835e-01	8.463463e-01	8.524636e-01	8.590914e-01	8.662832e-01	8.742062e-01	8.829162e-01	8.924510e-01	9.029202e-01	9.143797e-01	9.269747e-01	9.408189e-01	9.560945e-01	9.730688e-01	9.919628e-01	1.013128e+00	1.037039e+00	1.064012e+00	1.094579e+00	1.129233e+00	1.167876e+00	1.210122e+00	1.254333e+00	1.297645e+00	1.331467e+00	1.350882e+00	1.339640e+00	1.308498e+00	1.284574e+00	1.221430e+00	1.099980e+00	1.002605e+00	9.264831e-01	8.703580e-01	8.317346e-01	8.059653e-01	7.883023e-01	7.760440e-01	7.675160e-01	7.615599e-01	7.576335e-01	7.549992e-01	7.532783e-01	7.524805e-01	7.525033e-01	7.531392e-01	7.540816e-01	7.549688e-01	7.557462e-01	7.567369e-01	7.582808e-01	7.603190e-01	7.624657e-01	7.644192e-01	7.661977e-01	7.679253e-01	7.697332e-01	7.717759e-01	7.741924e-01	7.769262e-01	7.795918e-01	7.818047e-01	7.842122e-01	7.896043e-01	8.021635e-01	8.225218e-01	8.430475e-01	8.547668e-01	8.562121e-01	8.510455e-01	8.435830e-01	8.364083e-01	8.302200e-01	8.249329e-01	8.204644e-01	8.173024e-01	8.165993e-01	8.198992e-01	8.277704e-01	8.386430e-01	8.492215e-01	8.572234e-01	8.628739e-01	8.676321e-01	8.727961e-01	8.789196e-01	8.859875e-01	8.936497e-01	9.016501e-01	9.099017e-01	9.184017e-01	9.271404e-01	9.360550e-01	9.451153e-01	9.542662e-01	9.634892e-01	9.727050e-01	9.819096e-01	9.910156e-01	9.999385e-01	1.008613e+00	1.016959e+00	1.024928e+00	1.032504e+00	1.039733e+00	1.046792e+00	1.053934e+00	1.061537e+00	1.069888e+00	1.079080e+00	1.088746e+00	1.098054e+00	1.105797e+00	1.110687e+00	1.111682e+00	1.108450e+00	1.101754e+00	1.093694e+00	1.087223e+00	1.085166e+00	1.089245e+00	1.099347e+00	1.113625e+00	1.130453e+00	1.148619e+00	1.168553e+00	1.192471e+00	1.180838e+00	9.999723e-01	9.999650e-01	9.999463e-01	9.999197e-01	9.998929e-01	9.998615e-01	9.998184e-01	9.997592e-01	9.996924e-01	9.996375e-01	9.996013e-01	9.996138e-01	9.996709e-01	9.997878e-01	9.998883e-01	9.999700e-01	1.000015e+00	1.000043e+00	1.000060e+00	1.000067e+00	1.000071e+00	1.000072e+00	1.000073e+00	1.000075e+00	1.000077e+00	1.000080e+00	1.000085e+00	1.000092e+00	1.000102e+00	1.000116e+00	1.000131e+00	1.000155e+00	1.000175e+00	1.000206e+00	1.000227e+00	1.000244e+00	1.000253e+00	1.000244e+00	1.000236e+00	1.000221e+00	1.000212e+00	1.000192e+00	1.000171e+00	1.000146e+00	1.000119e+00	1.000087e+00	1.000067e+00	1.000051e+00	1.000014e+00	9.999758e-01	9.484033e-01	9.051593e-01	8.308634e-01	9.179522e-01	8.388959e-01	1.182645e+00	1.172999e+00	9.434152e-01	9.143028e-01	1.216957e+00	9.335978e-01	8.698547e-01	1.150630e+00	1.143805e+00	8.744854e-01	9.238063e-01	1.307746e+00	1.134827e+00	1.122573e+00	1.337535e+00	9.007482e-01	9.632231e-01	9.532088e-01	8.612113e-01	9.736371e-01	7.843718e-01	9.845583e-01	8.775906e-01	9.949835e-01	9.212377e-01	1.002334e+00	1.344586e+00	1.008021e+00	1.004837e+00	1.102314e+00	8.537821e-01	9.790580e-01	1.026718e+00	1.106573e+00	1.065713e+00	8.511451e-01	9.992316e-01	9.385246e-01	1.163398e+00	8.881194e-01	8.554304e-01	8.730917e-01	8.592627e-01	8.659613e-01	8.623799e-01	8.717818e-01	1.045894e+00	8.459334e-01	9.813650e-01	8.509074e-01	8.172337e-01	8.242789e-01	1.021994e+00	8.171533e-01	1.005535e+00	8.574319e-01	8.365646e-01	9.094485e-01	8.888266e-01	8.802691e-01	8.455952e-01	8.922368e-01	9.899669e-01	1.072571e+00	1.156716e+00	1.209588e+00	8.212949e-01	1.004109e+00	1.014533e+00	1.087214e+00	1.133816e+00	9.683647e-01	8.227644e-01	8.766145e-01	9.286705e-01	9.482947e-01	8.798917e-01	8.290021e-01	8.841209e-01	9.096848e-01	9.640676e-01	1.248767e+00	1.135232e+00	8.310809e-01	8.408085e-01	1.210890e+00	8.256761e-01	8.986761e-01	8.166007e-01	8.203567e-01	8.569983e-01	9.190107e-01	1.279811e+00	1.318275e+00	8.482919e-01	1.324634e+00	7.912664e-01	7.673625e-01	7.755816e-01	7.642124e-01	8.364767e-01	1.140397e+00	8.366586e-01	8.201160e-01	1.096842e+00	1.104603e+00	1.050275e+00	8.211515e-01	8.261159e-01	8.510724e-01	1.081821e+00	1.065191e+00	7.637036e-01	1.092589e+00	1.105065e+00	1.097259e+00	7.636053e-01	7.651794e-01	7.969409e-01	7.863511e-01	7.717331e-01	8.363496e-01	8.222792e-01	8.432460e-01	7.687617e-01	7.654302e-01	8.865459e-01	7.748319e-01	7.792454e-01	9.017124e-01	8.649835e-01	9.526104e-01	9.350152e-01	9.881263e-01	9.704165e-01	1.021357e+00	1.005288e+00	1.057528e+00	1.036175e+00	1.102510e+00	1.073356e+00	1.101475e+00	1.028914e+00	1.043238e+00	9.968076e-01	1.013479e+00	9.615095e-01	9.793190e-01	9.263898e-01	9.437653e-01	8.939186e-01	9.097254e-01	8.581660e-01	8.799614e-01	7.768199e-01	7.819260e-01	7.702999e-01	7.731955e-01	7.707658e-01	7.670908e-01	8.450249e-01	7.821783e-01	8.326588e-01	9.813850e-01	1.044488e+00	9.581778e-01	8.196197e-01	8.695840e-01	1.053417e+00	8.038959e-01	9.222638e-01	7.636512e-01	7.640661e-01	7.892853e-01	7.636683e-01	1.090830e+00	1.093145e+00	8.134702e-01	1.100167e+00	1.111071e+00	8.545605e-01	8.583497e-01	1.090062e+00	1.206174e+00	1.157935e+00	1.174283e+00	8.964381e-01	1.000586e+00	1.124837e+00	8.267386e-01	1.286507e+00	1.171264e+00	9.341731e-01	8.643370e-01	8.184613e-01	7.765318e-01	1.199367e+00	1.259414e+00	8.232076e-01	9.194232e-01	1.004987e+00	1.200129e+00	8.719841e-01	9.148203e-01	9.481776e-01	1.132388e+00	8.231196e-01	9.783336e-01	9.679753e-01	9.164200e-01	1.317076e+00	8.376704e-01	1.134180e+00	1.042481e+00	8.631964e-01	9.240976e-01	9.058967e-01	8.595962e-01	9.283990e-01	8.462644e-01	9.982614e-01	9.529994e-01	9.558412e-01	8.525971e-01	9.100762e-01	1.017983e+00	7.721334e-01	9.180389e-01	7.763319e-01	1.039738e+00	1.101104e+00	8.611622e-01	8.365977e-01	1.098217e+00	1.046669e+00	1.108833e+00	1.099706e+00	1.094725e+00	7.872038e-01	8.493568e-01	7.847741e-01	7.725491e-01	9.103204e-01	8.418685e-01	9.128975e-01	7.741323e-01	7.877480e-01	1.097510e+00	1.119387e+00	1.053642e+00	8.568085e-01	1.215089e+00	1.145851e+00	1.131811e+00	1.008661e+00	1.133257e+00	1.234255e+00	1.330921e+00	1.315038e+00	1.104076e+00	1.217381e+00	9.557420e-01	1.162438e+00	1.147708e+00	8.375317e-01	8.780318e-01	1.122130e+00	9.888120e-01	8.767965e-01	1.140709e+00	1.332224e+00	8.580363e-01	8.434581e-01	9.731054e-01	7.966756e-01	9.836031e-01	9.937771e-01	9.414593e-01	1.002031e+00	1.007317e+00	1.019008e+00	1.051284e+00	1.028749e+00	1.059182e+00	1.109284e+00	8.780241e-01	9.385567e-01	9.433835e-01	1.154638e+00	8.615175e-01	8.642594e-01	8.675847e-01	1.076587e+00	8.520923e-01	8.558874e-01	8.264245e-01	1.007536e+00	1.009621e+00	1.013032e+00	8.703099e-01	9.054433e-01	8.815929e-01	8.932701e-01	1.076945e+00	1.094049e+00	9.288352e-01	9.336938e-01	8.954734e-01	8.863648e-01	8.853443e-01	8.892362e-01	9.886823e-01	9.714705e-01	1.166250e+00	8.319218e-01	8.390177e-01	8.512866e-01	8.463691e-01	8.338430e-01	8.304143e-01	8.220286e-01	8.218562e-01	8.274840e-01	1.298333e+00	1.267499e+00	7.947543e-01	1.096288e+00	8.474014e-01	8.286798e-01	8.251615e-01	8.255269e-01	1.095536e+00	1.099267e+00	1.075582e+00	8.283945e-01	8.325285e-01	8.503563e-01	1.068133e+00	1.094683e+00	7.789395e-01	7.825540e-01	7.893086e-01	7.916047e-01	7.751885e-01	7.732353e-01	7.724579e-01	9.856194e-01	9.514502e-01	9.429308e-01	9.771615e-01	1.010251e+00	1.060765e+00	1.032692e+00	1.025451e+00	1.002294e+00	9.940563e-01	9.685868e-01	9.600076e-01	9.345011e-01	9.261836e-01	9.023247e-01	8.948438e-01	8.661492e-01	8.579853e-01	8.879275e-01	8.818791e-01	7.824035e-01	7.804137e-01	7.788314e-01	7.775341e-01	8.791884e-01	8.040444e-01	8.162329e-01	9.579076e-01	9.629105e-01	8.710964e-01	8.745510e-01	1.069410e+00	8.320410e-01	7.735578e-01	7.748610e-01	8.287099e-01	8.087399e-01	8.574985e-01	8.625426e-01	1.089391e+00	1.082831e+00	8.973760e-01	9.015961e-01	1.028289e+00	1.297270e+00	8.250504e-01	1.311389e+00	8.533004e-01	8.284149e-01	9.534312e-01	8.800767e-01	1.009016e+00	1.107600e+00	1.101497e+00	1.095669e+00	1.080709e+00	1.116207e+00	1.160473e+00	1.181188e+00	1.152536e+00	1.200646e+00	1.105555e+00	1.283101e+00	9.238109e-01	1.012410e+00	1.130773e+00	8.743920e-01	1.172419e+00	1.221117e+00	9.250458e-01	1.275871e+00	9.296544e-01	1.132618e+00	9.881854e-01	1.191253e+00	8.297584e-01	9.831413e-01	9.204894e-01	1.138698e+00	1.161624e+00	1.095877e+00	8.474011e-01	1.091930e+00	9.112795e-01	1.126092e+00	8.378667e-01	7.979629e-01	8.589006e-01	7.815518e-01	7.922355e-01	1.171367e+00	1.293146e+00	1.184547e+00	9.072519e-01	1.240490e+00	1.055603e+00	9.358641e-01	1.312011e+00	8.692293e-01	8.643324e-01	1.080047e+00	9.811252e-01	1.015227e+00	9.839221e-01	9.189646e-01	1.097632e+00	1.094489e+00	1.049868e+00	1.043138e+00	8.424623e-01	8.060280e-01	7.902605e-01	7.814849e-01	9.116039e-01	9.160042e-01	8.473627e-01	9.410148e-01	7.808406e-01	1.095577e+00	1.136278e+00	1.028361e+00	1.133816e+00	1.249618e+00	1.314782e+00	1.056067e+00	1.185884e+00	1.178072e+00	1.070430e+00	1.121968e+00	8.797258e-01	8.627054e-01	8.444545e-01	9.729479e-01	9.780368e-01	9.930918e-01	9.977104e-01	9.632471e-01	9.490063e-01	1.001904e+00	1.005651e+00	1.030813e+00	1.042030e+00	1.111552e+00	9.439437e-01	9.487005e-01	1.145296e+00	8.666492e-01	8.697632e-01	8.581285e-01	8.609889e-01	1.034305e+00	1.016551e+00	1.022405e+00	8.846245e-01	8.765816e-01	8.835656e-01	8.872066e-01	1.085292e+00	1.099145e+00	9.343671e-01	9.392006e-01	9.127323e-01	9.024293e-01	8.931117e-01	8.909971e-01	8.949356e-01	1.014482e+00	9.959638e-01	9.788272e-01	8.338005e-01	8.398378e-01	8.468327e-01	8.629571e-01	8.573375e-01	8.521767e-01	8.429960e-01	8.390353e-01	8.275099e-01	8.277561e-01	8.355761e-01	8.130190e-01	8.317762e-01	8.299198e-01	1.095801e+00	8.314148e-01	8.347616e-01	8.391516e-01	8.507185e-01	1.070113e+00	7.974238e-01	8.042415e-01	7.945895e-01	7.924520e-01	7.805171e-01	7.806917e-01	7.809443e-01	9.511558e-01	1.063397e+00	1.056579e+00	1.036359e+00	1.029517e+00	1.022549e+00	1.007662e+00	9.999613e-01	9.920109e-01	9.758340e-01	9.676238e-01	9.593916e-01	9.429859e-01	9.348479e-01	9.268512e-01	9.037849e-01	8.672847e-01	8.581176e-01	8.966741e-01	8.902190e-01	8.846425e-01	7.880435e-01	7.860857e-01	7.845543e-01	7.833465e-01	7.824001e-01	8.244438e-01	8.390367e-01	9.582112e-01	9.630921e-01	9.679695e-01	8.731712e-01	8.766122e-01	8.572583e-01	8.795667e-01	7.829880e-01	7.854601e-01	7.884489e-01	8.217372e-01	8.575896e-01	8.635168e-01	8.653968e-01	1.087945e+00	1.082749e+00	1.076694e+00	8.989607e-01	9.030840e-01	9.072927e-01	8.325917e-01	8.301998e-01	1.289734e+00	9.313557e-01	1.129356e+00	1.097575e+00	8.854906e-01	1.261625e+00	1.158942e+00	1.014604e+00	1.019462e+00	1.059545e+00	1.112795e+00	8.414358e-01	1.271138e+00	9.648337e-01	1.206671e+00	1.091492e+00	1.120690e+00	1.171619e+00	9.123859e-01	1.130120e+00	1.185092e+00	1.187807e+00	9.586323e-01	8.765014e-01	1.105599e+00	8.604170e-01	9.435072e-01	8.678764e-01	8.348758e-01	1.101066e+00	8.762587e-01	1.089238e+00	1.086064e+00	9.830096e-01	7.881193e-01	8.012764e-01	1.121494e+00	8.122877e-01	9.883558e-01	1.146626e+00	1.106102e+00	1.143491e+00	1.078593e+00	1.129560e+00	9.260984e-01	1.231689e+00	9.311376e-01	9.351887e-01	1.155255e+00	1.129317e+00	1.181254e+00	1.012674e+00	8.475687e-01	8.355999e-01	1.219082e+00	1.001466e+00	9.206535e-01	1.046590e+00	8.535558e-01	8.182113e-01	8.069041e-01	9.172550e-01	9.222012e-01	1.095411e+00	1.041815e+00	1.085993e+00	1.254679e+00	1.296519e+00	1.081868e+00	1.065936e+00	1.112530e+00	8.835772e-01	9.784121e-01	9.833199e-01	9.931524e-01	9.978148e-01	9.705321e-01	9.564987e-01	1.002175e+00	1.006389e+00	1.010473e+00	1.042336e+00	1.053621e+00	9.491775e-01	9.543210e-01	1.136627e+00	8.698324e-01	8.726150e-01	8.640988e-01	8.662841e-01	1.025275e+00	1.032755e+00	8.919816e-01	8.833535e-01	8.897020e-01	1.090831e+00	1.102299e+00	9.402235e-01	9.454156e-01	9.201377e-01	9.099297e-01	9.008213e-01	8.928028e-01	8.972545e-01	1.039753e+00	1.020559e+00	1.002252e+00	9.855848e-01	8.377574e-01	8.423530e-01	8.483838e-01	8.547342e-01	8.702587e-01	8.644246e-01	8.588973e-01	8.538924e-01	8.493517e-01	8.351399e-01	8.342819e-01	8.453414e-01	8.366685e-01	1.094093e+00	1.092969e+00	8.362186e-01	8.382517e-01	8.417817e-01	8.462956e-01	8.517808e-01	8.212409e-01	8.323274e-01	7.984020e-01	7.962340e-01	7.882316e-01	7.889409e-01	7.901518e-01	7.914087e-01	1.065450e+00	1.059263e+00	1.053000e+00	1.040121e+00	1.033681e+00	1.027197e+00	1.019589e+00	1.006305e+00	9.980610e-01	9.904146e-01	9.748141e-01	9.673898e-01	9.589872e-01	9.516533e-01	9.431605e-01	9.360058e-01	9.275608e-01	8.583059e-01	8.675741e-01	9.059427e-01	8.983731e-01	8.933284e-01	8.873214e-01	7.941549e-01	7.923408e-01	7.907157e-01	7.895457e-01	7.886007e-01	7.881129e-01	8.452099e-01	8.614315e-01	9.637501e-01	9.688389e-01	9.735233e-01	8.759564e-01	8.784709e-01	8.825589e-01	8.815276e-01	9.050572e-01	9.323736e-01	7.931207e-01	7.961507e-01	8.007333e-01	8.059318e-01	8.580491e-01	8.641324e-01	8.675131e-01	8.648281e-01	1.071422e+00	1.081896e+00	1.077036e+00	9.005807e-01	9.052109e-01	9.087336e-01	9.135301e-01	8.417884e-01	8.388129e-01	8.364399e-01	1.148870e+00	1.125320e+00	1.073780e+00	1.177203e+00	1.171829e+00	9.388387e-01	9.392788e-01	1.193850e+00	1.096271e+00	1.235386e+00	1.082688e+00	8.851053e-01	7.964486e-01	1.017733e+00	1.126621e+00	1.234664e+00	1.292107e+00	1.294203e+00	1.281283e+00	1.250765e+00	1.138185e+00	8.461684e-01	1.084448e+00	1.121010e+00	1.027650e+00	9.616933e-01	8.672595e-01	1.115909e+00	1.067188e+00	1.080850e+00	8.720022e-01	8.550415e-01	9.178906e-01	9.781399e-01	8.456377e-01	8.897976e-01	8.611676e-01	1.109661e+00	9.513460e-01	1.165013e+00	1.099676e+00	1.292335e+00	1.182069e+00	1.172830e+00	1.020964e+00	1.063111e+00	1.266589e+00	9.846681e-01	1.215323e+00	1.087134e+00	1.161564e+00	1.176759e+00	1.177804e+00	1.126548e+00	8.408021e-01	8.421520e-01	1.104073e+00	8.859653e-01	1.084352e+00	1.112998e+00	9.301196e-01	1.199794e+00	8.296175e-01	8.176238e-01	8.086736e-01	9.214188e-01	1.052498e+00	1.089356e+00	1.275057e+00	1.105035e+00	9.843285e-01	9.883897e-01	9.936736e-01	9.980443e-01	9.641103e-01	9.782605e-01	1.003087e+00	1.007039e+00	1.011905e+00	1.016909e+00	1.052574e+00	1.063005e+00	9.530437e-01	1.128043e+00	8.729322e-01	8.758626e-01	8.693718e-01	8.718658e-01	1.034930e+00	1.042950e+00	8.991177e-01	8.899581e-01	1.094751e+00	1.104329e+00	9.466943e-01	9.277391e-01	9.168449e-01	9.100122e-01	8.972389e-01	1.044436e+00	1.026067e+00	1.008464e+00	9.931045e-01	8.432174e-01	8.452543e-01	8.507403e-01	8.557454e-01	8.620314e-01	8.771162e-01	8.724313e-01	8.650970e-01	8.612994e-01	8.552734e-01	1.093660e+00	1.091544e+00	1.089480e+00	8.415645e-01	8.432292e-01	8.446946e-01	8.494396e-01	8.534012e-01	8.391498e-01	8.520501e-01	8.055618e-01	8.019665e-01	7.962247e-01	7.996035e-01	8.021449e-01	1.061230e+00	1.055699e+00	1.049549e+00	1.043602e+00	1.037296e+00	1.031224e+00	1.024265e+00	1.014159e+00	1.004555e+00	9.925783e-01	9.630991e-01	9.479597e-01	9.328384e-01	9.043216e-01	8.939670e-01	8.008191e-01	7.982782e-01	7.977588e-01	7.956445e-01	7.959921e-01	7.953377e-01	7.956070e-01	8.670063e-01	8.837908e-01	9.697380e-01	9.741598e-01	9.791159e-01	8.790707e-01	8.831260e-01	9.042834e-01	9.286384e-01	9.549919e-01	8.047326e-01	8.084620e-01	8.141931e-01	8.220631e-01	8.299248e-01	8.600175e-01	8.652002e-01	8.698768e-01	8.686378e-01	1.076951e+00	1.071606e+00	9.049773e-01	9.130261e-01	8.524116e-01	8.475395e-01	8.457711e-01	8.423464e-01	1.165587e+00	1.154280e+00	1.181506e+00	1.254728e+00	1.180399e+00	1.088449e+00	1.106445e+00	1.182992e+00	1.085678e+00	1.140549e+00	1.105581e+00	1.255119e+00	1.083252e+00	1.162081e+00	8.593442e-01	1.177425e+00	1.060172e+00	1.151860e+00	1.142176e+00	1.079400e+00	8.908895e-01	1.101560e+00	8.484865e-01	1.036015e+00	1.025855e+00	9.131725e-01	9.469033e-01	8.886755e-01	1.231181e+00	8.738699e-01	9.727431e-01	9.599496e-01	8.070819e-01	1.093910e+00	1.064706e+00	1.212538e+00	1.030055e+00	1.070196e+00	1.170500e+00	1.097348e+00	1.291149e+00	1.244859e+00	1.113326e+00	9.464138e-01	8.561552e-01	8.487434e-01	1.112037e+00	1.173572e+00	1.129450e+00	1.274972e+00	1.176379e+00	1.065908e+00	1.217035e+00	1.200004e+00	8.848508e-01	1.102743e+00	1.083096e+00	1.079372e+00	8.696521e-01	8.334910e-01	8.156135e-01	9.382483e-01	1.091180e+00	1.122208e+00	1.123147e+00	9.917154e-01	1.000932e+00	9.855021e-01	1.010362e+00	1.018683e+00	1.060938e+00	1.120548e+00	8.777328e-01	1.044044e+00	1.052006e+00	9.021117e-01	1.097183e+00	9.535234e-01	9.608067e-01	9.307537e-01	9.171828e-01	8.977774e-01	1.048508e+00	1.030162e+00	1.013593e+00	1.002121e+00	8.516453e-01	8.600075e-01	8.689415e-01	8.757849e-01	8.648762e-01	1.090999e+00	1.088372e+00	8.508708e-01	8.592975e-01	8.721220e-01	8.080627e-01	8.133484e-01	1.000653e+00	1.054571e+00	1.043146e+00	1.031382e+00	1.020590e+00	1.011000e+00	9.880111e-01	9.739997e-01	9.596080e-01	9.451126e-01	9.304116e-01	9.163179e-01	9.048966e-01	8.959836e-01	8.046675e-01	8.030026e-01	8.033096e-01	8.022715e-01	8.049285e-01	8.889513e-01	9.063451e-01	9.691837e-01	9.771476e-01	9.849491e-01	8.818376e-01	8.856628e-01	9.259596e-01	9.494440e-01	9.749022e-01	1.001265e+00	8.178620e-01	8.221544e-01	8.285512e-01	8.379463e-01	8.496264e-01	8.561675e-01	8.693161e-01	8.724221e-01	1.076712e+00	1.072118e+00	9.053555e-01	9.212659e-01	9.296869e-01	8.563455e-01	8.505504e-01	1.117294e+00	1.165594e+00	1.160710e+00	1.136170e+00	1.027380e+00	1.108217e+00	1.173479e+00	1.135142e+00	1.185826e+00	1.135878e+00	1.147112e+00	1.126320e+00	1.091829e+00	1.193227e+00	1.235448e+00	1.087877e+00	9.536728e-01	8.685015e-01	1.124958e+00	1.018227e+00	1.100520e+00	8.839186e-01	1.065866e+00	1.169930e+00	8.763377e-01	1.044186e+00	9.214191e-01	8.987724e-01	1.083451e+00	1.091268e+00	1.083441e+00	1.068431e+00	1.171129e+00	1.098499e+00	1.102885e+00	1.082127e+00	8.288396e-01	8.964335e-01	9.378806e-01	9.919843e-01	1.150402e+00	1.157096e+00	1.271729e+00	1.075403e+00	1.084854e+00	1.175373e+00	1.098932e+00	1.168604e+00	1.152792e+00	8.927809e-01	1.224810e+00	9.822457e-01	9.670485e-01	1.094544e+00	1.233280e+00	1.067385e+00	1.106236e+00	9.460969e-01	1.254053e+00	1.175790e+00	1.007333e+00	1.213095e+00	1.200253e+00	8.693216e-01	1.118470e+00	1.078532e+00	8.836171e-01	8.492275e-01	9.063155e-01	1.117749e+00	1.142931e+00	9.994287e-01	1.008829e+00	1.026360e+00	1.035101e+00	1.113891e+00	8.808316e-01	1.051712e+00	1.059321e+00	8.693301e-01	9.766241e-01	9.844324e-01	9.608178e-01	9.524932e-01	9.372216e-01	9.223515e-01	1.050675e+00	8.569289e-01	8.614807e-01	9.078029e-01	8.935908e-01	9.295408e-01	1.091059e+00	8.585331e-01	8.555957e-01	8.245407e-01	1.058160e+00	1.048027e+00	1.007499e+00	1.037154e+00	1.026644e+00	1.017032e+00	9.965678e-01	9.839415e-01	9.704575e-01	9.567192e-01	9.426906e-01	9.286346e-01	9.161981e-01	8.174147e-01	8.128265e-01	8.111845e-01	8.113171e-01	8.121192e-01	8.176170e-01	9.094604e-01	9.281655e-01	9.684830e-01	9.915410e-01	8.843470e-01	8.881421e-01	9.465108e-01	9.677577e-01	9.915729e-01	1.015304e+00	1.040058e+00	8.325786e-01	8.391157e-01	8.451786e-01	8.542081e-01	8.671513e-01	8.605373e-01	8.692319e-01	8.746124e-01	1.073570e+00	1.066667e+00	9.059155e-01	9.135636e-01	8.806866e-01	8.700496e-01	8.620963e-01	8.573676e-01	1.152166e+00	1.152462e+00	1.149104e+00	1.121081e+00	1.155629e+00	1.140320e+00	1.113010e+00	1.050913e+00	1.172511e+00	1.120276e+00	1.117556e+00	1.071804e+00	1.165774e+00	1.084277e+00	8.288872e-01	1.137155e+00	1.141143e+00	1.128918e+00	1.169141e+00	1.070173e+00	9.282048e-01	1.028702e+00	1.025839e+00	9.613611e-01	1.132296e+00	1.131876e+00	1.128069e+00	1.171483e+00	1.172426e+00	8.968905e-01	9.