# vtk DataFile Version 3.0
vtk output
ASCII
DATASET UNSTRUCTURED_GRID
POINTS 200 float
9.997500e-01	-3.633229e-05	0.0	9.990000e-01	-1.454639e-04	0.0	9.977600e-01	-3.274154e-04	0.0	9.960200e-01	-5.894302e-04	0.0	9.937800e-01	-9.452990e-04	0.0	9.910500e-01	-1.417132e-03	0.0	9.878400e-01	-2.034228e-03	0.0	9.841300e-01	-2.831525e-03	0.0	9.799500e-01	-3.820551e-03	0.0	9.752800e-01	-4.998472e-03	0.0	9.701500e-01	-6.319846e-03	0.0	9.645400e-01	-7.728270e-03	0.0	9.584700e-01	-9.150956e-03	0.0	9.519400e-01	-1.053452e-02	0.0	9.449600e-01	-1.185203e-02	0.0	9.375400e-01	-1.310775e-02	0.0	9.296900e-01	-1.432812e-02	0.0	9.214000e-01	-1.555022e-02	0.0	9.127000e-01	-1.680040e-02	0.0	9.035800e-01	-1.809909e-02	0.0	8.940600e-01	-1.944986e-02	0.0	8.841500e-01	-2.084827e-02	0.0	8.738500e-01	-2.228641e-02	0.0	8.631800e-01	-2.375248e-02	0.0	8.521600e-01	-2.523605e-02	0.0	8.407700e-01	-2.673406e-02	0.0	8.290500e-01	-2.823735e-02	0.0	8.170100e-01	-2.974207e-02	0.0	8.046400e-01	-3.124742e-02	0.0	7.919700e-01	-3.274778e-02	0.0	7.790100e-01	-3.423993e-02	0.0	7.657800e-01	-3.571931e-02	0.0	7.522800e-01	-3.718346e-02	0.0	7.385200e-01	-3.862860e-02	0.0	7.245300e-01	-4.004895e-02	0.0	7.103200e-01	-4.144095e-02	0.0	6.958900e-01	-4.280209e-02	0.0	6.812700e-01	-4.412720e-02	0.0	6.664700e-01	-4.541330e-02	0.0	6.515000e-01	-4.665759e-02	0.0	6.363800e-01	-4.785671e-02	0.0	6.211300e-01	-4.900768e-02	0.0	6.057600e-01	-5.010852e-02	0.0	5.902800e-01	-5.115748e-02	0.0	5.747100e-01	-5.215234e-02	0.0	5.590600e-01	-5.309177e-02	0.0	5.433600e-01	-5.397343e-02	0.0	5.276100e-01	-5.479695e-02	0.0	5.118400e-01	-5.556042e-02	0.0	4.960500e-01	-5.626356e-02	0.0	4.802700e-01	-5.690476e-02	0.0	4.645100e-01	-5.748338e-02	0.0	4.487800e-01	-5.799872e-02	0.0	4.331100e-01	-5.844944e-02	0.0	4.175000e-01	-5.883511e-02	0.0	4.019700e-01	-5.915461e-02	0.0	3.865400e-01	-5.940689e-02	0.0	3.712300e-01	-5.959088e-02	0.0	3.560400e-01	-5.970565e-02	0.0	3.409900e-01	-5.974995e-02	0.0	3.261100e-01	-5.972258e-02	0.0	3.114000e-01	-5.962235e-02	0.0	2.968700e-01	-5.944787e-02	0.0	2.825500e-01	-5.919808e-02	0.0	2.684500e-01	-5.887171e-02	0.0	2.545700e-01	-5.846717e-02	0.0	2.409400e-01	-5.798370e-02	0.0	2.275700e-01	-5.742016e-02	0.0	2.144700e-01	-5.677540e-02	0.0	2.016600e-01	-5.604894e-02	0.0	1.891400e-01	-5.523929e-02	0.0	1.769300e-01	-5.434626e-02	0.0	1.650400e-01	-5.336927e-02	0.0	1.534900e-01	-5.230880e-02	0.0	1.422900e-01	-5.116486e-02	0.0	1.314400e-01	-4.993645e-02	0.0	1.209500e-01	-4.862362e-02	0.0	1.108500e-01	-4.722949e-02	0.0	1.011300e-01	-4.575215e-02	0.0	9.181000e-02	-4.419404e-02	0.0	8.290000e-02	-4.255658e-02	0.0	7.440000e-02	-4.083942e-02	0.0	6.633000e-02	-3.904641e-02	0.0	5.869000e-02	-3.717750e-02	0.0	5.149000e-02	-3.523498e-02	0.0	4.474000e-02	-3.322163e-02	0.0	3.844000e-02	-3.113736e-02	0.0	3.260000e-02	-2.898519e-02	0.0	2.723000e-02	-2.676897e-02	0.0	2.232000e-02	-2.448381e-02	0.0	1.790000e-02	-2.214369e-02	0.0	1.395000e-02	-1.973785e-02	0.0	1.049000e-02	-1.727738e-02	0.0	7.520000e-03	-1.476296e-02	0.0	5.040000e-03	-1.219435e-02	0.0	3.050000e-03	-9.569420e-03	0.0	1.560000e-03	-6.902152e-03	0.0	5.600000e-04	-4.169825e-03	0.0	6.000000e-05	-1.375787e-03	0.0	0.000000e+00	0.000000e+00	0.0	6.000000e-05	1.262832e-03	0.0	5.600000e-04	3.623023e-03	0.0	1.560000e-03	5.787563e-03	0.0	3.050000e-03	7.807963e-03	0.0	5.040000e-03	9.728782e-03	0.0	7.520000e-03	1.155720e-02	0.0	1.049000e-02	1.330764e-02	0.0	1.395000e-02	1.499004e-02	0.0	1.790000e-02	1.661177e-02	0.0	2.232000e-02	1.817194e-02	0.0	2.723000e-02	1.968324e-02	0.0	3.260000e-02	2.114114e-02	0.0	3.844000e-02	2.255300e-02	0.0	4.474000e-02	2.391990e-02	0.0	5.149000e-02	2.524302e-02	0.0	5.869000e-02	2.652525e-02	0.0	6.633000e-02	2.776724e-02	0.0	7.440000e-02	2.896970e-02	0.0	8.290000e-02	3.013459e-02	0.0	9.181000e-02	3.126102e-02	0.0	1.011300e-01	3.235070e-02	0.0	1.108500e-01	3.340390e-02	0.0	1.209500e-01	3.441989e-02	0.0	1.314400e-01	3.540087e-02	0.0	1.422900e-01	3.634511e-02	0.0	1.534900e-01	3.725285e-02	0.0	1.650400e-01	3.812497e-02	0.0	1.769300e-01	3.896139e-02	0.0	1.891400e-01	3.976125e-02	0.0	2.016600e-01	4.052440e-02	0.0	2.144700e-01	4.124998e-02	0.0	2.275700e-01	4.193815e-02	0.0	2.409400e-01	4.258781e-02	0.0	2.545700e-01	4.319827e-02	0.0	2.684500e-01	4.376866e-02	0.0	2.825500e-01	4.429714e-02	0.0	2.968700e-01	4.478295e-02	0.0	3.114000e-01	4.522463e-02	0.0	3.261100e-01	4.562001e-02	0.0	3.409900e-01	4.596737e-02	0.0	3.560400e-01	4.626492e-02	0.0	3.712300e-01	4.651010e-02	0.0	3.865400e-01	4.670047e-02	0.0	4.019700e-01	4.683369e-02	0.0	4.175000e-01	4.690702e-02	0.0	4.331100e-01	4.691769e-02	0.0	4.487800e-01	4.686296e-02	0.0	4.645100e-01	4.673998e-02	0.0	4.802700e-01	4.654607e-02	0.0	4.960500e-01	4.627856e-02	0.0	5.118400e-01	4.593479e-02	0.0	5.276100e-01	4.551282e-02	0.0	5.433600e-01	4.501022e-02	0.0	5.590600e-01	4.442582e-02	0.0	5.747100e-01	4.375778e-02	0.0	5.902800e-01	4.300599e-02	0.0	6.057600e-01	4.217008e-02	0.0	6.211300e-01	4.125082e-02	0.0	6.363800e-01	4.024911e-02	0.0	6.515000e-01	3.916650e-02	0.0	6.664700e-01	3.800601e-02	0.0	6.812700e-01	3.677165e-02	0.0	6.958900e-01	3.546747e-02	0.0	7.103200e-01	3.409828e-02	0.0	7.245300e-01	3.267173e-02	0.0	7.385200e-01	3.119338e-02	0.0	7.522800e-01	2.967043e-02	0.0	7.657800e-01	2.811310e-02	0.0	7.790100e-01	2.653014e-02	0.0	7.919700e-01	2.492956e-02	0.0	8.046400e-01	2.332228e-02	0.0	8.170100e-01	2.171829e-02	0.0	8.290500e-01	2.013028e-02	0.0	8.407700e-01	1.856531e-02	0.0	8.521600e-01	1.703210e-02	0.0	8.631800e-01	1.554175e-02	0.0	8.738500e-01	1.409502e-02	0.0	8.841500e-01	1.269546e-02	0.0	8.940600e-01	1.134464e-02	0.0	9.035800e-01	1.004119e-02	0.0	9.127000e-01	8.788006e-03	0.0	9.214000e-01	7.595895e-03	0.0	9.296900e-01	6.480827e-03	0.0	9.375400e-01	5.472810e-03	0.0	9.449600e-01	4.599792e-03	0.0	9.519400e-01	3.885777e-03	0.0	9.584700e-01	3.336726e-03	0.0	9.645400e-01	2.933388e-03	0.0	9.701500e-01	2.632778e-03	0.0	9.752800e-01	2.381537e-03	0.0	9.799500e-01	2.129421e-03	0.0	9.841300e-01	1.848048e-03	0.0	9.878400e-01	1.530620e-03	0.0	9.910500e-01	1.194917e-03	0.0	9.937800e-01	8.647277e-04	0.0	9.960200e-01	5.670984e-04	0.0	9.977600e-01	3.232757e-04	0.0	9.990000e-01	1.450863e-04	0.0	9.997500e-01	3.632631e-05	0.0	1.000000e+00	0.000000e+00	0.0	
CELLS 200	600
2	199	0	2	0	1	2	1	2	2	2	3	2	3	4	2	4	5	2	5	6	2	6	7	2	7	8	2	8	9	2	9	10	2	10	11	2	11	12	2	12	13	2	13	14	2	14	15	2	15	16	2	16	17	2	17	18	2	18	19	2	19	20	2	20	21	2	21	22	2	22	23	2	23	24	2	24	25	2	25	26	2	26	27	2	27	28	2	28	29	2	29	30	2	30	31	2	31	32	2	32	33	2	33	34	2	34	35	2	35	36	2	36	37	2	37	38	2	38	39	2	39	40	2	40	41	2	41	42	2	42	43	2	43	44	2	44	45	2	45	46	2	46	47	2	47	48	2	48	49	2	49	50	2	50	51	2	51	52	2	52	53	2	53	54	2	54	55	2	55	56	2	56	57	2	57	58	2	58	59	2	59	60	2	60	61	2	61	62	2	62	63	2	63	64	2	64	65	2	65	66	2	66	67	2	67	68	2	68	69	2	69	70	2	70	71	2	71	72	2	72	73	2	73	74	2	74	75	2	75	76	2	76	77	2	77	78	2	78	79	2	79	80	2	80	81	2	81	82	2	82	83	2	83	84	2	84	85	2	85	86	2	86	87	2	87	88	2	88	89	2	89	90	2	90	91	2	91	92	2	92	93	2	93	94	2	94	95	2	95	96	2	96	97	2	97	98	2	98	99	2	99	100	2	100	101	2	101	102	2	102	103	2	103	104	2	104	105	2	105	106	2	106	107	2	107	108	2	108	109	2	109	110	2	110	111	2	111	112	2	112	113	2	113	114	2	114	115	2	115	116	2	116	117	2	117	118	2	118	119	2	119	120	2	120	121	2	121	122	2	122	123	2	123	124	2	124	125	2	125	126	2	126	127	2	127	128	2	128	129	2	129	130	2	130	131	2	131	132	2	132	133	2	133	134	2	134	135	2	135	136	2	136	137	2	137	138	2	138	139	2	139	140	2	140	141	2	141	142	2	142	143	2	143	144	2	144	145	2	145	146	2	146	147	2	147	148	2	148	149	2	149	150	2	150	151	2	151	152	2	152	153	2	153	154	2	154	155	2	155	156	2	156	157	2	157	158	2	158	159	2	159	160	2	160	161	2	161	162	2	162	163	2	163	164	2	164	165	2	165	166	2	166	167	2	167	168	2	168	169	2	169	170	2	170	171	2	171	172	2	172	173	2	173	174	2	174	175	2	175	176	2	176	177	2	177	178	2	178	179	2	179	180	2	180	181	2	181	182	2	182	183	2	183	184	2	184	185	2	185	186	2	186	187	2	187	188	2	188	189	2	189	190	2	190	191	2	191	192	2	192	193	2	193	194	2	194	195	2	195	196	2	196	197	2	197	198	2	198	199	
CELL_TYPES 200
3	3	3	3	3	3	3	3	3	3	3	3	3	3	3	3	3	3	3	3	3	3	3	3	3	3	3	3	3	3	3	3	3	3	3	3	3	3	3	3	3	3	3	3	3	3	3	3	3	3	3	3	3	3	3	3	3	3	3	3	3	3	3	3	3	3	3	3	3	3	3	3	3	3	3	3	3	3	3	3	3	3	3	3	3	3	3	3	3	3	3	3	3	3	3	3	3	3	3	3	3	3	3	3	3	3	3	3	3	3	3	3	3	3	3	3	3	3	3	3	3	3	3	3	3	3	3	3	3	3	3	3	3	3	3	3	3	3	3	3	3	3	3	3	3	3	3	3	3	3	3	3	3	3	3	3	3	3	3	3	3	3	3	3	3	3	3	3	3	3	3	3	3	3	3	3	3	3	3	3	3	3	3	3	3	3	3	3	3	3	3	3	3	3	3	3	3	3	3	3	
POINT_DATA 200

SCALARS Conservative_1 float 1
LOOKUP_TABLE default
1.199495e+00	1.181094e+00	1.170462e+00	1.163786e+00	1.158980e+00	1.154328e+00	1.147353e+00	1.136482e+00	1.120522e+00	1.099580e+00	1.074892e+00	1.049036e+00	1.026245e+00	1.010283e+00	1.002167e+00	1.000103e+00	1.001073e+00	1.002360e+00	1.002287e+00	1.000277e+00	9.965372e-01	9.916013e-01	9.860311e-01	9.802809e-01	9.746182e-01	9.691521e-01	9.638766e-01	9.587492e-01	9.537088e-01	9.487250e-01	9.437822e-01	9.388388e-01	9.338610e-01	9.288631e-01	9.238914e-01	9.189892e-01	9.141739e-01	9.094466e-01	9.048175e-01	9.002999e-01	8.958922e-01	8.916013e-01	8.874069e-01	8.833213e-01	8.793606e-01	8.755783e-01	8.719657e-01	8.684515e-01	8.648810e-01	8.612592e-01	8.578489e-01	8.550747e-01	8.530516e-01	8.513591e-01	8.490714e-01	8.451981e-01	8.392431e-01	8.317440e-01	8.242147e-01	8.182218e-01	8.144556e-01	8.127303e-01	8.124947e-01	8.132150e-01	8.145938e-01	8.164812e-01	8.188684e-01	8.216965e-01	8.248887e-01	8.283325e-01	8.320338e-01	8.361385e-01	8.408835e-01	8.463463e-01	8.524636e-01	8.590914e-01	8.662832e-01	8.742062e-01	8.829162e-01	8.924510e-01	9.029202e-01	9.143797e-01	9.269747e-01	9.408189e-01	9.560945e-01	9.730688e-01	9.919628e-01	1.013128e+00	1.037039e+00	1.064012e+00	1.094579e+00	1.129233e+00	1.167876e+00	1.210122e+00	1.254333e+00	1.297645e+00	1.331467e+00	1.350882e+00	1.339640e+00	1.308498e+00	1.284574e+00	1.221430e+00	1.099980e+00	1.002605e+00	9.264831e-01	8.703580e-01	8.317346e-01	8.059653e-01	7.883023e-01	7.760440e-01	7.675160e-01	7.615599e-01	7.576335e-01	7.549992e-01	7.532783e-01	7.524805e-01	7.525033e-01	7.531392e-01	7.540816e-01	7.549688e-01	7.557462e-01	7.567369e-01	7.582808e-01	7.603190e-01	7.624657e-01	7.644192e-01	7.661977e-01	7.679253e-01	7.697332e-01	7.717759e-01	7.741924e-01	7.769262e-01	7.795918e-01	7.818047e-01	7.842122e-01	7.896043e-01	8.021635e-01	8.225218e-01	8.430475e-01	8.547668e-01	8.562121e-01	8.510455e-01	8.435830e-01	8.364083e-01	8.302200e-01	8.249329e-01	8.204644e-01	8.173024e-01	8.165993e-01	8.198992e-01	8.277704e-01	8.386430e-01	8.492215e-01	8.572234e-01	8.628739e-01	8.676321e-01	8.727961e-01	8.789196e-01	8.859875e-01	8.936497e-01	9.016501e-01	9.099017e-01	9.184017e-01	9.271404e-01	9.360550e-01	9.451153e-01	9.542662e-01	9.634892e-01	9.727050e-01	9.819096e-01	9.910156e-01	9.999385e-01	1.008613e+00	1.016959e+00	1.024928e+00	1.032504e+00	1.039733e+00	1.046792e+00	1.053934e+00	1.061537e+00	1.069888e+00	1.079080e+00	1.088746e+00	1.098054e+00	1.105797e+00	1.110687e+00	1.111682e+00	1.108450e+00	1.101754e+00	1.093694e+00	1.087223e+00	1.085166e+00	1.089245e+00	1.099347e+00	1.113625e+00	1.130453e+00	1.148619e+00	1.168553e+00	1.192471e+00	1.180838e+00	
SCALARS Conservative_2 float 1
LOOKUP_TABLE default
7.201994e-01	7.467706e-01	7.651401e-01	7.762825e-01	7.825336e-01	7.876271e-01	7.936563e-01	8.033844e-01	8.182391e-01	8.382601e-01	8.617666e-01	8.855309e-01	9.060589e-01	9.210712e-01	9.300130e-01	9.338660e-01	9.346257e-01	9.343164e-01	9.343479e-01	9.353124e-01	9.372617e-01	9.399038e-01	9.428736e-01	9.458899e-01	9.487686e-01	9.514450e-01	9.539122e-01	9.562103e-01	9.583491e-01	9.603599e-01	9.622769e-01	9.640932e-01	9.658219e-01	9.674628e-01	9.690039e-01	9.704328e-01	9.717651e-01	9.729801e-01	9.740892e-01	9.751062e-01	9.760125e-01	9.768417e-01	9.775683e-01	9.782272e-01	9.787859e-01	9.792822e-01	9.796949e-01	9.800752e-01	9.803927e-01	9.806799e-01	9.808720e-01	9.809921e-01	9.810314e-01	9.810625e-01	9.811226e-01	9.812400e-01	9.812946e-01	9.811424e-01	9.806566e-01	9.800401e-01	9.795081e-01	9.791396e-01	9.789667e-01	9.788919e-01	9.789013e-01	9.789048e-01	9.789256e-01	9.788958e-01	9.788275e-01	9.786558e-01	9.783915e-01	9.779801e-01	9.774190e-01	9.766281e-01	9.755930e-01	9.741753e-01	9.723946e-01	9.701555e-01	9.672327e-01	9.634698e-01	9.587796e-01	9.528771e-01	9.455035e-01	9.362539e-01	9.246264e-01	9.099081e-01	8.911921e-01	8.674321e-01	8.370896e-01	7.980535e-01	7.478699e-01	6.834962e-01	6.012224e-01	4.986847e-01	3.755526e-01	2.392288e-01	1.091640e-01	1.137241e-02	-2.154371e-02	5.232368e-03	7.293323e-02	2.104121e-01	4.133306e-01	5.899104e-01	7.149122e-01	7.965539e-01	8.481932e-01	8.810916e-01	9.022826e-01	9.164827e-01	9.263546e-01	9.333241e-01	9.385862e-01	9.426492e-01	9.458620e-01	9.485965e-01	9.509263e-01	9.529437e-01	9.547451e-01	9.562881e-01	9.576427e-01	9.589477e-01	9.602494e-01	9.614665e-01	9.625922e-01	9.635909e-01	9.645050e-01	9.653509e-01	9.661850e-01	9.670301e-01	9.679099e-01	9.687842e-01	9.695798e-01	9.703608e-01	9.713618e-01	9.731067e-01	9.758155e-01	9.780258e-01	9.782973e-01	9.778686e-01	9.777404e-01	9.779447e-01	9.781822e-01	9.782625e-01	9.781241e-01	9.778725e-01	9.775948e-01	9.774886e-01	9.776332e-01	9.781752e-01	9.789151e-01	9.793489e-01	9.791865e-01	9.787651e-01	9.784030e-01	9.780763e-01	9.776697e-01	9.769955e-01	9.760250e-01	9.747238e-01	9.731235e-01	9.712165e-01	9.689905e-01	9.664305e-01	9.635249e-01	9.602758e-01	9.566788e-01	9.527767e-01	9.485034e-01	9.439722e-01	9.391941e-01	9.341896e-01	9.290746e-01	9.239086e-01	9.187424e-01	9.136052e-01	9.084426e-01	9.031397e-01	8.974144e-01	8.909858e-01	8.835319e-01	8.750478e-01	8.659436e-01	8.572590e-01	8.504709e-01	8.470797e-01	8.480482e-01	8.532710e-01	8.613321e-01	8.696623e-01	8.751000e-01	8.751292e-01	8.684972e-01	8.559003e-01	8.379928e-01	8.162374e-01	7.902632e-01	7.590002e-01	7.208730e-01	6.624255e-01	
SCALARS Conservative_3 float 1
LOOKUP_TABLE default
1.010475e-01	1.067413e-01	1.128916e-01	1.196455e-01	1.297723e-01	1.439242e-01	1.617747e-01	1.814721e-01	1.999570e-01	2.134306e-01	2.188300e-01	2.146587e-01	2.019077e-01	1.842666e-01	1.662851e-01	1.514883e-01	1.414458e-01	1.359189e-01	1.335995e-01	1.329115e-01	1.326010e-01	1.319272e-01	1.306104e-01	1.286744e-01	1.262797e-01	1.236180e-01	1.208188e-01	1.179692e-01	1.150959e-01	1.121886e-01	1.092373e-01	1.062232e-01	1.031349e-01	9.996587e-02	9.670214e-02	9.335766e-02	8.992793e-02	8.642974e-02	8.286848e-02	7.925396e-02	7.559842e-02	7.190639e-02	6.819599e-02	6.446680e-02	6.072554e-02	5.696060e-02	5.317517e-02	4.938180e-02	4.560923e-02	4.186162e-02	3.809490e-02	3.424035e-02	3.026643e-02	2.616412e-02	2.199583e-02	1.784449e-02	1.377355e-02	9.723882e-03	5.493571e-03	9.605433e-04	-3.857812e-03	-8.907168e-03	-1.417341e-02	-1.965228e-02	-2.539084e-02	-3.142001e-02	-3.779461e-02	-4.452984e-02	-5.165686e-02	-5.919382e-02	-6.718290e-02	-7.568420e-02	-8.476519e-02	-9.445736e-02	-1.048020e-01	-1.158464e-01	-1.276968e-01	-1.404146e-01	-1.540733e-01	-1.687904e-01	-1.846798e-01	-2.018488e-01	-2.204466e-01	-2.406038e-01	-2.624361e-01	-2.860599e-01	-3.115503e-01	-3.388640e-01	-3.676393e-01	-3.971944e-01	-4.261314e-01	-4.514727e-01	-4.683085e-01	-4.683829e-01	-4.388370e-01	-3.639734e-01	-2.314899e-01	-3.942920e-02	1.844628e-01	3.506050e-01	4.954644e-01	6.605871e-01	7.234447e-01	6.887354e-01	6.120102e-01	5.285490e-01	4.540179e-01	3.919990e-01	3.414336e-01	2.999840e-01	2.659550e-01	2.375814e-01	2.137032e-01	1.933746e-01	1.758635e-01	1.606563e-01	1.473724e-01	1.356659e-01	1.252868e-01	1.159696e-01	1.074963e-01	9.979030e-02	9.281249e-02	8.648864e-02	8.069960e-02	7.528638e-02	7.020264e-02	6.541710e-02	6.092019e-02	5.667497e-02	5.265689e-02	4.886342e-02	4.522305e-02	4.159664e-02	3.777954e-02	3.379879e-02	3.008361e-02	2.759895e-02	2.567911e-02	2.262311e-02	1.863491e-02	1.438528e-02	1.023941e-02	6.300812e-03	2.435469e-03	-1.542011e-03	-5.730955e-03	-1.017832e-02	-1.485714e-02	-1.964882e-02	-2.432967e-02	-2.885131e-02	-3.351442e-02	-3.872600e-02	-4.435654e-02	-5.011709e-02	-5.584141e-02	-6.150802e-02	-6.714862e-02	-7.278097e-02	-7.838103e-02	-8.390599e-02	-8.927219e-02	-9.443965e-02	-9.933970e-02	-1.039449e-01	-1.081792e-01	-1.120026e-01	-1.153573e-01	-1.181985e-01	-1.204869e-01	-1.221892e-01	-1.233098e-01	-1.238760e-01	-1.239610e-01	-1.237096e-01	-1.232933e-01	-1.228859e-01	-1.225580e-01	-1.221537e-01	-1.211624e-01	-1.187259e-01	-1.137738e-01	-1.054604e-01	-9.360765e-02	-7.910873e-02	-6.404994e-02	-5.139911e-02	-4.426054e-02	-4.472153e-02	-5.284815e-02	-6.649078e-02	-8.201815e-02	-9.588574e-02	-1.054991e-01	-1.099671e-01	-1.102884e-01	-1.061535e-01	-1.003431e-01	2.549588e-03	
SCALARS Conservative_4 float 1
LOOKUP_TABLE default
3.445586e+00	3.399533e+00	3.373731e+00	3.357623e+00	3.345896e+00	3.334560e+00	3.317238e+00	3.290167e+00	3.250344e+00	3.198044e+00	3.136276e+00	3.071360e+00	3.013980e+00	2.973776e+00	2.953360e+00	2.948158e+00	2.950552e+00	2.953717e+00	2.953441e+00	2.948258e+00	2.938701e+00	2.926110e+00	2.911895e+00	2.897207e+00	2.882719e+00	2.868714e+00	2.855175e+00	2.842001e+00	2.829031e+00	2.816191e+00	2.803449e+00	2.790689e+00	2.777826e+00	2.764898e+00	2.752022e+00	2.739312e+00	2.726817e+00	2.714534e+00	2.702493e+00	2.690732e+00	2.679241e+00	2.668048e+00	2.657091e+00	2.646413e+00	2.636046e+00	2.626141e+00	2.616668e+00	2.607454e+00	2.598083e+00	2.588578e+00	2.579608e+00	2.572299e+00	2.566945e+00	2.562464e+00	2.556435e+00	2.546265e+00	2.530624e+00	2.510886e+00	2.490988e+00	2.475093e+00	2.465067e+00	2.460443e+00	2.459790e+00	2.461678e+00	2.465330e+00	2.470325e+00	2.476652e+00	2.484137e+00	2.492589e+00	2.501695e+00	2.511479e+00	2.522314e+00	2.534828e+00	2.549211e+00	2.565302e+00	2.582694e+00	2.601550e+00	2.622302e+00	2.645050e+00	2.669877e+00	2.697087e+00	2.726787e+00	2.759344e+00	2.795016e+00	2.834234e+00	2.877632e+00	2.925709e+00	2.979326e+00	3.039613e+00	3.107221e+00	3.183427e+00	3.269340e+00	3.364471e+00	3.467820e+00	3.575234e+00	3.680263e+00	3.761785e+00	3.809687e+00	3.781483e+00	3.703407e+00	3.650410e+00	3.500667e+00	3.192120e+00	2.944534e+00	2.749258e+00	2.604421e+00	2.504478e+00	2.437674e+00	2.391686e+00	2.359641e+00	2.337296e+00	2.321603e+00	2.311258e+00	2.304319e+00	2.299791e+00	2.297739e+00	2.297861e+00	2.299606e+00	2.302182e+00	2.304610e+00	2.306754e+00	2.309488e+00	2.313703e+00	2.319207e+00	2.324992e+00	2.330256e+00	2.335057e+00	2.339719e+00	2.344602e+00	2.350112e+00	2.356617e+00	2.363957e+00	2.371103e+00	2.377074e+00	2.383632e+00	2.398225e+00	2.431855e+00	2.485789e+00	2.539697e+00	2.570355e+00	2.574092e+00	2.560534e+00	2.540972e+00	2.522145e+00	2.505860e+00	2.491919e+00	2.480130e+00	2.471833e+00	2.470064e+00	2.478911e+00	2.499807e+00	2.528508e+00	2.556298e+00	2.577282e+00	2.592129e+00	2.604661e+00	2.618258e+00	2.634327e+00	2.652827e+00	2.672832e+00	2.693678e+00	2.715137e+00	2.737199e+00	2.759837e+00	2.782881e+00	2.806256e+00	2.829811e+00	2.853512e+00	2.877127e+00	2.900676e+00	2.923927e+00	2.946656e+00	2.968717e+00	2.989905e+00	3.010106e+00	3.029280e+00	3.047541e+00	3.065346e+00	3.083309e+00	3.102392e+00	3.123294e+00	3.146259e+00	3.170369e+00	3.193585e+00	3.212939e+00	3.225252e+00	3.227908e+00	3.220020e+00	3.203412e+00	3.183284e+00	3.166977e+00	3.161588e+00	3.171498e+00	3.196564e+00	3.231949e+00	3.273616e+00	3.318308e+00	3.367142e+00	3.426248e+00	3.383070e+00	
SCALARS Pressure float 1
LOOKUP_TABLE default
1.290048e+00	1.263452e+00	1.247279e+00	1.237028e+00	1.229780e+00	1.222751e+00	1.212534e+00	1.196688e+00	1.173500e+00	1.143123e+00	1.107421e+00	1.070257e+00	1.037658e+00	1.014841e+00	1.003215e+00	1.000271e+00	1.001706e+00	1.003622e+00	1.003612e+00	1.000858e+00	9.956492e-01	9.887532e-01	9.809768e-01	9.729636e-01	9.650944e-01	9.575197e-01	9.502309e-01	9.431616e-01	9.362319e-01	9.293956e-01	9.226239e-01	9.158666e-01	9.090771e-01	9.022740e-01	8.955208e-01	8.888770e-01	8.823609e-01	8.759806e-01	8.697463e-01	8.636716e-01	8.577609e-01	8.520131e-01	8.464103e-01	8.409583e-01	8.356891e-01	8.306614e-01	8.258717e-01	8.212109e-01	8.164858e-01	8.116922e-01	8.071975e-01	8.035548e-01	8.009209e-01	7.987197e-01	7.957177e-01	7.905950e-01	7.827262e-01	7.728567e-01	7.630294e-01	7.552646e-01	7.504213e-01	7.482335e-01	7.479569e-01	7.489119e-01	7.507037e-01	7.531603e-01	7.562583e-01	7.599384e-01	7.640897e-01	7.685799e-01	7.734081e-01	7.787788e-01	7.849977e-01	7.921829e-01	8.002426e-01	8.090180e-01	8.185547e-01	8.290829e-01	8.407224e-01	8.535382e-01	8.676612e-01	8.832040e-01	9.003721e-01	9.193576e-01	9.404477e-01	9.640644e-01	9.905818e-01	1.020524e+00	1.054641e+00	1.093519e+00	1.137995e+00	1.188895e+00	1.246329e+00	1.309769e+00	1.376899e+00	1.442867e+00	1.494875e+00	1.523626e+00	1.507444e+00	1.462570e+00	1.421115e+00	1.321564e+00	1.150625e+00	1.013771e+00	9.085167e-01	8.317715e-01	7.792287e-01	7.442942e-01	7.205489e-01	7.041972e-01	6.928738e-01	6.850520e-01	6.798958e-01	6.764343e-01	6.741684e-01	6.730703e-01	6.730381e-01	6.738037e-01	6.749485e-01	6.760230e-01	6.769484e-01	6.781251e-01	6.800065e-01	6.825492e-01	6.852391e-01	6.876878e-01	6.899085e-01	6.920666e-01	6.943213e-01	6.968759e-01	6.999108e-01	7.033642e-01	7.067428e-01	7.095082e-01	7.124542e-01	7.191497e-01	7.351043e-01	7.615447e-01	7.886732e-01	8.042826e-01	8.062520e-01	7.994118e-01	7.895123e-01	7.800134e-01	7.718670e-01	7.649337e-01	7.590806e-01	7.548940e-01	7.538871e-01	7.580690e-01	7.682483e-01	7.824724e-01	7.964465e-01	8.070549e-01	8.145156e-01	8.207694e-01	8.275597e-01	8.356667e-01	8.450706e-01	8.553166e-01	8.660559e-01	8.771747e-01	8.886708e-01	9.005336e-01	9.126839e-01	9.250799e-01	9.376522e-01	9.503642e-01	9.631338e-01	9.759245e-01	9.886244e-01	1.001123e+00	1.013310e+00	1.025070e+00	1.036332e+00	1.047068e+00	1.057346e+00	1.067413e+00	1.077645e+00	1.088578e+00	1.100646e+00	1.113972e+00	1.128022e+00	1.141555e+00	1.152771e+00	1.159767e+00	1.161038e+00	1.156164e+00	1.146334e+00	1.134644e+00	1.125404e+00	1.122671e+00	1.128867e+00	1.143680e+00	1.164664e+00	1.189435e+00	1.216463e+00	1.246331e+00	1.281654e+00	1.278906e+00	
SCALARS Temperature float 1
LOOKUP_TABLE default
1.075492e+00	1.069730e+00	1.065630e+00	1.062935e+00	1.061089e+00	1.059276e+00	1.056811e+00	1.052976e+00	1.047280e+00	1.039600e+00	1.030262e+00	1.020229e+00	1.011121e+00	1.004512e+00	1.001046e+00	1.000168e+00	1.000632e+00	1.001259e+00	1.001321e+00	1.000580e+00	9.991089e-01	9.971278e-01	9.948742e-01	9.925354e-01	9.902282e-01	9.879973e-01	9.858429e-01	9.837418e-01	9.816749e-01	9.796260e-01	9.775814e-01	9.755313e-01	9.734608e-01	9.713746e-01	9.692922e-01	9.672333e-01	9.652002e-01	9.632017e-01	9.612395e-01	9.593155e-01	9.574376e-01	9.555988e-01	9.538018e-01	9.520412e-01	9.503371e-01	9.487003e-01	9.471379e-01	9.456037e-01	9.440441e-01	9.424483e-01	9.409553e-01	9.397481e-01	9.388892e-01	9.381702e-01	9.371623e-01	9.353961e-01	9.326573e-01	9.292002e-01	9.257653e-01	9.230561e-01	9.213778e-01	9.206418e-01	9.205684e-01	9.209273e-01	9.215682e-01	9.224466e-01	9.235407e-01	9.248407e-01	9.262943e-01	9.278641e-01	9.295392e-01	9.313993e-01	9.335392e-01	9.360033e-01	9.387410e-01	9.417134e-01	9.449042e-01	9.483838e-01	9.522108e-01	9.563979e-01	9.609501e-01	9.659051e-01	9.713017e-01	9.771888e-01	9.836347e-01	9.907464e-01	9.986078e-01	1.007301e+00	1.016973e+00	1.027733e+00	1.039664e+00	1.052835e+00	1.067176e+00	1.082344e+00	1.097714e+00	1.111912e+00	1.122728e+00	1.127874e+00	1.125261e+00	1.117748e+00	1.106293e+00	1.081981e+00	1.046042e+00	1.011137e+00	9.806080e-01	9.556659e-01	9.368718e-01	9.234816e-01	9.140515e-01	9.074192e-01	9.027485e-01	8.995379e-01	8.973941e-01	8.959404e-01	8.949791e-01	8.944688e-01	8.943988e-01	8.946602e-01	8.950603e-01	8.954317e-01	8.957351e-01	8.961174e-01	8.967740e-01	8.977142e-01	8.987148e-01	8.996213e-01	9.004315e-01	9.012160e-01	9.020286e-01	9.029511e-01	9.040529e-01	9.053166e-01	9.065549e-01	9.075261e-01	9.084967e-01	9.107723e-01	9.164021e-01	9.258657e-01	9.355026e-01	9.409380e-01	9.416499e-01	9.393292e-01	9.359035e-01	9.325749e-01	9.297137e-01	9.272678e-01	9.251841e-01	9.236409e-01	9.232033e-01	9.245881e-01	9.280934e-01	9.330220e-01	9.378549e-01	9.414755e-01	9.439567e-01	9.459878e-01	9.481707e-01	9.507886e-01	9.538177e-01	9.571050e-01	9.605233e-01	9.640323e-01	9.676276e-01	9.713023e-01	9.750323e-01	9.788012e-01	9.825898e-01	9.863776e-01	9.901602e-01	9.939047e-01	9.975871e-01	1.001185e+00	1.004657e+00	1.007976e+00	1.011127e+00	1.014105e+00	1.016940e+00	1.019699e+00	1.022498e+00	1.025474e+00	1.028749e+00	1.032335e+00	1.036075e+00	1.039616e+00	1.042480e+00	1.044188e+00	1.044397e+00	1.043046e+00	1.040464e+00	1.037442e+00	1.035118e+00	1.034562e+00	1.036375e+00	1.040327e+00	1.045832e+00	1.052176e+00	1.059066e+00	1.066559e+00	1.074788e+00	1.083049e+00	
SCALARS Pressure_Coefficient float 1
LOOKUP_TABLE default
6.474279e-01	5.880615e-01	5.519627e-01	5.290807e-01	5.129025e-01	4.972128e-01	4.744073e-01	4.390361e-01	3.872778e-01	3.194719e-01	2.397785e-01	1.568244e-01	8.405744e-02	3.312809e-02	7.176297e-03	6.045176e-04	3.808184e-03	8.085261e-03	8.062288e-03	1.914324e-03	-9.711607e-03	-2.510442e-02	-4.246242e-02	-6.034920e-02	-7.791418e-02	-9.482215e-02	-1.110918e-01	-1.268714e-01	-1.423395e-01	-1.575990e-01	-1.727145e-01	-1.877977e-01	-2.029529e-01	-2.181383e-01	-2.332126e-01	-2.480425e-01	-2.625873e-01	-2.768291e-01	-2.907448e-01	-3.043044e-01	-3.174981e-01	-3.303279e-01	-3.428341e-01	-3.550038e-01	-3.667655e-01	-3.779879e-01	-3.886792e-01	-3.990828e-01	-4.096298e-01	-4.203299e-01	-4.303627e-01	-4.384937e-01	-4.443729e-01	-4.492864e-01	-4.559873e-01	-4.674219e-01	-4.849861e-01	-5.070163e-01	-5.289523e-01	-5.462843e-01	-5.570953e-01	-5.619789e-01	-5.625961e-01	-5.604645e-01	-5.564649e-01	-5.509815e-01	-5.440663e-01	-5.358517e-01	-5.265854e-01	-5.165627e-01	-5.057856e-01	-4.937973e-01	-4.799159e-01	-4.638774e-01	-4.458871e-01	-4.262992e-01	-4.050119e-01	-3.815113e-01	-3.555304e-01	-3.269236e-01	-2.953991e-01	-2.607054e-01	-2.223836e-01	-1.800053e-01	-1.329293e-01	-8.021340e-02	-2.102268e-02	4.581352e-02	1.219660e-01	2.087487e-01	3.080250e-01	4.216414e-01	5.498417e-01	6.914487e-01	8.412929e-01	9.885417e-01	1.104631e+00	1.168807e+00	1.132687e+00	1.032522e+00	9.399896e-01	7.177770e-01	3.362163e-01	3.073818e-02	-2.042037e-01	-3.755101e-01	-4.927930e-01	-5.707719e-01	-6.237748e-01	-6.602741e-01	-6.855495e-01	-7.030090e-01	-7.145182e-01	-7.222449e-01	-7.273027e-01	-7.297537e-01	-7.298257e-01	-7.281168e-01	-7.255614e-01	-7.231630e-01	-7.210972e-01	-7.184708e-01	-7.142712e-01	-7.085955e-01	-7.025912e-01	-6.971254e-01	-6.921685e-01	-6.873514e-01	-6.823185e-01	-6.766163e-01	-6.698419e-01	-6.621336e-01	-6.545920e-01	-6.484192e-01	-6.418434e-01	-6.268980e-01	-5.912850e-01	-5.322662e-01	-4.717117e-01	-4.368693e-01	-4.324732e-01	-4.477414e-01	-4.698386e-01	-4.910416e-01	-5.092255e-01	-5.247015e-01	-5.377665e-01	-5.471117e-01	-5.493592e-01	-5.400245e-01	-5.173030e-01	-4.855526e-01	-4.543604e-01	-4.306811e-01	-4.140276e-01	-4.000684e-01	-3.849114e-01	-3.668153e-01	-3.458246e-01	-3.229541e-01	-2.989823e-01	-2.741637e-01	-2.485027e-01	-2.220233e-01	-1.949021e-01	-1.672323e-01	-1.391691e-01	-1.107943e-01	-8.229069e-02	-5.373993e-02	-2.539199e-02	2.507153e-03	2.971023e-02	5.595896e-02	8.109880e-02	1.050626e-01	1.280052e-01	1.504753e-01	1.733156e-01	1.977195e-01	2.246561e-01	2.544024e-01	2.857645e-01	3.159702e-01	3.410063e-01	3.566217e-01	3.594599e-01	3.485801e-01	3.266392e-01	3.005443e-01	2.799205e-01	2.738196e-01	2.876490e-01	3.207149e-01	3.675545e-01	4.228459e-01	4.831767e-01	5.498459e-01	6.286924e-01	6.225571e-01	
SCALARS Mach float 1
LOOKUP_TABLE default
4.941055e-01	5.219075e-01	5.409944e-01	5.532577e-01	5.615372e-01	5.695807e-01	5.803804e-01	5.968894e-01	6.208115e-01	6.520700e-01	6.887410e-01	7.267739e-01	7.602629e-01	7.840253e-01	7.963268e-01	7.994282e-01	7.977889e-01	7.955738e-01	7.953539e-01	7.979720e-01	8.031569e-01	8.101090e-01	8.179790e-01	8.261040e-01	8.340791e-01	8.417534e-01	8.491313e-01	8.562962e-01	8.633160e-01	8.702476e-01	8.771386e-01	8.840230e-01	8.909507e-01	8.979069e-01	9.048261e-01	9.116452e-01	9.183567e-01	9.249342e-01	9.313734e-01	9.376694e-01	9.437985e-01	9.497847e-01	9.556204e-01	9.613249e-01	9.668343e-01	9.721152e-01	9.771464e-01	9.820777e-01	9.870815e-01	9.921926e-01	9.969659e-01	1.000820e+00	1.003559e+00	1.005851e+00	1.009059e+00	1.014675e+00	1.023362e+00	1.034296e+00	1.045127e+00	1.053647e+00	1.058915e+00	1.061223e+00	1.061453e+00	1.060328e+00	1.058318e+00	1.055561e+00	1.052124e+00	1.048037e+00	1.043461e+00	1.038513e+00	1.033226e+00	1.027345e+00	1.020567e+00	1.012745e+00	1.004032e+00	9.945430e-01	9.843229e-01	9.731353e-01	9.607760e-01	9.471849e-01	9.323217e-01	9.160321e-01	8.981495e-01	8.784589e-01	8.566606e-01	8.322913e-01	8.049184e-01	7.740494e-01	7.388520e-01	6.984547e-01	6.518103e-01	5.974918e-01	5.338601e-01	4.592815e-01	3.714523e-01	2.690213e-01	1.533216e-01	2.417454e-02	1.104516e-01	2.142188e-01	3.132631e-01	4.611810e-01	6.259268e-01	7.602034e-01	8.669285e-01	9.495664e-01	1.009984e+00	1.052310e+00	1.081834e+00	1.102481e+00	1.116970e+00	1.126907e+00	1.133534e+00	1.138023e+00	1.140990e+00	1.142564e+00	1.142780e+00	1.141974e+00	1.140739e+00	1.139593e+00	1.138656e+00	1.137476e+00	1.135449e+00	1.132545e+00	1.129452e+00	1.126649e+00	1.124143e+00	1.121715e+00	1.119199e+00	1.116342e+00	1.112927e+00	1.109008e+00	1.105165e+00	1.102148e+00	1.099132e+00	1.092053e+00	1.074494e+00	1.044811e+00	1.014336e+00	9.970215e-01	9.947463e-01	1.002157e+00	1.013062e+00	1.023623e+00	1.032675e+00	1.040393e+00	1.046956e+00	1.051809e+00	1.053184e+00	1.048831e+00	1.037790e+00	1.022207e+00	1.006855e+00	9.953037e-01	9.873616e-01	9.808436e-01	9.738215e-01	9.653757e-01	9.555689e-01	9.448824e-01	9.337190e-01	9.222029e-01	9.103409e-01	8.981474e-01	8.856948e-01	8.730306e-01	8.602119e-01	8.473032e-01	8.343137e-01	8.213523e-01	8.085001e-01	7.958370e-01	7.835106e-01	7.716239e-01	7.602406e-01	7.493878e-01	7.389709e-01	7.287488e-01	7.182853e-01	7.070548e-01	6.945620e-01	6.807142e-01	6.660703e-01	6.520030e-01	6.404734e-01	6.335264e-01	6.326712e-01	6.381779e-01	6.486066e-01	6.606666e-01	6.698391e-01	6.720223e-01	6.648875e-01	6.491541e-01	6.267887e-01	6.002912e-01	5.705044e-01	5.367147e-01	4.975680e-01	4.555769e-01	