# vtk DataFile Version 3.0
vtk output
ASCII
DATASET UNSTRUCTURED_GRID
POINTS 5233 float
9.997500e-01	-3.633229e-05	0.0	9.990000e-01	-1.454636e-04	0.0	9.977600e-01	-3.274113e-04	0.0	9.960200e-01	-5.894086e-04	0.0	9.937800e-01	-9.452217e-04	0.0	9.910500e-01	-1.416921e-03	0.0	9.878400e-01	-2.033759e-03	0.0	9.841300e-01	-2.830631e-03	0.0	9.799500e-01	-3.819067e-03	0.0	9.752800e-01	-4.996287e-03	0.0	9.701500e-01	-6.316977e-03	0.0	9.645400e-01	-7.724898e-03	0.0	9.584700e-01	-9.147437e-03	0.0	9.519400e-01	-1.053133e-02	0.0	9.449600e-01	-1.184967e-02	0.0	9.375400e-01	-1.310670e-02	0.0	9.296900e-01	-1.432871e-02	0.0	9.214000e-01	-1.555268e-02	0.0	9.127000e-01	-1.680478e-02	0.0	9.035800e-01	-1.810538e-02	0.0	8.940600e-01	-1.945796e-02	0.0	8.841500e-01	-2.085806e-02	0.0	8.738500e-01	-2.229776e-02	0.0	8.631800e-01	-2.376527e-02	0.0	8.521600e-01	-2.525016e-02	0.0	8.407700e-01	-2.674936e-02	0.0	8.290500e-01	-2.825371e-02	0.0	8.170100e-01	-2.975934e-02	0.0	8.046400e-01	-3.126540e-02	0.0	7.919700e-01	-3.276624e-02	0.0	7.790100e-01	-3.425859e-02	0.0	7.657800e-01	-3.573785e-02	0.0	7.522800e-01	-3.720149e-02	0.0	7.385200e-01	-3.864571e-02	0.0	7.245300e-01	-4.006466e-02	0.0	7.103200e-01	-4.145475e-02	0.0	6.958900e-01	-4.281344e-02	0.0	6.812700e-01	-4.413555e-02	0.0	6.664700e-01	-4.541807e-02	0.0	6.515000e-01	-4.665822e-02	0.0	6.363800e-01	-4.785266e-02	0.0	6.211300e-01	-4.899841e-02	0.0	6.057600e-01	-5.009357e-02	0.0	5.902800e-01	-5.113641e-02	0.0	5.747100e-01	-5.212478e-02	0.0	5.590600e-01	-5.305742e-02	0.0	5.433600e-01	-5.393210e-02	0.0	5.276100e-01	-5.474851e-02	0.0	5.118400e-01	-5.550484e-02	0.0	4.960500e-01	-5.620090e-02	0.0	4.802700e-01	-5.683519e-02	0.0	4.645100e-01	-5.740716e-02	0.0	4.487800e-01	-5.791620e-02	0.0	4.331100e-01	-5.836107e-02	0.0	4.175000e-01	-5.874141e-02	0.0	4.019700e-01	-5.905621e-02	0.0	3.865400e-01	-5.930444e-02	0.0	3.712300e-01	-5.948512e-02	0.0	3.560400e-01	-5.959737e-02	0.0	3.409900e-01	-5.963996e-02	0.0	3.261100e-01	-5.961173e-02	0.0	3.114000e-01	-5.951150e-02	0.0	2.968700e-01	-5.933790e-02	0.0	2.825500e-01	-5.908983e-02	0.0	2.684500e-01	-5.876603e-02	0.0	2.545700e-01	-5.836487e-02	0.0	2.409400e-01	-5.788556e-02	0.0	2.275700e-01	-5.732689e-02	0.0	2.144700e-01	-5.668767e-02	0.0	2.016600e-01	-5.596736e-02	0.0	1.891400e-01	-5.516439e-02	0.0	1.769300e-01	-5.427850e-02	0.0	1.650400e-01	-5.330902e-02	0.0	1.534900e-01	-5.225634e-02	0.0	1.422900e-01	-5.112038e-02	0.0	1.314400e-01	-4.990006e-02	0.0	1.209500e-01	-4.859533e-02	0.0	1.108500e-01	-4.720920e-02	0.0	1.011300e-01	-4.573969e-02	0.0	9.181000e-02	-4.418913e-02	0.0	8.290000e-02	-4.255886e-02	0.0	7.440000e-02	-4.084842e-02	0.0	6.633000e-02	-3.906158e-02	0.0	5.869000e-02	-3.719822e-02	0.0	5.149000e-02	-3.526055e-02	0.0	4.474000e-02	-3.325126e-02	0.0	3.844000e-02	-3.117020e-02	0.0	3.260000e-02	-2.902035e-02	0.0	2.723000e-02	-2.680550e-02	0.0	2.232000e-02	-2.452072e-02	0.0	1.790000e-02	-2.217997e-02	0.0	1.395000e-02	-1.977249e-02	0.0	1.049000e-02	-1.730938e-02	0.0	7.520000e-03	-1.479134e-02	0.0	5.040000e-03	-1.221825e-02	0.0	3.050000e-03	-9.588074e-03	0.0	1.560000e-03	-6.915046e-03	0.0	5.600000e-04	-4.176770e-03	0.0	6.000000e-05	-1.377394e-03	0.0	0.000000e+00	0.000000e+00	0.0	6.000000e-05	1.262518e-03	0.0	5.600000e-04	3.623497e-03	0.0	1.560000e-03	5.791811e-03	0.0	3.050000e-03	7.819417e-03	0.0	5.040000e-03	9.751182e-03	0.0	7.520000e-03	1.159438e-02	0.0	1.049000e-02	1.336346e-02	0.0	1.395000e-02	1.506837e-02	0.0	1.790000e-02	1.671640e-02	0.0	2.232000e-02	1.830640e-02	0.0	2.723000e-02	1.985102e-02	0.0	3.260000e-02	2.134532e-02	0.0	3.844000e-02	2.279648e-02	0.0	4.474000e-02	2.420520e-02	0.0	5.149000e-02	2.557231e-02	0.0	5.869000e-02	2.690031e-02	0.0	6.633000e-02	2.818945e-02	0.0	7.440000e-02	2.943994e-02	0.0	8.290000e-02	3.065336e-02	0.0	9.181000e-02	3.182824e-02	0.0	1.011300e-01	3.296586e-02	0.0	1.108500e-01	3.406598e-02	0.0	1.209500e-01	3.512732e-02	0.0	1.314400e-01	3.615168e-02	0.0	1.422900e-01	3.713675e-02	0.0	1.534900e-01	3.808230e-02	0.0	1.650400e-01	3.898882e-02	0.0	1.769300e-01	3.985577e-02	0.0	1.891400e-01	4.068189e-02	0.0	2.016600e-01	4.146667e-02	0.0	2.144700e-01	4.220892e-02	0.0	2.275700e-01	4.290855e-02	0.0	2.409400e-01	4.356426e-02	0.0	2.545700e-01	4.417517e-02	0.0	2.684500e-01	4.474032e-02	0.0	2.825500e-01	4.525785e-02	0.0	2.968700e-01	4.572700e-02	0.0	3.114000e-01	4.614644e-02	0.0	3.261100e-01	4.651416e-02	0.0	3.409900e-01	4.682868e-02	0.0	3.560400e-01	4.708850e-02	0.0	3.712300e-01	4.729145e-02	0.0	3.865400e-01	4.743555e-02	0.0	4.019700e-01	4.751891e-02	0.0	4.175000e-01	4.753934e-02	0.0	4.331100e-01	4.749468e-02	0.0	4.487800e-01	4.738284e-02	0.0	4.645100e-01	4.720156e-02	0.0	4.802700e-01	4.694889e-02	0.0	4.960500e-01	4.662283e-02	0.0	5.118400e-01	4.622136e-02	0.0	5.276100e-01	4.574325e-02	0.0	5.433600e-01	4.518666e-02	0.0	5.590600e-01	4.455104e-02	0.0	5.747100e-01	4.383504e-02	0.0	5.902800e-01	4.303907e-02	0.0	6.057600e-01	4.216312e-02	0.0	6.211300e-01	4.120830e-02	0.0	6.363800e-01	4.017572e-02	0.0	6.515000e-01	3.906703e-02	0.0	6.664700e-01	3.788532e-02	0.0	6.812700e-01	3.663451e-02	0.0	6.958900e-01	3.531850e-02	0.0	7.103200e-01	3.394185e-02	0.0	7.245300e-01	3.251190e-02	0.0	7.385200e-01	3.103379e-02	0.0	7.522800e-01	2.951430e-02	0.0	7.657800e-01	2.796313e-02	0.0	7.790100e-01	2.638853e-02	0.0	7.919700e-01	2.479802e-02	0.0	8.046400e-01	2.320198e-02	0.0	8.170100e-01	2.160995e-02	0.0	8.290500e-01	2.003416e-02	0.0	8.407700e-01	1.848132e-02	0.0	8.521600e-01	1.695982e-02	0.0	8.631800e-01	1.548051e-02	0.0	8.738500e-01	1.404399e-02	0.0	8.841500e-01	1.265370e-02	0.0	8.940600e-01	1.131117e-02	0.0	9.035800e-01	1.001502e-02	0.0	9.127000e-01	8.768161e-03	0.0	9.214000e-01	7.581448e-03	0.0	9.296900e-01	6.470892e-03	0.0	9.375400e-01	5.466522e-03	0.0	9.449600e-01	4.596322e-03	0.0	9.519400e-01	3.884337e-03	0.0	9.584700e-01	3.336597e-03	0.0	9.645400e-01	2.933964e-03	0.0	9.701500e-01	2.633604e-03	0.0	9.752800e-01	2.382319e-03	0.0	9.799500e-01	2.130018e-03	0.0	9.841300e-01	1.848434e-03	0.0	9.878400e-01	1.530832e-03	0.0	9.910500e-01	1.195015e-03	0.0	9.937800e-01	8.647644e-04	0.0	9.960200e-01	5.671088e-04	0.0	9.977600e-01	3.232776e-04	0.0	9.990000e-01	1.450865e-04	0.0	9.997500e-01	3.632631e-05	0.0	1.000000e+00	0.000000e+00	0.0	1.984229e+01	2.506660e+00	0.0	1.937166e+01	4.973800e+00	0.0	1.859553e+01	7.362490e+00	0.0	1.752613e+01	9.635070e+00	0.0	1.618034e+01	1.175571e+01	0.0	1.457937e+01	1.369094e+01	0.0	1.274848e+01	1.541027e+01	0.0	1.071654e+01	1.688656e+01	0.0	8.515590e+00	1.809654e+01	0.0	6.180340e+00	1.902113e+01	0.0	3.747630e+00	1.964575e+01	0.0	1.255810e+00	1.996053e+01	0.0	-1.255810e+00	1.996053e+01	0.0	-3.747630e+00	1.964574e+01	0.0	-6.180340e+00	1.902113e+01	0.0	-8.515590e+00	1.809654e+01	0.0	-1.071654e+01	1.688656e+01	0.0	-1.274848e+01	1.541026e+01	0.0	-1.457937e+01	1.369094e+01	0.0	-1.618034e+01	1.175570e+01	0.0	-1.752613e+01	9.635070e+00	0.0	-1.859553e+01	7.362490e+00	0.0	-1.937166e+01	4.973800e+00	0.0	-1.984229e+01	2.506660e+00	0.0	-2.000000e+01	0.000000e+00	0.0	-1.984229e+01	-2.506670e+00	0.0	-1.937166e+01	-4.973800e+00	0.0	-1.859553e+01	-7.362490e+00	0.0	-1.752613e+01	-9.635080e+00	0.0	-1.618034e+01	-1.175571e+01	0.0	-1.457937e+01	-1.369094e+01	0.0	-1.274848e+01	-1.541027e+01	0.0	-1.071653e+01	-1.688656e+01	0.0	-8.515580e+00	-1.809654e+01	0.0	-6.180340e+00	-1.902113e+01	0.0	-3.747620e+00	-1.964575e+01	0.0	-1.255810e+00	-1.996053e+01	0.0	1.255810e+00	-1.996053e+01	0.0	3.747630e+00	-1.964574e+01	0.0	6.180340e+00	-1.902113e+01	0.0	8.515590e+00	-1.809654e+01	0.0	1.071654e+01	-1.688656e+01	0.0	1.274848e+01	-1.541026e+01	0.0	1.457937e+01	-1.369094e+01	0.0	1.618034e+01	-1.175570e+01	0.0	1.752614e+01	-9.635070e+00	0.0	1.859553e+01	-7.362490e+00	0.0	1.937166e+01	-4.973790e+00	0.0	1.984229e+01	-2.506660e+00	0.0	2.000000e+01	0.000000e+00	0.0	6.075015e-02	-4.506631e-02	0.0	6.601891e-01	-5.970108e-02	0.0	4.255631e-01	6.175210e-02	0.0	6.897585e-01	4.920034e-02	0.0	3.791261e-01	-7.344904e-02	0.0	9.994671e-01	-7.273250e-04	0.0	9.985539e-01	-1.330668e-03	0.0	7.738072e-01	-4.707080e-02	0.0	6.898592e-01	-5.681898e-02	0.0	-1.126729e-03	5.522190e-03	0.0	7.467757e-01	-5.047427e-02	0.0	5.833288e-01	5.753559e-02	0.0	9.928139e-01	-3.729715e-03	0.0	9.899328e-01	-4.732114e-03	0.0	5.989039e-01	5.661070e-02	0.0	7.187620e-01	-5.373034e-02	0.0	-1.464763e-03	6.038220e-04	0.0	9.865679e-01	-5.885467e-03	0.0	9.827265e-01	-7.192356e-03	0.0	-1.292410e-03	-6.429638e-03	0.0	6.451066e-01	-6.105736e-02	0.0	8.244727e-01	-3.998766e-02	0.0	7.997344e-01	-4.357262e-02	0.0	3.484942e-01	6.074622e-02	0.0	8.478914e-01	-3.637215e-02	0.0	2.473752e-01	5.643128e-02	0.0	8.699301e-01	-3.275008e-02	0.0	1.045222e-02	1.742533e-02	0.0	8.904828e-01	-2.917683e-02	0.0	7.702699e-02	-4.944691e-02	0.0	9.094771e-01	-2.570597e-02	0.0	-1.761327e-03	-3.186462e-03	0.0	9.424678e-01	-1.898641e-02	0.0	9.268329e-01	-2.233955e-02	0.0	1.796201e-02	-2.729772e-02	0.0	4.257456e-01	-7.285664e-02	0.0	8.590923e-01	-3.455651e-02	0.0	9.563214e-01	-1.552386e-02	0.0	9.784006e-01	-8.673948e-03	0.0	9.683182e-01	-1.198478e-02	0.0	1.582618e-01	-6.337647e-02	0.0	9.001816e-01	-2.742669e-02	0.0	7.604243e-01	-4.878787e-02	0.0	9.971351e-01	-2.085611e-03	0.0	5.990535e-01	-6.475256e-02	0.0	4.414484e-01	-7.249749e-02	0.0	5.363244e-01	-6.872734e-02	0.0	4.730204e-01	-7.154477e-02	0.0	5.046815e-01	-7.028579e-02	0.0	4.888390e-01	-7.095232e-02	0.0	1.249498e-01	-5.884252e-02	0.0	2.785717e-02	-3.274991e-02	0.0	3.945722e-01	-7.333421e-02	0.0	4.622911e-02	-4.037300e-02	0.0	4.101134e-01	-7.313704e-02	0.0	3.187155e-01	-7.307332e-02	0.0	3.486145e-01	-7.343425e-02	0.0	3.351983e-02	-3.535308e-02	0.0	2.895102e-01	-7.236871e-02	0.0	9.348702e-01	-2.066886e-02	0.0	1.468037e-01	-6.195564e-02	0.0	1.946412e-01	-6.706149e-02	0.0	8.580007e-02	-5.150826e-02	0.0	1.045892e-01	-5.536658e-02	0.0	5.678266e-01	-6.688668e-02	0.0	1.700639e-01	-6.470345e-02	0.0	6.145304e-01	-6.358248e-02	0.0	8.804007e-01	-3.095478e-02	0.0	2.268183e-02	-3.006309e-02	0.0	9.952204e-01	-2.866779e-03	0.0	6.750610e-03	-1.868065e-02	0.0	1.847667e-02	2.164770e-02	0.0	9.183634e-01	-2.401295e-02	0.0	9.49625
[...]
POINT_DATA 5233

SCALARS Conservative_1 float 1
LOOKUP_TABLE default
5.003865e-02	-1.336186e-01	-1.394663e-01	-1.450276e-01	-1.549773e-01	-1.580668e-01	-1.553013e-01	-1.447027e-01	-1.248088e-01	-9.550973e-02	-5.876235e-02	-1.885823e-02	1.766849e-02	4.423560e-02	5.735834e-02	5.881691e-02	5.423464e-02	4.914889e-02	4.704033e-02	4.874733e-02	5.392202e-02	6.154190e-02	7.048795e-02	7.998063e-02	8.941225e-02	9.860411e-02	1.074998e-01	1.161696e-01	1.248168e-01	1.334906e-01	1.423111e-01	1.512808e-01	1.603335e-01	1.694374e-01	1.785040e-01	1.875193e-01	1.964719e-01	2.054246e-01	2.143053e-01	2.230779e-01	2.316486e-01	2.400191e-01	2.481416e-01	2.560494e-01	2.637238e-01	2.711977e-01	2.784698e-01	2.855793e-01	2.926119e-01	2.996208e-01	3.066162e-01	3.135041e-01	3.200168e-01	3.259412e-01	3.314572e-01	3.370194e-01	3.430874e-01	3.498373e-01	3.572383e-01	3.651236e-01	3.734856e-01	3.822918e-01	3.913982e-01	4.001687e-01	4.073607e-01	4.112288e-01	4.101669e-01	4.034381e-01	3.919570e-01	3.780257e-01	3.643675e-01	3.525602e-01	3.423886e-01	3.321905e-01	3.202919e-01	3.062334e-01	2.904817e-01	2.735638e-01	2.553634e-01	2.356868e-01	2.144072e-01	1.914397e-01	1.666202e-01	1.397141e-01	1.104380e-01	7.855421e-02	4.367576e-02	5.505663e-03	-3.645082e-02	-8.245698e-02	-1.329400e-01	-1.877290e-01	-2.468571e-01	-3.080017e-01	-3.694941e-01	-4.237645e-01	-4.669257e-01	-4.941905e-01	-4.905052e-01	-4.633632e-01	-4.267552e-01	-3.441442e-01	-2.108781e-01	-6.780827e-02	6.174145e-02	1.707420e-01	2.598434e-01	3.233302e-01	3.493294e-01	3.461056e-01	3.440306e-01	3.675568e-01	4.155162e-01	4.684437e-01	5.086248e-01	5.305246e-01	5.373799e-01	5.344500e-01	5.257809e-01	5.137932e-01	4.998375e-01	4.843736e-01	4.677980e-01	4.508025e-01	4.342156e-01	4.186070e-01	4.039868e-01	3.900916e-01	3.767482e-01	3.640024e-01	3.520649e-01	3.410507e-01	3.309948e-01	3.218820e-01	3.135888e-01	3.060467e-01	2.992142e-01	2.932696e-01	2.883420e-01	2.843666e-01	2.809945e-01	2.779797e-01	2.755334e-01	2.740630e-01	2.737839e-01	2.740259e-01	2.735014e-01	2.708634e-01	2.653496e-01	2.572950e-01	2.474912e-01	2.366771e-01	2.250617e-01	2.129641e-01	2.006459e-01	1.880945e-01	1.752734e-01	1.620215e-01	1.483594e-01	1.342644e-01	1.197768e-01	1.050040e-01	8.990786e-02	7.465987e-02	5.919734e-02	4.370509e-02	2.814426e-02	1.273331e-02	-2.572713e-03	-1.759958e-02	-3.240646e-02	-4.680141e-02	-6.078997e-02	-7.416277e-02	-8.700054e-02	-9.911600e-02	-1.107481e-01	-1.221242e-01	-1.336554e-01	-1.458333e-01	-1.590737e-01	-1.733683e-01	-1.882190e-01	-2.023850e-01	-2.143878e-01	-2.226800e-01	-2.262648e-01	-2.250479e-01	-2.203080e-01	-2.148695e-01	-2.127144e-01	-2.176056e-01	-2.313576e-01	-2.531592e-01	-2.811839e-01	-3.167139e-01	-3.473010e-01	-3.787776e-01	-6.177182e-01	-2.948639e-01	-2.017868e-04	-2.017939e-04	-2.007101e-04	-2.002898e-04	-1.990254e-04	-1.948567e-04	-1.836763e-04	-1.643920e-04	-1.266985e-04	-7.756797e-05	5.854659e-06	1.217289e-04	2.425724e-04	3.072456e-04	3.154653e-04	2.967737e-04	2.650412e-04	2.279202e-04	1.887917e-04	1.541017e-04	1.173867e-04	9.791299e-05	1.716253e-04	7.701374e-06	-1.913001e-04	6.713034e-05	1.317836e-04	6.095624e-05	1.117868e-05	8.455240e-06	8.967172e-06	1.748824e-05	3.000963e-05	4.506756e-05	6.043638e-05	6.873460e-05	5.751011e-05	1.411846e-05	-5.249451e-05	-1.053297e-04	-1.479720e-04	-1.779703e-04	-1.948092e-04	-2.040674e-04	-2.070104e-04	-2.067655e-04	-2.062715e-04	-2.055575e-04	-2.019388e-04	-2.027034e-04	1.199980e-01	2.007735e-01	2.763491e-01	1.022798e-01	3.272692e-01	-7.055360e-02	-1.313671e-01	1.299517e-01	1.832564e-01	-3.133177e-01	1.477419e-01	1.972563e-01	-1.599227e-01	-1.585703e-01	1.847740e-01	1.655983e-01	-4.338026e-01	-1.516583e-01	-1.381371e-01	-4.671455e-01	2.093385e-01	9.525996e-02	1.124968e-01	2.854147e-01	7.768356e-02	3.272946e-01	5.952427e-02	1.837508e-01	4.278922e-02	1.713097e-01	3.229439e-02	-4.799144e-01	2.958884e-02	3.130288e-02	-1.394012e-01	3.100475e-01	6.861705e-02	2.555101e-04	-1.175886e-01	-5.939961e-02	3.112867e-01	3.642400e-02	1.388028e-01	-1.459025e-01	2.338379e-01	3.044057e-01	2.636258e-01	2.914759e-01	2.776237e-01	2.845432e-01	2.703194e-01	-5.029162e-02	3.210975e-01	5.992141e-02	3.154563e-01	3.570591e-01	3.412176e-01	-1.051038e-02	3.743555e-01	3.210563e-02	2.997577e-01	3.459496e-01	1.941887e-01	2.350974e-01	2.491044e-01	3.216916e-01	2.258872e-01	5.071841e-02	-9.324062e-02	-1.559088e-01	-2.937379e-01	2.715671e-01	3.076889e-02	1.972191e-02	-9.064112e-02	-2.111138e-01	8.655490e-02	3.882561e-01	2.564453e-01	1.566999e-01	1.211844e-01	2.533225e-01	3.738507e-01	2.415692e-01	1.920520e-01	9.112513e-02	-3.467782e-01	-1.887101e-01	3.340121e-01	3.328481e-01	-2.272857e-03	3.837272e-01	2.154270e-01	3.656898e-01	3.873009e-01	2.982043e-01	1.744302e-01	-3.900130e-01	-4.360629e-01	2.336840e-01	-4.623419e-01	2.927248e-01	4.861012e-01	3.941252e-01	4.664803e-01	2.766244e-01	-3.294281e-01	2.447948e-01	2.705401e-01	-2.014200e-01	-2.056778e-01	-1.157526e-01	2.637769e-01	2.760593e-01	2.796595e-01	-1.654160e-01	-1.394186e-01	5.101836e-01	-1.999891e-01	-2.039903e-01	-1.896936e-01	4.927593e-01	5.057242e-01	3.045902e-01	3.190086e-01	3.939280e-01	2.932007e-01	2.745312e-01	2.776557e-01	4.211294e-01	4.514289e-01	1.587181e-01	3.689514e-01	3.464016e-01	1.311235e-01	2.095591e-01	4.262775e-02	7.262404e-02	-1.606804e-02	1.288311e-02	-6.950980e-02	-4.374599e-02	-1.272940e-01	-9.322254e-02	-1.985674e-01	-1.522310e-01	-2.042484e-01	-8.161728e-02	-1.045132e-01	-3.011638e-02	-5.691564e-02	2.767148e-02	-1.728266e-03	8.751052e-02	5.762363e-02	1.450929e-01	1.168218e-01	2.218131e-01	1.719572e-01	3.572767e-01	3.364163e-01	4.071238e-01	3.812242e-01	4.486367e-01	4.360465e-01	2.456908e-01	3.352461e-01	3.603574e-01	1.367105e-03	-2.752312e-02	1.038872e-01	3.488903e-01	2.706765e-01	-1.015001e-01	2.767905e-01	9.732437e-02	5.030572e-01	5.121778e-01	3.114560e-01	4.804109e-01	-2.031041e-01	-2.131186e-01	2.984509e-01	-2.308385e-01	-2.554650e-01	2.889121e-01	2.823631e-01	-1.782748e-01	-5.928782e-01	-3.819851e-01	-4.921349e-01	2.177231e-01	2.614305e-02	-2.878142e-01	2.549661e-01	-3.954206e-01	-2.406457e-01	1.466455e-01	2.860280e-01	3.820865e-01	4.878340e-01	-2.931753e-01	-3.593489e-01	3.568127e-01	1.629389e-01	1.823224e-02	-2.812759e-01	2.043891e-01	1.715515e-01	1.108037e-01	-1.540612e-01	3.328149e-01	5.948063e-02	7.677915e-02	1.747494e-01	-4.343871e-01	3.431978e-01	-1.890801e-01	-3.579454e-02	2.792934e-01	1.543198e-01	1.886293e-01	2.837774e-01	1.521181e-01	3.059324e-01	2.749732e-02	1.022745e-01	4.571680e-02	2.083407e-01	1.260541e-01	-5.518606e-02	4.618867e-01	1.119177e-01	3.962402e-01	-8.992111e-02	-2.148679e-01	2.887101e-01	2.508431e-01	-1.846735e-01	-1.010242e-01	-2.337194e-01	-1.884433e-01	-1.935654e-01	3.317893e-01	2.926133e-01	3.408648e-01	4.727338e-01	1.801469e-01	3.286593e-01	1.249917e-01	4.223107e-01	4.282480e-01	-1.899038e-01	-2.573396e-01	-1.121728e-01	2.907049e-01	-3.571582e-01	-3.235946e-01	-2.872000e-01	-4.087665e-02	-2.131551e-01	-3.269482e-01	-4.544536e-01	-4.361016e-01	-1.446277e-01	-2.284874e-01	1.016657e-01	-1.554153e-01	-1.610342e-01	2.782310e-01	2.428530e-01	-1.440448e-01	4.231547e-02	1.920884e-01	-1.595502e-01	-4.573314e-01	2.895597e-01	2.790897e-01	6.815881e-02	3.089796e-01	5.077405e-02	3.439687e-02	1.278017e-01	2.206780e-02	1.577807e-02	3.196676e-04	-6.212535e-02	-1.475995e-02	-6.062498e-02	-1.292433e-01	2.505788e-01	1.281493e-01	1.194089e-01	-1.597958e-01	2.773682e-01	2.704936e-01	2.635890e-01	-1.023311e-01	3.002455e-01	2.949112e-01	3.254465e-01	1.040728e-02	1.342830e-02	9.161206e-03	2.660090e-01	1.958432e-01	2.356569e-01	2.130457e-01	-8.607880e-02	-1.095732e-01	1.457059e-01	1.369847e-01	2.154735e-01	2.337059e-01	2.283115e-01	2.207698e-01	4.295843e-02	7.343682e-02	-2.351634e-01	3.185565e-01	3.120757e-01	3.018534e-01	3.143724e-01	3.554927e-01	3.632445e-01	3.489830e-01	3.407595e-01	3.655444e-01	-4.067060e-01	-3.688158e-01	3.763082e-01	-2.012572e-01	2.403226e-01	2.603216e-01	2.683880e-01	2.739687e-01	-1.903978e-01	-1.898418e-01	-1.472572e-01	2.767135e-01	2.776808e-01	2.806085e-01	-1.353429e-01	-1.782244e-01	4.809111e-01	4.625531e-01	3.234439e-01	3.158660e-01	4.089116e-01	4.360954e-01	4.495427e-01	-2.853918e-03	5.406789e-02	6.864779e-02	1.108170e-02	-4.275025e-02	-1.236151e-01	-7.867833e-02	-6.709635e-02	-2.983512e-02	-1.647530e-02	2.521208e-02	3.957972e-02	8.315248e-02	9.762324e-02	1.399081e-01	1.534971e-01	2.168480e-01	2.289969e-01	1.667440e-01	1.795830e-01	3.507503e-01	3.613848e-01	3.726205e-01	3.842441e-01	1.812113e-01	3.141504e-01	2.590071e-01	9.378868e-02	8.531802e-02	2.567760e-01	2.498885e-01	-1.273130e-01	2.256901e-01	4.815544e-01	4.871601e-01	2.973140e-01	3.027980e-01	2.828391e-01	2.855256e-01	-1.694143e-01	-1.588189e-01	2.051049e-01	1.969674e-01	-2.449075e-02	-4.050487e-01	3.628856e-01	-4.291273e-01	2.874370e-01	3.328749e-01	9.654577e-02	2.325505e-01	8.326422e-03	-2.207125e-01	-2.063602e-01	-1.808849e-01	-1.436993e-01	-2.375430e-01	-3.798488e-01	-3.906075e-01	-1.655850e-01	-2.759670e-01	-1.485575e-01	-3.897284e-01	1.550319e-01	3.949583e-03	-1.536146e-01	2.073506e-01	-1.381983e-01	-3.101740e-01	1.471648e-01	-3.792293e-01	1.388276e-01	-1.884051e-01	3.884831e-02	-2.703686e-01	3.111998e-01	4.697268e-02	1.554783e-01	-1.592872e-01	-2.295347e-01	-1.896513e-01	2.422052e-01	-1.720727e-01	1.298674e-01	-2.615969e-01	2.524556e-01	3.107903e-01	2.893041e-01	3.963481e-01	4.529603e-01	-4.035710e-01	-4.045652e-01	-2.822105e-01	1.261021e-01	-3.397052e-01	-5.864981e-02	1.327955e-01	-4.247051e-01	2.588384e-01	2.662296e-01	-1.096309e-01	6.418410e-03	-4.697152e-02	4.100035e-03	1.160113e-01	-1.961455e-01	-1.773113e-01	-1.032594e-01	-9.237412e-02	2.938076e-01	3.044950e-01	3.339740e-01	4.519270e-01	1.721563e-01	1.638858e-01	3.117052e-01	7.504759e-02	4.084354e-01	-1.857911e-01	-2.863969e-01	-6.884206e-02	-2.158995e-01	-3.469703e-01	-4.360393e-01	-7.224700e-02	-1.560610e-01	-1.390886e-01	-7.958176e-02	-1.450096e-01	1.947803e-01	2.719011e-01	2.773013e-01	6.372463e-02	5.528999e-02	3.115054e-02	2.409994e-02	8.363928e-02	1.090196e-01	1.791487e-02	1.286385e-02	-2.238537e-02	-3.900468e-02	-1.333114e-01	1.135216e-01	1.050083e-01	-1.634196e-01	2.598470e-01	2.529102e-01	2.821546e-01	2.771047e-01	-3.725848e-02	-1.554576e-03	-9.936244e-03	2.303965e-01	2.456450e-01	2.256472e-01	2.185272e-01	-9.986683e-02	-1.181887e-01	1.306993e-01	1.221904e-01	1.759649e-01	1.956206e-01	2.137886e-01	2.112943e-01	2.038209e-01	-4.338276e-03	2.701656e-02	5.648129e-02	3.048235e-01	2.988193e-01	2.930599e-01	2.707005e-01	2.830807e-01	2.968840e-01	3.255932e-01	3.362047e-01	3.255317e-01	3.181703e-01	3.419445e-01	3.517134e-01	2.617287e-01	2.691095e-01	-1.833551e-01	2.733476e-01	2.752580e-01	2.763184e-01	2.785811e-01	-1.359169e-01	4.340898e-01	4.009887e-01	3.177866e-01	3.255620e-01	4.206838e-01	4.324059e-01	4.428481e-01	5.962947e-02	-1.250658e-01	-1.141067e-01	-8.143239e-02	-7.024420e-02	-5.884205e-02	-3.473083e-02	-2.188957e-02	-8.919955e-03	1.775193e-02	3.144546e-02	4.555723e-02	7.388790e-02	8.795530e-02	1.021181e-01	1.433695e-01	2.199288e-01	2.313317e-01	1.566904e-01	1.695739e-01	1.822815e-01	3.430738e-01	3.527603e-01	3.630309e-01	3.736683e-01	3.846653e-01	2.911646e-01	2.319709e-01	8.838158e-02	8.016365e-02	7.198570e-02	2.461235e-01	2.393593e-01	1.873705e-01	1.577921e-01	4.590652e-01	4.629540e-01	4.616550e-01	2.988779e-01	2.803649e-01	2.826132e-01	2.855028e-01	-1.650495e-01	-1.563913e-01	-1.465912e-01	1.962201e-01	1.883603e-01	1.803758e-01	3.426125e-01	3.390392e-01	-3.966497e-01	1.358395e-01	-2.580870e-01	-1.918026e-01	2.200307e-01	-3.606473e-01	-1.667828e-01	-1.507242e-03	-8.135086e-03	-8.089891e-02	-2.247949e-01	2.489649e-01	-3.751838e-01	3.571922e-02	-2.925334e-01	-1.732623e-01	-2.404839e-01	-2.666984e-01	1.304809e-01	-2.106607e-01	-3.054534e-01	-2.329528e-01	8.663224e-02	2.394461e-01	-1.503744e-01	2.721551e-01	1.140537e-01	2.574173e-01	3.116946e-01	-2.000468e-01	2.065953e-01	-1.684831e-01	-1.625917e-01	6.780020e-03	3.934513e-01	3.093718e-01	-1.465694e-01	4.010058e-01	3.805719e-02	-3.021441e-01	-2.109982e-01	-1.671380e-01	-9.267660e-02	-1.860137e-01	1.439874e-01	-3.246315e-01	1.349653e-01	1.280167e-01	-2.219024e-01	-1.548238e-01	-2.581329e-01	-4.233184e-02	2.411835e-01	2.915354e-01	-3.168075e-01	-2.363776e-02	1.156072e-01	-9.749976e-02	2.866072e-01	2.969291e-01	3.027813e-01	1.604686e-01	1.513400e-01	-1.856186e-01	-8.678280e-02	-1.498023e-01	-3.531295e-01	-4.133358e-01	-1.146217e-01	-7.516631e-02	-1.364670e-01	1.925533e-01	5.421464e-02	4.597198e-02	3.024019e-02	2.303903e-02	6.628459e-02	9.086822e-02	1.626685e-02	1.048652e-02	4.818823e-03	-4.138133e-02	-5.766982e-02	1.034268e-01	9.419875e-02	-1.615110e-01	2.521127e-01	2.457786e-01	2.672842e-01	2.623740e-01	-1.649519e-02	-2.745213e-02	2.104965e-01	2.261009e-01	2.120832e-01	-1.092859e-01	-1.241279e-01	1.199901e-01	1.107077e-01	1.565669e-01	1.763607e-01	1.942721e-01	2.061854e-01	1.979572e-01	-4.894963e-02	-1.782583e-02	1.234082e-02	4.023947e-02	2.931732e-01	2.877840e-01	2.826011e-01	2.774825e-01	2.521901e-01	2.659334e-01	2.806122e-01	2.953204e-01	3.081063e-01	2.990394e-01	3.052637e-01	3.170284e-01	2.585545e-01	-1.810643e-01	-1.772602e-01	2.645011e-01	2.676883e-01	2.696552e-01	2.710587e-01	2.724285e-01	3.677979e-01	3.196672e-01	3.166785e-01	3.246964e-01	4.042540e-01	4.144830e-01	4.228697e-01	4.299487e-01	-1.281387e-01	-1.180615e-01	-1.078926e-01	-8.703548e-02	-7.623351e-02	-6.534726e-02	-5.356648e-02	-3.115140e-02	-1.728986e-02	-5.363941e-03	2.085280e-02	3.361493e-02	4.824303e-02	6.096783e-02	7.580087e-02	8.834710e-02	1.033369e-01	2.286048e-01	2.193134e-01	1.421851e-01	1.567338e-01	1.680100e-01	1.823205e-01	3.332103e-01	3.422154e-01	3.516956e-01	3.616848e-01	3.717216e-01	3.825865e-01	2.616407e-01	2.038345e-01	7.845174e-02	7.001819e-02	6.229271e-02	2.386386e-01	2.335022e-01	2.256484e-01	1.556469e-01	1.184247e-01	8.282024e-02	4.350480e-01	4.369670e-01	4.333473e-01	4.217729e-01	2.739303e-01	2.759516e-01	2.783048e-01	2.820482e-01	-1.379164e-01	-1.553166e-01	-1.471467e-01	1.916633e-01	1.831246e-01	1.764198e-01	1.675674e-01	3.212731e-01	3.210426e-01	3.173002e-01	-2.140933e-01	-2.436869e-01	-8.847515e-02	-3.663351e-01	-2.457851e-01	1.215225e-01	1.181341e-01	-2.759337e-01	-1.855952e-01	-3.292937e-01	-1.185429e-01	2.219400e-01	3.867572e-01	-4.688650e-02	-2.039210e-01	-3.369126e-01	-4.076841e-01	-4.174240e-01	-3.879452e-01	-3.496533e-01	-1.657463e-01	2.808634e-01	-1.030578e-01	-1.494803e-01	-2.180610e-02	8.122449e-02	2.587281e-01	-2.238089e-01	-1.305281e-01	-1.532137e-01	2.083174e-01	2.281878e-01	1.203097e-01	1.540766e-02	2.425892e-01	2.110156e-01	2.774155e-01	-2.126371e-01	9.693823e-02	-3.398204e-01	-1.930822e-01	-4.050911e-01	-1.839730e-01	-1.712017e-01	-1.254961e-02	-8.884558e-02	-3.672008e-01	4.205221e-03	-3.038566e-01	-1.649699e-01	-2.519958e-01	-2.938357e-01	-2.477128e-01	-1.830755e-01	2.898630e-01	2.933929e-01	-2.018827e-01	1.886560e-01	-1.596277e-01	-1.399801e-01	1.363621e-01	-2.962239e-01	2.876358e-01	2.919719e-01	2.996706e-01	1.525752e-01	-1.002084e-01	-1.524753e-01	-3.854164e-01	-1.506161e-01	4.449553e-02	3.786651e-02	2.919366e-02	2.222727e-02	7.424734e-02	5.013174e-02	1.414695e-02	8.410818e-03	1.893900e-03	-6.333480e-03	-5.857505e-02	-7.342772e-02	9.640046e-02	-1.574648e-01	2.461265e-01	2.397512e-01	2.556357e-01	2.494104e-01	-3.263436e-02	-4.467844e-02	1.935402e-01	2.116182e-01	-1.167751e-01	-1.291808e-01	1.087760e-01	1.403347e-01	1.626147e-01	1.754451e-01	1.973413e-01	-5.943373e-02	-2.980777e-02	-1.442469e-03	2.502904e-02	2.828463e-01	2.795216e-01	2.733339e-01	2.703326e-01	2.643028e-01	2.388327e-01	2.505534e-01	2.688259e-01	2.799416e-01	2.947357e-01	-1.795464e-01	-1.744952e-01	-1.698269e-01	2.529861e-01	2.558134e-01	2.607161e-01	2.611663e-01	2.644196e-01	3.300778e-01	2.825916e-01	3.052711e-01	3.142947e-01	3.976613e-01	4.012877e-01	4.063135e-01	-1.207976e-01	-1.116706e-01	-1.016112e-01	-9.190805e-02	-8.152463e-02	-7.118531e-02	-6.027403e-02	-4.405308e-02	-2.694302e-02	-8.399849e-03	4.160923e-02	6.787713e-02	9.418885e-02	1.459564e-01	1.702108e-01	3.210006e-01	3.310442e-01	3.385444e-01	3.495530e-01	3.566019e-01	3.669888e-01	3.772637e-01	2.271512e-01	1.726759e-01	6.819304e-02	6.122227e-02	5.337569e-02	2.324957e-01	2.237168e-01	1.257367e-01	8.546648e-02	4.718352e-02	4.091499e-01	4.085698e-01	4.023430e-01	3.871441e-01	3.635387e-01	2.644080e-01	2.676905e-01	2.680473e-01	2.715433e-01	-1.461316e-01	-1.380980e-01	1.831319e-01	1.682536e-01	2.990121e-01	3.052245e-01	3.016027e-01	3.005514e-01	-1.622942e-01	-3.300884e-01	-2.598668e-01	-3.616957e-01	-2.224546e-01	-1.112227e-01	-2.017927e-01	-2.756381e-01	-1.618624e-01	-1.702990e-01	-1.337588e-01	-3.555194e-01	-1.216484e-01	-2.334512e-01	2.668232e-01	-3.113222e-01	-1.097203e-01	-2.374178e-01	-2.064042e-01	-9.886839e-02	2.068334e-01	-1.926775e-01	2.758953e-01	-3.623277e-02	-2.188935e-02	1.659426e-01	1.038418e-01	2.154198e-01	-3.253719e-01	2.442614e-01	5.922408e-02	8.075557e-02	3.779720e-01	-1.781296e-01	-1.257566e-01	-3.117832e-01	-6.469196e-02	-8.592605e-02	-3.443631e-01	-1.848117e-01	-4.035522e-01	-3.399619e-01	-1.439557e-01	1.069702e-01	2.230346e-01	2.394196e-01	-2.116579e-01	-2.633698e-01	-2.485026e-01	-3.899954e-01	-1.836849e-01	-9.508663e-02	-3.065034e-01	-2.841919e-01	1.864235e-01	-1.495130e-01	-1.566066e-01	-1.505418e-01	2.051417e-01	2.770181e-01	2.894213e-01	1.200494e-01	-1.534464e-01	-1.965722e-01	-1.790202e-01	3.101952e-02	1.603473e-02	3.564029e-02	2.175423e-03	-9.911516e-03	-7.284277e-02	-1.531648e-01	2.358011e-01	-4.794112e-02	-5.994174e-02	1.870396e-01	-1.228392e-01	9.453523e-02	8.089195e-02	1.362528e-01	1.594544e-01	1.939623e-01	-6.752259e-02	-3.859987e-02	-1.026631e-02	1.068565e-02	2.671438e-01	2.592459e-01	2.506911e-01	2.454866e-01	2.715381e-01	-1.723397e-01	-1.670514e-01	2.485182e-01	2.531320e-01	2.457543e-01	3.039664e-01	3.802679e-01	-2.043690e-02	-1.089865e-01	-9.026137e-02	-7.099532e-02	-5.330437e-02	-3.705156e-02	-8.340511e-04	2.271449e-02	4.761570e-02	7.254873e-02	9.753316e-02	1.224016e-01	1.463388e-01	1.674815e-01	3.203131e-01	3.368870e-01	3.490562e-01	3.613572e-01	3.672969e-01	1.907852e-01	1.409595e-01	6.687691e-02	5.464548e-02	4.266018e-02	2.266265e-01	2.177742e-01	9.749774e-02	5.801124e-02	1.857232e-02	-2.138604e-02	3.803459e-01	3.766501e-01	3.674190e-01	3.494821e-01	3.207886e-01	2.981723e-01	2.563196e-01	2.587365e-01	-1.449997e-01	-1.372051e-01	1.802254e-01	1.509260e-01	1.351787e-01	2.845005e-01	2.836758e-01	-2.188021e-01	-1.749572e-01	-1.708769e-01	-2.605254e-01	-3.277743e-02	-2.020825e-01	-2.785393e-01	-1.676890e-01	-2.658779e-01	-1.986511e-01	-1.726869e-01	-1.597086e-01	-1.533702e-01	-2.880717e-01	-3.271570e-01	-1.646099e-01	9.267435e-02	2.507273e-01	-2.366272e-01	-1.107821e-02	-1.474077e-01	2.299849e-01	-1.164326e-01	-2.446641e-01	2.351312e-01	-4.992829e-02	1.492010e-01	1.904098e-01	-1.068744e-01	-1.178607e-01	-1.234922e-01	-9.898480e-02	-3.203901e-01	-1.837046e-01	-1.918103e-01	-1.538546e-01	2.705292e-01	1.658864e-01	1.190477e-01	2.559697e-02	-3.076627e-01	-3.178449e-01	-3.774095e-01	-9.551023e-02	-1.592390e-01	-2.396824e-01	-1.282382e-01	-2.566101e-01	-2.217481e-01	2.021043e-01	-3.153039e-01	4.340286e-02	6.616495e-02	-1.765694e-01	-3.354990e-01	-8.400344e-02	-1.387068e-01	1.052318e-01	-3.655765e-01	-1.989986e-01	-8.407295e-04	-3.020984e-01	-2.850454e-01	2.026116e-01	-1.737150e-01	-1.479226e-01	1.844248e-01	2.593598e-01	1.463507e-01	-1.894921e-01	-2.238931e-01	1.654594e-02	2.117174e-03	-2.393157e-02	-3.749133e-02	-1.489259e-01	2.277671e-01	-6.100183e-02	-7.241974e-02	2.426109e-01	5.298141e-02	4.141836e-02	7.996507e-02	9.335211e-02	1.215076e-01	1.465750e-01	-7.138167e-02	2.563864e-01	2.496119e-01	1.742792e-01	2.043588e-01	1.341183e-01	-1.702994e-01	2.195046e-01	2.320583e-01	3.526339e-01	-1.137428e-01	-9.743066e-02	-3.081511e-02	-7.977676e-02	-6.255305e-02	-4.642543e-02	-1.373869e-02	6.598149e-03	2.950601e-02	5.326341e-02	7.712588e-02	1.010860e-01	1.246306e-01	2.838273e-01	2.987747e-01	3.140254e-01	3.281756e-01	3.431922e-01	3.504032e-01	1.575817e-01	1.094442e-01	6.629252e-02	2.991921e-02	2.202661e-01	2.119581e-01	7.110833e-02	3.496874e-02	-3.104627e-03	-4.110328e-02	-7.842751e-02	3.483466e-01	3.406920e-01	3.281066e-01	3.070069e