# vtk DataFile Version 3.0
vtk output
ASCII
DATASET UNSTRUCTURED_GRID
POINTS 200 float
9.997500e-01	-3.633229e-05	0.0	9.990000e-01	-1.454636e-04	0.0	9.977600e-01	-3.274113e-04	0.0	9.960200e-01	-5.894086e-04	0.0	9.937800e-01	-9.452217e-04	0.0	9.910500e-01	-1.416921e-03	0.0	9.878400e-01	-2.033759e-03	0.0	9.841300e-01	-2.830631e-03	0.0	9.799500e-01	-3.819067e-03	0.0	9.752800e-01	-4.996287e-03	0.0	9.701500e-01	-6.316977e-03	0.0	9.645400e-01	-7.724898e-03	0.0	9.584700e-01	-9.147437e-03	0.0	9.519400e-01	-1.053133e-02	0.0	9.449600e-01	-1.184967e-02	0.0	9.375400e-01	-1.310670e-02	0.0	9.296900e-01	-1.432871e-02	0.0	9.214000e-01	-1.555268e-02	0.0	9.127000e-01	-1.680478e-02	0.0	9.035800e-01	-1.810538e-02	0.0	8.940600e-01	-1.945796e-02	0.0	8.841500e-01	-2.085806e-02	0.0	8.738500e-01	-2.229776e-02	0.0	8.631800e-01	-2.376527e-02	0.0	8.521600e-01	-2.525016e-02	0.0	8.407700e-01	-2.674936e-02	0.0	8.290500e-01	-2.825371e-02	0.0	8.170100e-01	-2.975934e-02	0.0	8.046400e-01	-3.126540e-02	0.0	7.919700e-01	-3.276624e-02	0.0	7.790100e-01	-3.425859e-02	0.0	7.657800e-01	-3.573785e-02	0.0	7.522800e-01	-3.720149e-02	0.0	7.385200e-01	-3.864571e-02	0.0	7.245300e-01	-4.006466e-02	0.0	7.103200e-01	-4.145475e-02	0.0	6.958900e-01	-4.281344e-02	0.0	6.812700e-01	-4.413555e-02	0.0	6.664700e-01	-4.541807e-02	0.0	6.515000e-01	-4.665822e-02	0.0	6.363800e-01	-4.785266e-02	0.0	6.211300e-01	-4.899841e-02	0.0	6.057600e-01	-5.009357e-02	0.0	5.902800e-01	-5.113641e-02	0.0	5.747100e-01	-5.212478e-02	0.0	5.590600e-01	-5.305742e-02	0.0	5.433600e-01	-5.393210e-02	0.0	5.276100e-01	-5.474851e-02	0.0	5.118400e-01	-5.550484e-02	0.0	4.960500e-01	-5.620090e-02	0.0	4.802700e-01	-5.683519e-02	0.0	4.645100e-01	-5.740716e-02	0.0	4.487800e-01	-5.791620e-02	0.0	4.331100e-01	-5.836107e-02	0.0	4.175000e-01	-5.874141e-02	0.0	4.019700e-01	-5.905621e-02	0.0	3.865400e-01	-5.930444e-02	0.0	3.712300e-01	-5.948512e-02	0.0	3.560400e-01	-5.959737e-02	0.0	3.409900e-01	-5.963996e-02	0.0	3.261100e-01	-5.961173e-02	0.0	3.114000e-01	-5.951150e-02	0.0	2.968700e-01	-5.933790e-02	0.0	2.825500e-01	-5.908983e-02	0.0	2.684500e-01	-5.876603e-02	0.0	2.545700e-01	-5.836487e-02	0.0	2.409400e-01	-5.788556e-02	0.0	2.275700e-01	-5.732689e-02	0.0	2.144700e-01	-5.668767e-02	0.0	2.016600e-01	-5.596736e-02	0.0	1.891400e-01	-5.516439e-02	0.0	1.769300e-01	-5.427850e-02	0.0	1.650400e-01	-5.330902e-02	0.0	1.534900e-01	-5.225634e-02	0.0	1.422900e-01	-5.112038e-02	0.0	1.314400e-01	-4.990006e-02	0.0	1.209500e-01	-4.859533e-02	0.0	1.108500e-01	-4.720920e-02	0.0	1.011300e-01	-4.573969e-02	0.0	9.181000e-02	-4.418913e-02	0.0	8.290000e-02	-4.255886e-02	0.0	7.440000e-02	-4.084842e-02	0.0	6.633000e-02	-3.906158e-02	0.0	5.869000e-02	-3.719822e-02	0.0	5.149000e-02	-3.526055e-02	0.0	4.474000e-02	-3.325126e-02	0.0	3.844000e-02	-3.117020e-02	0.0	3.260000e-02	-2.902035e-02	0.0	2.723000e-02	-2.680550e-02	0.0	2.232000e-02	-2.452072e-02	0.0	1.790000e-02	-2.217997e-02	0.0	1.395000e-02	-1.977249e-02	0.0	1.049000e-02	-1.730938e-02	0.0	7.520000e-03	-1.479134e-02	0.0	5.040000e-03	-1.221825e-02	0.0	3.050000e-03	-9.588074e-03	0.0	1.560000e-03	-6.915046e-03	0.0	5.600000e-04	-4.176770e-03	0.0	6.000000e-05	-1.377394e-03	0.0	0.000000e+00	0.000000e+00	0.0	6.000000e-05	1.262518e-03	0.0	5.600000e-04	3.623497e-03	0.0	1.560000e-03	5.791811e-03	0.0	3.050000e-03	7.819417e-03	0.0	5.040000e-03	9.751182e-03	0.0	7.520000e-03	1.159438e-02	0.0	1.049000e-02	1.336346e-02	0.0	1.395000e-02	1.506837e-02	0.0	1.790000e-02	1.671640e-02	0.0	2.232000e-02	1.830640e-02	0.0	2.723000e-02	1.985102e-02	0.0	3.260000e-02	2.134532e-02	0.0	3.844000e-02	2.279648e-02	0.0	4.474000e-02	2.420520e-02	0.0	5.149000e-02	2.557231e-02	0.0	5.869000e-02	2.690031e-02	0.0	6.633000e-02	2.818945e-02	0.0	7.440000e-02	2.943994e-02	0.0	8.290000e-02	3.065336e-02	0.0	9.181000e-02	3.182824e-02	0.0	1.011300e-01	3.296586e-02	0.0	1.108500e-01	3.406598e-02	0.0	1.209500e-01	3.512732e-02	0.0	1.314400e-01	3.615168e-02	0.0	1.422900e-01	3.713675e-02	0.0	1.534900e-01	3.808230e-02	0.0	1.650400e-01	3.898882e-02	0.0	1.769300e-01	3.985577e-02	0.0	1.891400e-01	4.068189e-02	0.0	2.016600e-01	4.146667e-02	0.0	2.144700e-01	4.220892e-02	0.0	2.275700e-01	4.290855e-02	0.0	2.409400e-01	4.356426e-02	0.0	2.545700e-01	4.417517e-02	0.0	2.684500e-01	4.474032e-02	0.0	2.825500e-01	4.525785e-02	0.0	2.968700e-01	4.572700e-02	0.0	3.114000e-01	4.614644e-02	0.0	3.261100e-01	4.651416e-02	0.0	3.409900e-01	4.682868e-02	0.0	3.560400e-01	4.708850e-02	0.0	3.712300e-01	4.729145e-02	0.0	3.865400e-01	4.743555e-02	0.0	4.019700e-01	4.751891e-02	0.0	4.175000e-01	4.753934e-02	0.0	4.331100e-01	4.749468e-02	0.0	4.487800e-01	4.738284e-02	0.0	4.645100e-01	4.720156e-02	0.0	4.802700e-01	4.694889e-02	0.0	4.960500e-01	4.662283e-02	0.0	5.118400e-01	4.622136e-02	0.0	5.276100e-01	4.574325e-02	0.0	5.433600e-01	4.518666e-02	0.0	5.590600e-01	4.455104e-02	0.0	5.747100e-01	4.383504e-02	0.0	5.902800e-01	4.303907e-02	0.0	6.057600e-01	4.216312e-02	0.0	6.211300e-01	4.120830e-02	0.0	6.363800e-01	4.017572e-02	0.0	6.515000e-01	3.906703e-02	0.0	6.664700e-01	3.788532e-02	0.0	6.812700e-01	3.663451e-02	0.0	6.958900e-01	3.531850e-02	0.0	7.103200e-01	3.394185e-02	0.0	7.245300e-01	3.251190e-02	0.0	7.385200e-01	3.103379e-02	0.0	7.522800e-01	2.951430e-02	0.0	7.657800e-01	2.796313e-02	0.0	7.790100e-01	2.638853e-02	0.0	7.919700e-01	2.479802e-02	0.0	8.046400e-01	2.320198e-02	0.0	8.170100e-01	2.160995e-02	0.0	8.290500e-01	2.003416e-02	0.0	8.407700e-01	1.848132e-02	0.0	8.521600e-01	1.695982e-02	0.0	8.631800e-01	1.548051e-02	0.0	8.738500e-01	1.404399e-02	0.0	8.841500e-01	1.265370e-02	0.0	8.940600e-01	1.131117e-02	0.0	9.035800e-01	1.001502e-02	0.0	9.127000e-01	8.768161e-03	0.0	9.214000e-01	7.581448e-03	0.0	9.296900e-01	6.470892e-03	0.0	9.375400e-01	5.466522e-03	0.0	9.449600e-01	4.596322e-03	0.0	9.519400e-01	3.884337e-03	0.0	9.584700e-01	3.336597e-03	0.0	9.645400e-01	2.933964e-03	0.0	9.701500e-01	2.633604e-03	0.0	9.752800e-01	2.382319e-03	0.0	9.799500e-01	2.130018e-03	0.0	9.841300e-01	1.848434e-03	0.0	9.878400e-01	1.530832e-03	0.0	9.910500e-01	1.195015e-03	0.0	9.937800e-01	8.647644e-04	0.0	9.960200e-01	5.671088e-04	0.0	9.977600e-01	3.232776e-04	0.0	9.990000e-01	1.450865e-04	0.0	9.997500e-01	3.632631e-05	0.0	1.000000e+00	0.000000e+00	0.0	
CELLS 200	600
2	199	0	2	0	1	2	1	2	2	2	3	2	3	4	2	4	5	2	5	6	2	6	7	2	7	8	2	8	9	2	9	10	2	10	11	2	11	12	2	12	13	2	13	14	2	14	15	2	15	16	2	16	17	2	17	18	2	18	19	2	19	20	2	20	21	2	21	22	2	22	23	2	23	24	2	24	25	2	25	26	2	26	27	2	27	28	2	28	29	2	29	30	2	30	31	2	31	32	2	32	33	2	33	34	2	34	35	2	35	36	2	36	37	2	37	38	2	38	39	2	39	40	2	40	41	2	41	42	2	42	43	2	43	44	2	44	45	2	45	46	2	46	47	2	47	48	2	48	49	2	49	50	2	50	51	2	51	52	2	52	53	2	53	54	2	54	55	2	55	56	2	56	57	2	57	58	2	58	59	2	59	60	2	60	61	2	61	62	2	62	63	2	63	64	2	64	65	2	65	66	2	66	67	2	67	68	2	68	69	2	69	70	2	70	71	2	71	72	2	72	73	2	73	74	2	74	75	2	75	76	2	76	77	2	77	78	2	78	79	2	79	80	2	80	81	2	81	82	2	82	83	2	83	84	2	84	85	2	85	86	2	86	87	2	87	88	2	88	89	2	89	90	2	90	91	2	91	92	2	92	93	2	93	94	2	94	95	2	95	96	2	96	97	2	97	98	2	98	99	2	99	100	2	100	101	2	101	102	2	102	103	2	103	104	2	104	105	2	105	106	2	106	107	2	107	108	2	108	109	2	109	110	2	110	111	2	111	112	2	112	113	2	113	114	2	114	115	2	115	116	2	116	117	2	117	118	2	118	119	2	119	120	2	120	121	2	121	122	2	122	123	2	123	124	2	124	125	2	125	126	2	126	127	2	127	128	2	128	129	2	129	130	2	130	131	2	131	132	2	132	133	2	133	134	2	134	135	2	135	136	2	136	137	2	137	138	2	138	139	2	139	140	2	140	141	2	141	142	2	142	143	2	143	144	2	144	145	2	145	146	2	146	147	2	147	148	2	148	149	2	149	150	2	150	151	2	151	152	2	152	153	2	153	154	2	154	155	2	155	156	2	156	157	2	157	158	2	158	159	2	159	160	2	160	161	2	161	162	2	162	163	2	163	164	2	164	165	2	165	166	2	166	167	2	167	168	2	168	169	2	169	170	2	170	171	2	171	172	2	172	173	2	173	174	2	174	175	2	175	176	2	176	177	2	177	178	2	178	179	2	179	180	2	180	181	2	181	182	2	182	183	2	183	184	2	184	185	2	185	186	2	186	187	2	187	188	2	188	189	2	189	190	2	190	191	2	191	192	2	192	193	2	193	194	2	194	195	2	195	196	2	196	197	2	197	198	2	198	199	
CELL_TYPES 200
3	3	3	3	3	3	3	3	3	3	3	3	3	3	3	3	3	3	3	3	3	3	3	3	3	3	3	3	3	3	3	3	3	3	3	3	3	3	3	3	3	3	3	3	3	3	3	3	3	3	3	3	3	3	3	3	3	3	3	3	3	3	3	3	3	3	3	3	3	3	3	3	3	3	3	3	3	3	3	3	3	3	3	3	3	3	3	3	3	3	3	3	3	3	3	3	3	3	3	3	3	3	3	3	3	3	3	3	3	3	3	3	3	3	3	3	3	3	3	3	3	3	3	3	3	3	3	3	3	3	3	3	3	3	3	3	3	3	3	3	3	3	3	3	3	3	3	3	3	3	3	3	3	3	3	3	3	3	3	3	3	3	3	3	3	3	3	3	3	3	3	3	3	3	3	3	3	3	3	3	3	3	3	3	3	3	3	3	3	3	3	3	3	3	3	3	3	3	3	3	
POINT_DATA 200

SCALARS Conservative_1 float 1
LOOKUP_TABLE default
5.003865e-02	-1.336186e-01	-1.394663e-01	-1.450276e-01	-1.549773e-01	-1.580668e-01	-1.553013e-01	-1.447027e-01	-1.248088e-01	-9.550973e-02	-5.876235e-02	-1.885823e-02	1.766849e-02	4.423560e-02	5.735834e-02	5.881691e-02	5.423464e-02	4.914889e-02	4.704033e-02	4.874733e-02	5.392202e-02	6.154190e-02	7.048795e-02	7.998063e-02	8.941225e-02	9.860411e-02	1.074998e-01	1.161696e-01	1.248168e-01	1.334906e-01	1.423111e-01	1.512808e-01	1.603335e-01	1.694374e-01	1.785040e-01	1.875193e-01	1.964719e-01	2.054246e-01	2.143053e-01	2.230779e-01	2.316486e-01	2.400191e-01	2.481416e-01	2.560494e-01	2.637238e-01	2.711977e-01	2.784698e-01	2.855793e-01	2.926119e-01	2.996208e-01	3.066162e-01	3.135041e-01	3.200168e-01	3.259412e-01	3.314572e-01	3.370194e-01	3.430874e-01	3.498373e-01	3.572383e-01	3.651236e-01	3.734856e-01	3.822918e-01	3.913982e-01	4.001687e-01	4.073607e-01	4.112288e-01	4.101669e-01	4.034381e-01	3.919570e-01	3.780257e-01	3.643675e-01	3.525602e-01	3.423886e-01	3.321905e-01	3.202919e-01	3.062334e-01	2.904817e-01	2.735638e-01	2.553634e-01	2.356868e-01	2.144072e-01	1.914397e-01	1.666202e-01	1.397141e-01	1.104380e-01	7.855421e-02	4.367576e-02	5.505663e-03	-3.645082e-02	-8.245698e-02	-1.329400e-01	-1.877290e-01	-2.468571e-01	-3.080017e-01	-3.694941e-01	-4.237645e-01	-4.669257e-01	-4.941905e-01	-4.905052e-01	-4.633632e-01	-4.267552e-01	-3.441442e-01	-2.108781e-01	-6.780827e-02	6.174145e-02	1.707420e-01	2.598434e-01	3.233302e-01	3.493294e-01	3.461056e-01	3.440306e-01	3.675568e-01	4.155162e-01	4.684437e-01	5.086248e-01	5.305246e-01	5.373799e-01	5.344500e-01	5.257809e-01	5.137932e-01	4.998375e-01	4.843736e-01	4.677980e-01	4.508025e-01	4.342156e-01	4.186070e-01	4.039868e-01	3.900916e-01	3.767482e-01	3.640024e-01	3.520649e-01	3.410507e-01	3.309948e-01	3.218820e-01	3.135888e-01	3.060467e-01	2.992142e-01	2.932696e-01	2.883420e-01	2.843666e-01	2.809945e-01	2.779797e-01	2.755334e-01	2.740630e-01	2.737839e-01	2.740259e-01	2.735014e-01	2.708634e-01	2.653496e-01	2.572950e-01	2.474912e-01	2.366771e-01	2.250617e-01	2.129641e-01	2.006459e-01	1.880945e-01	1.752734e-01	1.620215e-01	1.483594e-01	1.342644e-01	1.197768e-01	1.050040e-01	8.990786e-02	7.465987e-02	5.919734e-02	4.370509e-02	2.814426e-02	1.273331e-02	-2.572713e-03	-1.759958e-02	-3.240646e-02	-4.680141e-02	-6.078997e-02	-7.416277e-02	-8.700054e-02	-9.911600e-02	-1.107481e-01	-1.221242e-01	-1.336554e-01	-1.458333e-01	-1.590737e-01	-1.733683e-01	-1.882190e-01	-2.023850e-01	-2.143878e-01	-2.226800e-01	-2.262648e-01	-2.250479e-01	-2.203080e-01	-2.148695e-01	-2.127144e-01	-2.176056e-01	-2.313576e-01	-2.531592e-01	-2.811839e-01	-3.167139e-01	-3.473010e-01	-3.787776e-01	-6.177182e-01	-2.948639e-01	
SCALARS Conservative_2 float 1
LOOKUP_TABLE default
-3.557899e-01	2.756438e-02	8.018015e-02	1.107761e-01	1.410527e-01	1.570348e-01	1.625927e-01	1.556895e-01	1.348976e-01	1.003633e-01	5.512537e-02	5.132592e-03	-4.114806e-02	-7.539383e-02	-9.311509e-02	-9.613903e-02	-9.102340e-02	-8.457975e-02	-8.122741e-02	-8.224728e-02	-8.738140e-02	-9.547879e-02	-1.052396e-01	-1.157037e-01	-1.261482e-01	-1.363257e-01	-1.461590e-01	-1.557221e-01	-1.652279e-01	-1.747433e-01	-1.843938e-01	-1.941791e-01	-2.040356e-01	-2.139289e-01	-2.237547e-01	-2.334962e-01	-2.431396e-01	-2.527528e-01	-2.622589e-01	-2.716169e-01	-2.807316e-01	-2.896033e-01	-2.981836e-01	-3.065073e-01	-3.145589e-01	-3.223698e-01	-3.299457e-01	-3.373276e-01	-3.445986e-01	-3.518172e-01	-3.590004e-01	-3.660481e-01	-3.726900e-01	-3.787170e-01	-3.843060e-01	-3.899164e-01	-3.960049e-01	-4.027382e-01	-4.100644e-01	-4.178188e-01	-4.259826e-01	-4.345308e-01	-4.433164e-01	-4.517224e-01	-4.585176e-01	-4.619894e-01	-4.605447e-01	-4.534562e-01	-4.415861e-01	-4.271895e-01	-4.129066e-01	-4.002846e-01	-3.890728e-01	-3.776070e-01	-3.641935e-01	-3.483121e-01	-3.303725e-01	-3.108235e-01	-2.894710e-01	-2.660215e-01	-2.402248e-01	-2.118515e-01	-1.805536e-01	-1.458641e-01	-1.072266e-01	-6.403028e-02	-1.543343e-02	3.942390e-02	1.017630e-01	1.727269e-01	2.538380e-01	3.458873e-01	4.504540e-01	5.648336e-01	6.874227e-01	8.073470e-01	9.126275e-01	9.820404e-01	1.008189e+00	9.930012e-01	9.381572e-01	8.203193e-01	6.057168e-01	3.827049e-01	1.795025e-01	1.440737e-02	-1.144736e-01	-2.072085e-01	-2.574625e-01	-2.746752e-01	-2.873172e-01	-3.190910e-01	-3.708510e-01	-4.260160e-01	-4.686635e-01	-4.935986e-01	-5.037443e-01	-5.040483e-01	-4.983755e-01	-4.891266e-01	-4.776528e-01	-4.644719e-01	-4.500017e-01	-4.349221e-01	-4.200461e-01	-4.059420e-01	-3.926623e-01	-3.799757e-01	-3.677288e-01	-3.559780e-01	-3.449287e-01	-3.346967e-01	-3.253278e-01	-3.168057e-01	-3.090281e-01	-3.019272e-01	-2.954731e-01	-2.898282e-01	-2.851284e-01	-2.813130e-01	-2.780579e-01	-2.751209e-01	-2.727000e-01	-2.711775e-01	-2.707700e-01	-2.708401e-01	-2.700899e-01	-2.671464e-01	-2.612594e-01	-2.528013e-01	-2.425761e-01	-2.312712e-01	-2.190853e-01	-2.062933e-01	-1.931677e-01	-1.796789e-01	-1.657838e-01	-1.513335e-01	-1.363061e-01	-1.207070e-01	-1.045375e-01	-8.792357e-02	-7.080592e-02	-5.336937e-02	-3.553906e-02	-1.751668e-02	7.444215e-04	1.900143e-02	3.729891e-02	5.543738e-02	7.347624e-02	9.118964e-02	1.085720e-01	1.253913e-01	1.416877e-01	1.573054e-01	1.725055e-01	1.876001e-01	2.031199e-01	2.196991e-01	2.378658e-01	2.575967e-01	2.782040e-01	2.980296e-01	3.150664e-01	3.272635e-01	3.333448e-01	3.333505e-01	3.292585e-01	3.251140e-01	3.264025e-01	3.381672e-01	3.626974e-01	3.993318e-01	4.461387e-01	5.063864e-01	5.622560e-01	6.294117e-01	1.043470e+00	3.017157e-01	
SCALARS Conservative_3 float 1
LOOKUP_TABLE default
-1.582540e-01	-1.066193e-01	-1.212764e-01	-1.189248e-01	-1.236225e-01	-1.346081e-01	-1.507272e-01	-1.705450e-01	-1.912152e-01	-2.090318e-01	-2.200756e-01	-2.213134e-01	-2.119599e-01	-1.946282e-01	-1.744306e-01	-1.565086e-01	-1.438354e-01	-1.365782e-01	-1.334622e-01	-1.326435e-01	-1.326526e-01	-1.325262e-01	-1.317785e-01	-1.303875e-01	-1.284315e-01	-1.261316e-01	-1.236311e-01	-1.210051e-01	-1.183338e-01	-1.155822e-01	-1.127621e-01	-1.098489e-01	-1.067984e-01	-1.036081e-01	-1.002462e-01	-9.672860e-02	-9.304912e-02	-8.923229e-02	-8.526910e-02	-8.118584e-02	-7.697266e-02	-7.265828e-02	-6.823737e-02	-6.373440e-02	-5.914607e-02	-5.448926e-02	-4.976516e-02	-4.497116e-02	-4.012373e-02	-3.521808e-02	-3.023400e-02	-2.514044e-02	-1.992731e-02	-1.459036e-02	-9.139142e-03	-3.545825e-03	2.214892e-03	8.192656e-03	1.441743e-02	2.094703e-02	2.781486e-02	3.507837e-02	4.280016e-02	5.101523e-02	5.973906e-02	6.888013e-02	7.830961e-02	8.787833e-02	9.755290e-02	1.075011e-01	1.179898e-01	1.292811e-01	1.414283e-01	1.542575e-01	1.675560e-01	1.812576e-01	1.955065e-01	2.104646e-01	2.261223e-01	2.424544e-01	2.594869e-01	2.772212e-01	2.956784e-01	3.147805e-01	3.344242e-01	3.544691e-01	3.746211e-01	3.944148e-01	4.130684e-01	4.294017e-01	4.416187e-01	4.467135e-01	4.407024e-01	4.180059e-01	3.713857e-01	2.934085e-01	1.791988e-01	4.474737e-02	-9.680558e-02	-1.901185e-01	-2.797924e-01	-4.433408e-01	-5.908873e-01	-6.528165e-01	-6.532618e-01	-6.204290e-01	-5.747759e-01	-5.221011e-01	-4.622240e-01	-4.021552e-01	-3.536784e-01	-3.213989e-01	-3.002705e-01	-2.823596e-01	-2.631934e-01	-2.425232e-01	-2.217579e-01	-2.019952e-01	-1.837380e-01	-1.670381e-01	-1.517875e-01	-1.378047e-01	-1.249280e-01	-1.131156e-01	-1.023280e-01	-9.248559e-02	-8.345090e-02	-7.505069e-02	-6.719284e-02	-5.983722e-02	-5.293112e-02	-4.643965e-02	-4.029226e-02	-3.443305e-02	-2.881222e-02	-2.335444e-02	-1.804725e-02	-1.286715e-02	-7.816774e-03	-2.826774e-03	2.203883e-03	7.347592e-03	1.256237e-02	1.769412e-02	2.270894e-02	2.786025e-02	3.327681e-02	3.889872e-02	4.465821e-02	5.046357e-02	5.625642e-02	6.207878e-02	6.789496e-02	7.370726e-02	7.947160e-02	8.518607e-02	9.085504e-02	9.639975e-02	1.018034e-01	1.070014e-01	1.119440e-01	1.166350e-01	1.209582e-01	1.249585e-01	1.285069e-01	1.316603e-01	1.342905e-01	1.364765e-01	1.380863e-01	1.392025e-01	1.397049e-01	1.396936e-01	1.390999e-01	1.380724e-01	1.366083e-01	1.349503e-01	1.331823e-01	1.314605e-01	1.298248e-01	1.280820e-01	1.257548e-01	1.221238e-01	1.163647e-01	1.079579e-01	9.694029e-02	8.422069e-02	7.148144e-02	6.097091e-02	5.494060e-02	5.488859e-02	6.076678e-02	7.052044e-02	8.075122e-02	8.843018e-02	9.273150e-02	9.321877e-02	9.014237e-02	1.172457e-01	8.246534e-02	-9.041070e-01	
SCALARS Conservative_4 float 1
LOOKUP_TABLE default
1.023857e-01	-1.639927e-02	-2.418779e-02	-2.812021e-02	-3.337662e-02	-3.547495e-02	-3.566660e-02	-3.363911e-02	-2.908771e-02	-2.201888e-02	-1.293548e-02	-2.940719e-03	6.303562e-03	1.303513e-02	1.629894e-02	1.652380e-02	1.515620e-02	1.369094e-02	1.299969e-02	1.333565e-02	1.457195e-02	1.645128e-02	1.868578e-02	2.105000e-02	2.340990e-02	2.569918e-02	2.792124e-02	3.009504e-02	3.225241e-02	3.442992e-02	3.663304e-02	3.887515e-02	4.114699e-02	4.343570e-02	4.572194e-02	4.798978e-02	5.024743e-02	5.249692e-02	5.473564e-02	5.694007e-02	5.910173e-02	6.120658e-02	6.325624e-02	6.524582e-02	6.718324e-02	6.906520e-02	7.090167e-02	7.269616e-02	7.446795e-02	7.623045e-02	7.799883e-02	7.973995e-02	8.138694e-02	8.289004e-02	8.428794e-02	8.570157e-02	8.724162e-02	8.895880e-02	9.083371e-02	9.283700e-02	9.495124e-02	9.717869e-02	9.946349e-02	1.016521e-01	1.034158e-01	1.043320e-01	1.039953e-01	1.022554e-01	9.933645e-02	9.583787e-02	9.240573e-02	8.943818e-02	8.685217e-02	8.424375e-02	8.120581e-02	7.762113e-02	7.363032e-02	6.934017e-02	6.472995e-02	5.974631e-02	5.436729e-02	4.856582e-02	4.231103e-02	3.554123e-02	2.820076e-02	2.021972e-02	1.152662e-02	2.049826e-03	-8.300716e-03	-1.962324e-02	-3.188061e-02	-4.519111e-02	-5.925846e-02	-7.380189e-02	-8.793153e-02	-1.007054e-01	-1.097043e-01	-1.114260e-01	-1.084165e-01	-1.049985e-01	-9.852020e-02	-7.566262e-02	-4.246466e-02	-8.997249e-03	2.096932e-02	4.592790e-02	6.671132e-02	8.158782e-02	8.785368e-02	8.703164e-02	8.641281e-02	9.194044e-02	1.036534e-01	1.168875e-01	1.271901e-01	1.329899e-01	1.349714e-01	1.344157e-01	1.323348e-01	1.293852e-01	1.259028e-01	1.220376e-01	1.178784e-01	1.135992e-01	1.094092e-01	1.054530e-01	1.017528e-01	9.824343e-02	9.486818e-02	9.164559e-02	8.862157e-02	8.582821e-02	8.328059e-02	8.096511e-02	7.886503e-02	7.694878e-02	7.521593e-02	7.369945e-02	7.244067e-02	7.142478e-02	7.056675e-02	6.980307e-02	6.916784e-02	6.877406e-02	6.868363e-02	6.871822e-02	6.855580e-02	6.786904e-02	6.647824e-02	6.444817e-02	6.200135e-02	5.927253e-02	5.633565e-02	5.326550e-02	5.013181e-02	4.695612e-02	4.370594e-02	4.035511e-02	3.688727e-02	3.331688e-02	2.965022e-02	2.590128e-02	2.208293e-02	1.821058e-02	1.429951e-02	1.036404e-02	6.427482e-03	2.512425e-03	-1.365281e-03	-5.191294e-03	-8.949151e-03	-1.261973e-02	-1.616916e-02	-1.959121e-02	-2.283989e-02	-2.594199e-02	-2.890994e-02	-3.182017e-02	-3.477163e-02	-3.790527e-02	-4.131267e-02	-4.501356e-02	-4.885293e-02	-5.253861e-02	-5.567355e-02	-5.788400e-02	-5.891599e-02	-5.876104e-02	-5.776165e-02	-5.666216e-02	-5.650419e-02	-5.826912e-02	-6.238869e-02	-6.867712e-02	-7.683772e-02	-8.835461e-02	-9.783565e-02	-1.108632e-01	-2.488832e-01	-7.887201e-02	
SCALARS Surface_Sensitivity float 1
LOOKUP_TABLE default
-1.452203e+03	4.417344e+02	2.078358e+01	1.339656e+01	1.004622e+01	5.054494e+00	3.446867e+00	2.476300e+00	1.791673e+00	1.289003e+00	9.464936e-01	6.029080e-01	2.106151e-01	4.367406e-02	1.965695e-01	4.336429e-01	5.122812e-01	4.425953e-01	3.270387e-01	2.343888e-01	1.646096e-01	1.193496e-01	9.714412e-02	8.461669e-02	8.263722e-02	8.318649e-02	8.410717e-02	8.307063e-02	7.251681e-02	5.847903e-02	4.509748e-02	4.178138e-02	4.895115e-02	5.530617e-02	5.727784e-02	5.338229e-02	4.395898e-02	3.178921e-02	2.502945e-02	2.217861e-02	2.478749e-02	2.922936e-02	3.641353e-02	3.798101e-02	3.057271e-02	1.241530e-02	-1.354563e-03	4.744097e-03	3.125687e-02	3.616673e-02	-2.658507e-02	-1.401946e-01	-2.178106e-01	-1.776067e-01	1.370247e-02	3.300910e-01	6.767207e-01	8.901824e-01	8.168277e-01	4.424763e-01	-1.003067e-01	-6.312164e-01	-1.021356e+00	-1.189464e+00	-1.095633e+00	-7.437007e-01	-2.101673e-01	3.569470e-01	7.557194e-01	8.414105e-01	6.008269e-01	1.892956e-01	-1.517804e-01	-2.432441e-01	-1.209116e-01	2.309546e-02	5.442598e-02	1.308751e-02	-1.481324e-02	-2.382177e-02	-2.967476e-02	-3.541828e-02	-3.175332e-02	-2.089322e-03	2.935304e-02	6.992210e-02	1.501995e-01	2.663052e-01	4.459626e-01	7.581769e-01	1.237167e+00	1.939280e+00	3.029849e+00	4.138846e+00	4.578128e+00	5.088254e+00	4.435476e+00	1.190283e+01	7.672306e+00	-7.585899e+00	2.941016e+01	3.137182e+01	2.199109e+01	1.727575e+01	8.382046e+00	6.144074e+00	5.927234e+00	1.310289e-01	-7.967219e+00	-9.466476e+00	-2.419653e+00	6.865736e+00	1.172653e+01	1.079635e+01	6.957424e+00	3.181655e+00	6.023031e-01	-9.206484e-01	-1.812737e+00	-2.316118e+00	-2.516820e+00	-2.501214e+00	-2.390155e+00	-2.281144e+00	-2.180418e+00	-2.040800e+00	-1.887567e+00	-1.751117e+00	-1.615952e+00	-1.442483e+00	-1.240138e+00	-1.041635e+00	-8.789756e-01	-7.568241e-01	-6.617266e-01	-5.681220e-01	-4.559470e-01	-3.547683e-01	-3.471215e-01	-4.572409e-01	-4.259677e-01	4.101679e-01	2.620787e+00	5.377863e+00	5.989974e+00	3.545916e+00	3.404024e-01	-1.671962e+00	-2.185093e+00	-1.754340e+00	-1.046230e+00	-4.547270e-01	-9.594817e-02	6.451417e-02	8.693606e-02	2.659466e-02	-4.508851e-02	-7.238163e-02	-6.296465e-02	-4.558743e-02	-3.912236e-02	-4.327750e-02	-4.585171e-02	-5.066782e-02	-5.352866e-02	-5.856013e-02	-5.806835e-02	-6.023015e-02	-5.765460e-02	-6.246979e-02	-6.715082e-02	-7.611199e-02	-8.368316e-02	-9.228141e-02	-9.432301e-02	-1.033423e-01	-1.147964e-01	-1.350731e-01	-1.678350e-01	-2.140750e-01	-2.658075e-01	-3.151807e-01	-3.415209e-01	-3.419784e-01	-3.117814e-01	-2.701539e-01	-2.469298e-01	-2.952406e-01	-4.887943e-01	-9.496256e-01	-1.795795e+00	-3.008626e+00	-4.481946e+00	-6.646021e+00	-1.277141e+01	-1.649589e+01	-2.667822e+01	-5.315609e+02	1.266576e+03	4.088107e+02	