# vtk DataFile Version 3.0
vtk output
ASCII
DATASET UNSTRUCTURED_GRID
POINTS 5233 float
9.997500e-01	-3.633254e-05	0.0	9.990000e-01	-1.454797e-04	0.0	9.977600e-01	-3.275885e-04	0.0	9.960200e-01	-5.903658e-04	0.0	9.937800e-01	-9.486834e-04	0.0	9.910500e-01	-1.426502e-03	0.0	9.878400e-01	-2.055579e-03	0.0	9.841300e-01	-2.873534e-03	0.0	9.799500e-01	-3.893527e-03	0.0	9.752800e-01	-5.112946e-03	0.0	9.701500e-01	-6.484048e-03	0.0	9.645400e-01	-7.946852e-03	0.0	9.584700e-01	-9.424016e-03	0.0	9.519400e-01	-1.085857e-02	0.0	9.449600e-01	-1.222162e-02	0.0	9.375400e-01	-1.351743e-02	0.0	9.296900e-01	-1.477371e-02	0.0	9.214000e-01	-1.602938e-02	0.0	9.127000e-01	-1.731206e-02	0.0	9.035800e-01	-1.864292e-02	0.0	8.940600e-01	-2.002545e-02	0.0	8.841500e-01	-2.145473e-02	0.0	8.738500e-01	-2.292225e-02	0.0	8.631800e-01	-2.441569e-02	0.0	8.521600e-01	-2.592425e-02	0.0	8.407700e-01	-2.744485e-02	0.0	8.290500e-01	-2.896826e-02	0.0	8.170100e-01	-3.049074e-02	0.0	8.046400e-01	-3.201157e-02	0.0	7.919700e-01	-3.352514e-02	0.0	7.790100e-01	-3.502819e-02	0.0	7.657800e-01	-3.651610e-02	0.0	7.522800e-01	-3.798628e-02	0.0	7.385200e-01	-3.943484e-02	0.0	7.245300e-01	-4.085584e-02	0.0	7.103200e-01	-4.224561e-02	0.0	6.958900e-01	-4.360156e-02	0.0	6.812700e-01	-4.491847e-02	0.0	6.664700e-01	-4.619333e-02	0.0	6.515000e-01	-4.742341e-02	0.0	6.363800e-01	-4.860545e-02	0.0	6.211300e-01	-4.973661e-02	0.0	6.057600e-01	-5.081516e-02	0.0	5.902800e-01	-5.183960e-02	0.0	5.747100e-01	-5.280805e-02	0.0	5.590600e-01	-5.371953e-02	0.0	5.433600e-01	-5.457219e-02	0.0	5.276100e-01	-5.536606e-02	0.0	5.118400e-01	-5.609976e-02	0.0	4.960500e-01	-5.677350e-02	0.0	4.802700e-01	-5.738620e-02	0.0	4.645100e-01	-5.793775e-02	0.0	4.487800e-01	-5.842795e-02	0.0	4.331100e-01	-5.885598e-02	0.0	4.175000e-01	-5.922185e-02	0.0	4.019700e-01	-5.952489e-02	0.0	3.865400e-01	-5.976442e-02	0.0	3.712300e-01	-5.993971e-02	0.0	3.560400e-01	-6.005012e-02	0.0	3.409900e-01	-6.009458e-02	0.0	3.261100e-01	-6.007206e-02	0.0	3.114000e-01	-5.998143e-02	0.0	2.968700e-01	-5.982130e-02	0.0	2.825500e-01	-5.959052e-02	0.0	2.684500e-01	-5.928767e-02	0.0	2.545700e-01	-5.891096e-02	0.0	2.409400e-01	-5.845931e-02	0.0	2.275700e-01	-5.793119e-02	0.0	2.144700e-01	-5.732504e-02	0.0	2.016600e-01	-5.663987e-02	0.0	1.891400e-01	-5.587366e-02	0.0	1.769300e-01	-5.502559e-02	0.0	1.650400e-01	-5.409442e-02	0.0	1.534900e-01	-5.307990e-02	0.0	1.422900e-01	-5.198130e-02	0.0	1.314400e-01	-5.079691e-02	0.0	1.209500e-01	-4.952596e-02	0.0	1.108500e-01	-4.817070e-02	0.0	1.011300e-01	-4.672846e-02	0.0	9.181000e-02	-4.520083e-02	0.0	8.290000e-02	-4.358840e-02	0.0	7.440000e-02	-4.189003e-02	0.0	6.633000e-02	-4.010873e-02	0.0	5.869000e-02	-3.824375e-02	0.0	5.149000e-02	-3.629665e-02	0.0	4.474000e-02	-3.426953e-02	0.0	3.844000e-02	-3.216170e-02	0.0	3.260000e-02	-2.997571e-02	0.0	2.723000e-02	-2.771502e-02	0.0	2.232000e-02	-2.537434e-02	0.0	1.790000e-02	-2.296787e-02	0.0	1.395000e-02	-2.048463e-02	0.0	1.049000e-02	-1.793645e-02	0.0	7.520000e-03	-1.532480e-02	0.0	5.040000e-03	-1.265080e-02	0.0	3.050000e-03	-9.914381e-03	0.0	1.560000e-03	-7.133644e-03	0.0	5.600000e-04	-4.291014e-03	0.0	6.000000e-05	-1.402986e-03	0.0	0.000000e+00	0.000000e+00	0.0	6.000000e-05	1.283174e-03	0.0	5.600000e-04	3.709671e-03	0.0	1.560000e-03	5.947846e-03	0.0	3.050000e-03	8.040593e-03	0.0	5.040000e-03	1.002974e-02	0.0	7.520000e-03	1.192067e-02	0.0	1.049000e-02	1.372738e-02	0.0	1.395000e-02	1.545991e-02	0.0	1.790000e-02	1.712600e-02	0.0	2.232000e-02	1.872520e-02	0.0	2.723000e-02	2.027108e-02	0.0	3.260000e-02	2.175969e-02	0.0	3.844000e-02	2.319922e-02	0.0	4.474000e-02	2.459145e-02	0.0	5.149000e-02	2.593822e-02	0.0	5.869000e-02	2.724303e-02	0.0	6.633000e-02	2.850705e-02	0.0	7.440000e-02	2.973138e-02	0.0	8.290000e-02	3.091832e-02	0.0	9.181000e-02	3.206715e-02	0.0	1.011300e-01	3.317971e-02	0.0	1.108500e-01	3.425626e-02	0.0	1.209500e-01	3.529594e-02	0.0	1.314400e-01	3.630079e-02	0.0	1.422900e-01	3.726872e-02	0.0	1.534900e-01	3.819962e-02	0.0	1.650400e-01	3.909392e-02	0.0	1.769300e-01	3.995102e-02	0.0	1.891400e-01	4.076951e-02	0.0	2.016600e-01	4.154862e-02	0.0	2.144700e-01	4.228688e-02	0.0	2.275700e-01	4.298384e-02	0.0	2.409400e-01	4.363779e-02	0.0	2.545700e-01	4.424746e-02	0.0	2.684500e-01	4.481143e-02	0.0	2.825500e-01	4.532741e-02	0.0	2.968700e-01	4.579420e-02	0.0	3.114000e-01	4.621003e-02	0.0	3.261100e-01	4.657253e-02	0.0	3.409900e-01	4.687985e-02	0.0	3.560400e-01	4.713020e-02	0.0	3.712300e-01	4.732114e-02	0.0	3.865400e-01	4.745053e-02	0.0	4.019700e-01	4.751635e-02	0.0	4.175000e-01	4.751637e-02	0.0	4.331100e-01	4.744847e-02	0.0	4.487800e-01	4.731065e-02	0.0	4.645100e-01	4.710082e-02	0.0	4.802700e-01	4.681729e-02	0.0	4.960500e-01	4.645832e-02	0.0	5.118400e-01	4.602225e-02	0.0	5.276100e-01	4.550827e-02	0.0	5.433600e-01	4.491492e-02	0.0	5.590600e-01	4.424212e-02	0.0	5.747100e-01	4.348896e-02	0.0	5.902800e-01	4.265631e-02	0.0	6.057600e-01	4.174461e-02	0.0	6.211300e-01	4.075537e-02	0.0	6.363800e-01	3.969008e-02	0.0	6.515000e-01	3.855073e-02	0.0	6.664700e-01	3.734070e-02	0.0	6.812700e-01	3.606417e-02	0.0	6.958900e-01	3.472521e-02	0.0	7.103200e-01	3.332853e-02	0.0	7.245300e-01	3.188156e-02	0.0	7.385200e-01	3.038948e-02	0.0	7.522800e-01	2.885906e-02	0.0	7.657800e-01	2.730002e-02	0.0	7.790100e-01	2.572054e-02	0.0	7.919700e-01	2.412814e-02	0.0	8.046400e-01	2.253318e-02	0.0	8.170100e-01	2.094522e-02	0.0	8.290500e-01	1.937654e-02	0.0	8.407700e-01	1.783392e-02	0.0	8.521600e-01	1.632580e-02	0.0	8.631800e-01	1.486294e-02	0.0	8.738500e-01	1.344575e-02	0.0	8.841500e-01	1.207723e-02	0.0	8.940600e-01	1.075823e-02	0.0	9.035800e-01	9.486717e-03	0.0	9.127000e-01	8.265095e-03	0.0	9.214000e-01	7.104258e-03	0.0	9.296900e-01	6.021191e-03	0.0	9.375400e-01	5.047603e-03	0.0	9.449600e-01	4.213690e-03	0.0	9.519400e-01	3.545133e-03	0.0	9.584700e-01	3.048055e-03	0.0	9.645400e-01	2.701192e-03	0.0	9.701500e-01	2.457656e-03	0.0	9.752800e-01	2.259063e-03	0.0	9.799500e-01	2.051153e-03	0.0	9.841300e-01	1.802907e-03	0.0	9.878400e-01	1.507645e-03	0.0	9.910500e-01	1.184824e-03	0.0	9.937800e-01	8.610795e-04	0.0	9.960200e-01	5.660894e-04	0.0	9.977600e-01	3.230889e-04	0.0	9.990000e-01	1.450693e-04	0.0	9.997500e-01	3.632604e-05	0.0	1.000000e+00	0.000000e+00	0.0	1.984229e+01	2.506660e+00	0.0	1.937166e+01	4.973800e+00	0.0	1.859553e+01	7.362490e+00	0.0	1.752613e+01	9.635070e+00	0.0	1.618034e+01	1.175571e+01	0.0	1.457937e+01	1.369094e+01	0.0	1.274848e+01	1.541027e+01	0.0	1.071654e+01	1.688656e+01	0.0	8.515590e+00	1.809654e+01	0.0	6.180340e+00	1.902113e+01	0.0	3.747630e+00	1.964575e+01	0.0	1.255810e+00	1.996053e+01	0.0	-1.255810e+00	1.996053e+01	0.0	-3.747630e+00	1.964574e+01	0.0	-6.180340e+00	1.902113e+01	0.0	-8.515590e+00	1.809654e+01	0.0	-1.071654e+01	1.688656e+01	0.0	-1.274848e+01	1.541026e+01	0.0	-1.457937e+01	1.369094e+01	0.0	-1.618034e+01	1.175570e+01	0.0	-1.752613e+01	9.635070e+00	0.0	-1.859553e+01	7.362490e+00	0.0	-1.937166e+01	4.973800e+00	0.0	-1.984229e+01	2.506660e+00	0.0	-2.000000e+01	0.000000e+00	0.0	-1.984229e+01	-2.506670e+00	0.0	-1.937166e+01	-4.973800e+00	0.0	-1.859553e+01	-7.362490e+00	0.0	-1.752613e+01	-9.635080e+00	0.0	-1.618034e+01	-1.175571e+01	0.0	-1.457937e+01	-1.369094e+01	0.0	-1.274848e+01	-1.541027e+01	0.0	-1.071653e+01	-1.688656e+01	0.0	-8.515580e+00	-1.809654e+01	0.0	-6.180340e+00	-1.902113e+01	0.0	-3.747620e+00	-1.964575e+01	0.0	-1.255810e+00	-1.996053e+01	0.0	1.255810e+00	-1.996053e+01	0.0	3.747630e+00	-1.964574e+01	0.0	6.180340e+00	-1.902113e+01	0.0	8.515590e+00	-1.809654e+01	0.0	1.071654e+01	-1.688656e+01	0.0	1.274848e+01	-1.541026e+01	0.0	1.457937e+01	-1.369094e+01	0.0	1.618034e+01	-1.175570e+01	0.0	1.752614e+01	-9.635070e+00	0.0	1.859553e+01	-7.362490e+00	0.0	1.937166e+01	-4.973790e+00	0.0	1.984229e+01	-2.506660e+00	0.0	2.000000e+01	0.000000e+00	0.0	6.072073e-02	-4.610345e-02	0.0	6.601908e-01	-6.046774e-02	0.0	4.255812e-01	6.170977e-02	0.0	6.897682e-01	4.862389e-02	0.0	3.791296e-01	-7.392305e-02	0.0	9.994680e-01	-7.277334e-04	0.0	9.985552e-01	-1.332035e-03	0.0	7.738235e-01	-4.783860e-02	0.0	6.898643e-01	-5.760026e-02	0.0	-1.177246e-03	5.642225e-03	0.0	7.467883e-01	-5.125578e-02	0.0	5.833490e-01	5.717146e-02	0.0	9.928184e-01	-3.742114e-03	0.0	9.899394e-01	-4.755042e-03	0.0	5.989233e-01	5.621137e-02	0.0	7.187709e-01	-5.451653e-02	0.0	-1.499169e-03	6.126772e-04	0.0	9.865774e-01	-5.925363e-03	0.0	9.827394e-01	-7.257041e-03	0.0	-1.353496e-03	-6.601765e-03	0.0	6.451067e-01	-6.181321e-02	0.0	8.244961e-01	-4.070201e-02	0.0	7.997545e-01	-4.431799e-02	0.0	3.485082e-01	6.078715e-02	0.0	8.479178e-01	-3.704684e-02	0.0	2.473876e-01	5.650915e-02	0.0	8.699591e-01	-3.337641e-02	0.0	1.041745e-02	1.779327e-02	0.0	8.905137e-01	-2.974709e-02	0.0	7.700774e-02	-5.047916e-02	0.0	9.095093e-01	-2.621490e-02	0.0	-1.809391e-03	-3.265815e-03	0.0	9.424998e-01	-1.935655e-02	0.0	9.268656e-01	-2.278310e-02	0.0	1.790053e-02	-2.809643e-02	0.0	4.257452e-01	-7.335747e-02	0.0	8.591200e-01	-3.520810e-02	0.0	9.563509e-01	-1.580644e-02	0.0	9.784173e-01	-8.771977e-03	0.0	9.683424e-01	-1.217005e-02	0.0	1.582739e-01	-6.419657e-02	0.0	9.002133e-01	-2.796677e-02	0.0	7.604388e-01	-4.956363e-02	0.0	9.971371e-01	-2.088758e-03	0.0	5.990499e-01	-6.546359e-02	0.0	4.414469e-01	-7.301251e-02	0.0	5.363192e-01	-6.935863e-02	0.0	4.730171e-01	-7.209408e-02	0.0	5.046769e-01	-7.087482e-02	0.0	4.888350e-01	-7.152097e-02	0.0	1.249527e-01	-5.976625e-02	0.0	2.780296e-02	-3.366161e-02	0.0	3.945743e-01	-7.381424e-02	0.0	4.618922e-02	-4.138558e-02	0.0	4.101142e-01	-7.362610e-02	0.0	3.187257e-01	-7.355798e-02	0.0	3.486212e-01	-7.390632e-02	0.0	3.347020e-02	-3.630740e-02	0.0	2.895236e-01	-7.288099e-02	0.0	9.349027e-01	-2.107716e-02	0.0	1.468131e-01	-6.281191e-02	0.0	1.946581e-01	-6.777117e-02	0.0	8.578575e-02	-5.252850e-02	0.0	1.045841e-01	-5.634685e-02	0.0	5.678217e-01	-6.755967e-02	0.0	1.700781e-01	-6.548662e-02	0.0	6.145278e-01	-6.431035e-02	0.0	8.804308e-01	-3.155389e-02	0.0	2.262370e-02	-3.092304e-02	0.0	9.952235e-01	-2.873164e-03	0.0	6.683492e-03	-1.924418e-02	0.0	1.845059e-02	2.205543e-02	0.0	9.183959e-01	-2.448982e-02	0.0	9.49656
[...]
POINT_DATA 5233

SCALARS Conservative_1 float 1
LOOKUP_TABLE default
1.199952e+00	1.181880e+00	1.171664e+00	1.165463e+00	1.161128e+00	1.156865e+00	1.150106e+00	1.139205e+00	1.122903e+00	1.101270e+00	1.075546e+00	1.048351e+00	1.024124e+00	1.007025e+00	9.982891e-01	9.960576e-01	9.971027e-01	9.985086e-01	9.984753e-01	9.963871e-01	9.924743e-01	9.873129e-01	9.815056e-01	9.755362e-01	9.696874e-01	9.640663e-01	9.586572e-01	9.534066e-01	9.482442e-01	9.431364e-01	9.380661e-01	9.329862e-01	9.278623e-01	9.227127e-01	9.175944e-01	9.125606e-01	9.076318e-01	9.028157e-01	8.981256e-01	8.935820e-01	8.891865e-01	8.849531e-01	8.808670e-01	8.769502e-01	8.732188e-01	8.697219e-01	8.664391e-01	8.632988e-01	8.601518e-01	8.569957e-01	8.540410e-01	8.516616e-01	8.500224e-01	8.489066e-01	8.477004e-01	8.455885e-01	8.418136e-01	8.361339e-01	8.291419e-01	8.222509e-01	8.167983e-01	8.133104e-01	8.116034e-01	8.111718e-01	8.116044e-01	8.126298e-01	8.141623e-01	8.160996e-01	8.183530e-01	8.208265e-01	8.235852e-01	8.268430e-01	8.308637e-01	8.356777e-01	8.411651e-01	8.471736e-01	8.537995e-01	8.612509e-01	8.695855e-01	8.788439e-01	8.891410e-01	9.005413e-01	9.132086e-01	9.272688e-01	9.429273e-01	9.604801e-01	9.801670e-01	1.002360e+00	1.027559e+00	1.056072e+00	1.088407e+00	1.124970e+00	1.165477e+00	1.209315e+00	1.254651e+00	1.298235e+00	1.331644e+00	1.350730e+00	1.340436e+00	1.311102e+00	1.288977e+00	1.229593e+00	1.113498e+00	1.018121e+00	9.409580e-01	8.821053e-01	8.405588e-01	8.124165e-01	7.929157e-01	7.792912e-01	7.698036e-01	7.632229e-01	7.589383e-01	7.561551e-01	7.544588e-01	7.538265e-01	7.541092e-01	7.550490e-01	7.563050e-01	7.575035e-01	7.585967e-01	7.599021e-01	7.617277e-01	7.639712e-01	7.662191e-01	7.681758e-01	7.698892e-01	7.714994e-01	7.731274e-01	7.748633e-01	7.767810e-01	7.788706e-01	7.810651e-01	7.832791e-01	7.855009e-01	7.877102e-01	7.898218e-01	7.916584e-01	7.933369e-01	7.958034e-01	8.010427e-01	8.107410e-01	8.238464e-01	8.358327e-01	8.426005e-01	8.437292e-01	8.415168e-01	8.389616e-01	8.382136e-01	8.402646e-01	8.449088e-01	8.511861e-01	8.579721e-01	8.646381e-01	8.710582e-01	8.773723e-01	8.837569e-01	8.903825e-01	8.973859e-01	9.047533e-01	9.124185e-01	9.203200e-01	9.284240e-01	9.367185e-01	9.451647e-01	9.537508e-01	9.624292e-01	9.711873e-01	9.799515e-01	9.887263e-01	9.974284e-01	1.005977e+00	1.014309e+00	1.022335e+00	1.030005e+00	1.037292e+00	1.044241e+00	1.051033e+00	1.057933e+00	1.065343e+00	1.073572e+00	1.082726e+00	1.092413e+00	1.101746e+00	1.109433e+00	1.114091e+00	1.114580e+00	1.110505e+00	1.102628e+00	1.093188e+00	1.085404e+00	1.082407e+00	1.086165e+00	1.096562e+00	1.111514e+00	1.129091e+00	1.147907e+00	1.168327e+00	1.192567e+00	1.181115e+00	9.999782e-01	9.999764e-01	9.999642e-01	9.999447e-01	9.999255e-01	9.999030e-01	9.998697e-01	9.998217e-01	9.997666e-01	9.997197e-01	9.996884e-01	9.996983e-01	9.997477e-01	9.998474e-01	9.999328e-01	1.000001e+00	1.000037e+00	1.000059e+00	1.000070e+00	1.000075e+00	1.000076e+00	1.000076e+00	1.000076e+00	1.000077e+00	1.000078e+00	1.000080e+00	1.000085e+00	1.000091e+00	1.000099e+00	1.000111e+00	1.000124e+00	1.000143e+00	1.000158e+00	1.000179e+00	1.000189e+00	1.000190e+00	1.000180e+00	1.000160e+00	1.000145e+00	1.000135e+00	1.000133e+00	1.000126e+00	1.000115e+00	1.000101e+00	1.000083e+00	1.000061e+00	1.000048e+00	1.000038e+00	1.000008e+00	9.999779e-01	9.357894e-01	8.986144e-01	8.482749e-01	9.277792e-01	8.425197e-01	1.183246e+00	1.173916e+00	9.377890e-01	9.078835e-01	1.223345e+00	9.276857e-01	8.783055e-01	1.152609e+00	1.146000e+00	8.845662e-01	9.176095e-01	1.310262e+00	1.137080e+00	1.124667e+00	1.337731e+00	8.941894e-01	9.581068e-01	9.478379e-01	8.011658e-01	9.688047e-01	7.859405e-01	9.800978e-01	8.861751e-01	9.909604e-01	9.082086e-01	9.986314e-01	1.345078e+00	1.004485e+00	1.001172e+00	1.096783e+00	8.515772e-01	9.743984e-01	1.024463e+00	1.108256e+00	1.065755e+00	8.408394e-01	9.953981e-01	9.327601e-01	1.164675e+00	8.817798e-01	8.524685e-01	8.677980e-01	8.556135e-01	8.614744e-01	8.583396e-01	8.598307e-01	1.037397e+00	8.473485e-01	9.698104e-01	8.501686e-01	8.183320e-01	8.287320e-01	1.012272e+00	8.153554e-01	1.001863e+00	8.465612e-01	8.284545e-01	8.964128e-01	8.761169e-01	8.743565e-01	8.359019e-01	8.857730e-01	9.857251e-01	1.065485e+00	1.158371e+00	1.208481e+00	8.263844e-01	1.000458e+00	1.011442e+00	1.088211e+00	1.143316e+00	9.633831e-01	8.182629e-01	8.709911e-01	9.226109e-01	9.427975e-01	8.675038e-01	8.227563e-01	8.779661e-01	9.031883e-01	9.518949e-01	1.248570e+00	1.131307e+00	8.359105e-01	8.318427e-01	1.211228e+00	8.203250e-01	8.857508e-01	8.160720e-01	8.166875e-01	8.536617e-01	9.126933e-01	1.283774e+00	1.318499e+00	8.584843e-01	1.326197e+00	7.939822e-01	7.687476e-01	7.771672e-01	7.675050e-01	8.442524e-01	1.139592e+00	8.516700e-01	8.419709e-01	1.097038e+00	1.106681e+00	1.054283e+00	8.424684e-01	8.471823e-01	8.200563e-01	1.085305e+00	1.068839e+00	7.657528e-01	1.091734e+00	1.107768e+00	1.100584e+00	7.662602e-01	7.667087e-01	7.924096e-01	7.880835e-01	7.754956e-01	7.961273e-01	8.441090e-01	8.338947e-01	7.725944e-01	7.689944e-01	8.977056e-01	7.782845e-01	7.817839e-01	9.122495e-01	8.719671e-01	9.606803e-01	9.439886e-01	9.945060e-01	9.776089e-01	1.026409e+00	1.010955e+00	1.061333e+00	1.040676e+00	1.105613e+00	1.076900e+00	1.102698e+00	1.033684e+00	1.047483e+00	1.002817e+00	1.018827e+00	9.691355e-01	9.860943e-01	9.358066e-01	9.522857e-01	9.048149e-01	9.199156e-01	8.653797e-01	8.909672e-01	7.799248e-01	7.838234e-01	7.741288e-01	7.768440e-01	7.721538e-01	7.708398e-01	8.517711e-01	7.841940e-01	8.254796e-01	9.929742e-01	1.043365e+00	9.529332e-01	8.225602e-01	8.646677e-01	1.064787e+00	8.076266e-01	9.326794e-01	7.659981e-01	7.658324e-01	7.902473e-01	7.666438e-01	1.089113e+00	1.090951e+00	7.944188e-01	1.097962e+00	1.109215e+00	7.978861e-01	8.081999e-01	1.093491e+00	1.206380e+00	1.157567e+00	1.174253e+00	8.899040e-01	9.898440e-01	1.123501e+00	8.459321e-01	1.286724e+00	1.168869e+00	9.212788e-01	8.529075e-01	8.156604e-01	7.784793e-01	1.205458e+00	1.263662e+00	8.206314e-01	9.132446e-01	1.001482e+00	1.198851e+00	8.795561e-01	9.085516e-01	9.427866e-01	1.134190e+00	8.248037e-01	9.737885e-01	9.631159e-01	9.042314e-01	1.317539e+00	8.308188e-01	1.130474e+00	1.041100e+00	8.527892e-01	9.180274e-01	8.995265e-01	8.564102e-01	9.162760e-01	8.485051e-01	9.944928e-01	9.477361e-01	9.645420e-01	8.576885e-01	9.200075e-01	1.022994e+00	7.752314e-01	9.276218e-01	7.802229e-01	1.043957e+00	1.099543e+00	8.035392e-01	8.533770e-01	1.100737e+00	1.050657e+00	1.107344e+00	1.101757e+00	1.093880e+00	7.891705e-01	8.010456e-01	7.872527e-01	7.753262e-01	9.039865e-01	8.341463e-01	9.205001e-01	7.779309e-01	7.894804e-01	1.098187e+00	1.118184e+00	1.057421e+00	8.469024e-01	1.215312e+00	1.145379e+00	1.130971e+00	1.017894e+00	1.141164e+00	1.233851e+00	1.331959e+00	1.316927e+00	1.099002e+00	1.217685e+00	9.441338e-01	1.163441e+00	1.149257e+00	8.500460e-01	8.726534e-01	1.123855e+00	9.846510e-01	8.858295e-01	1.142449e+00	1.332860e+00	8.553798e-01	8.432242e-01	9.683944e-01	7.953560e-01	9.792426e-01	9.898201e-01	9.295268e-01	9.984171e-01	1.003882e+00	1.016167e+00	1.043630e+00	1.026528e+00	1.058713e+00	1.110745e+00	8.666928e-01	9.328988e-01	9.378641e-01	1.155932e+00	8.579974e-01	8.603885e-01	8.633102e-01	1.070184e+00	8.522134e-01	8.542743e-01	8.297920e-01	9.978111e-01	1.006261e+00	1.009833e+00	8.594356e-01	8.932970e-01	8.759252e-01	8.870195e-01	1.077298e+00	1.095054e+00	9.228909e-01	9.278889e-01	8.834843e-01	8.746528e-01	8.794292e-01	8.831240e-01	9.781774e-01	9.603353e-01	1.163837e+00	8.362491e-01	8.429478e-01	8.419893e-01	8.378120e-01	8.278574e-01	8.252664e-01	8.205643e-01	8.218187e-01	8.231564e-01	1.301070e+00	1.267655e+00	7.967224e-01	1.094930e+00	8.595772e-01	8.487446e-01	8.466035e-01	8.471075e-01	1.095413e+00	1.100694e+00	1.078907e+00	8.493953e-01	8.513277e-01	8.313124e-01	1.071582e+00	1.097530e+00	7.807039e-01	7.842326e-01	7.911721e-01	7.932301e-01	7.790709e-01	7.768675e-01	7.758512e-01	9.919390e-01	9.593825e-01	9.512883e-01	9.838634e-01	1.015553e+00	1.064363e+00	1.037160e+00	1.030183e+00	1.007911e+00	1.000013e+00	9.756873e-01	9.675200e-01	9.432857e-01	9.353817e-01	9.125915e-01	9.054123e-01	8.730430e-01	8.663262e-01	8.985762e-01	8.920731e-01	7.854633e-01	7.839007e-01	7.825512e-01	7.813755e-01	8.855184e-01	8.064695e-01	8.193438e-01	9.527739e-01	9.579115e-01	8.664154e-01	8.694993e-01	1.078356e+00	8.360468e-01	7.760258e-01	7.770491e-01	7.993193e-01	7.974371e-01	8.183653e-01	8.087396e-01	1.092453e+00	1.086038e+00	8.910410e-01	8.952241e-01	1.019511e+00	1.297658e+00	8.215551e-01	1.312366e+00	8.543241e-01	8.260860e-01	9.483075e-01	8.749324e-01	1.005780e+00	1.106553e+00	1.100506e+00	1.097175e+00	1.088195e+00	1.115282e+00	1.160265e+00	1.181352e+00	1.153552e+00	1.200917e+00	1.101022e+00	1.285768e+00	9.124654e-01	1.009303e+00	1.132206e+00	8.813637e-01	1.173188e+00	1.220629e+00	9.191360e-01	1.276335e+00	9.238610e-01	1.129244e+00	9.841362e-01	1.189967e+00	8.318728e-01	9.789062e-01	9.144814e-01	1.140044e+00	1.159365e+00	1.095617e+00	8.614500e-01	1.094295e+00	9.208896e-01	1.125413e+00	8.559846e-01	7.985180e-01	8.066080e-01	7.855336e-01	7.942405e-01	1.171414e+00	1.293825e+00	1.190032e+00	9.133196e-01	1.244542e+00	1.054847e+00	9.246479e-01	1.313894e+00	8.592409e-01	8.609104e-01	1.074362e+00	9.887253e-01	1.020150e+00	9.901188e-01	9.282379e-01	1.096905e+00	1.096476e+00	1.053585e+00	1.047067e+00	8.045312e-01	8.006288e-01	7.927618e-01	7.844061e-01	9.054601e-01	9.099152e-01	8.399747e-01	9.479712e-01	7.847244e-01	1.095899e+00	1.135801e+00	1.036161e+00	1.140560e+00	1.249707e+00	1.316119e+00	1.049252e+00	1.186276e+00	1.178597e+00	1.070365e+00	1.123379e+00	8.877321e-01	8.596884e-01	8.508837e-01	9.683757e-01	9.736268e-01	9.892348e-01	9.940385e-01	9.526367e-01	9.380297e-01	9.984014e-01	1.002292e+00	1.028690e+00	1.040552e+00	1.112817e+00	9.385637e-01	9.434486e-01	1.146467e+00	8.628994e-01	8.656585e-01	8.572316e-01	8.587270e-01	1.026471e+00	1.013630e+00	1.019797e+00	8.739102e-01	8.662255e-01	8.781381e-01	8.815352e-01	1.085812e+00	1.100111e+00	9.287005e-01	9.336827e-01	9.013769e-01	8.911606e-01	8.820509e-01	8.851220e-01	8.889138e-01	1.005775e+00	9.864959e-01	9.687215e-01	8.372927e-01	8.436998e-01	8.497186e-01	8.534455e-01	8.484463e-01	8.440082e-01	8.364152e-01	8.332630e-01	8.264074e-01	8.281782e-01	8.306079e-01	8.153883e-01	8.524269e-01	8.514091e-01	1.096738e+00	8.526645e-01	8.545900e-01	8.548392e-01	8.416060e-01	1.073306e+00	7.994056e-01	8.063382e-01	7.964681e-01	7.945643e-01	7.842337e-01	7.841790e-01	7.841629e-01	9.588781e-01	1.066749e+00	1.060103e+00	1.040515e+00	1.033913e+00	1.027199e+00	1.012868e+00	1.005475e+00	9.978602e-01	9.823938e-01	9.745628e-01	9.667171e-01	9.511077e-01	9.433720e-01	9.357605e-01	9.137101e-01	8.745736e-01	8.679345e-01	9.068201e-01	9.002242e-01	8.939139e-01	7.911154e-01	7.896211e-01	7.883830e-01	7.873162e-01	7.864145e-01	8.272585e-01	8.424962e-01	9.532156e-01	9.582349e-01	9.632518e-01	8.686968e-01	8.717840e-01	8.615171e-01	8.847028e-01	7.856009e-01	7.878007e-01	7.905810e-01	8.026818e-01	8.291685e-01	8.178812e-01	8.104040e-01	1.090595e+00	1.085614e+00	1.079733e+00	8.928425e-01	8.969205e-01	9.011208e-01	8.284288e-01	8.268919e-01	1.290841e+00	9.208860e-01	1.128964e+00	1.097336e+00	8.802922e-01	1.264616e+00	1.159761e+00	1.011724e+00	1.016793e+00	1.053509e+00	1.112167e+00	8.600156e-01	1.271926e+00	9.710284e-01	1.206122e+00	1.093015e+00	1.120160e+00	1.176598e+00	9.217569e-01	1.135890e+00	1.185364e+00	1.188098e+00	9.537699e-01	8.669897e-01	1.101572e+00	8.602745e-01	9.332072e-01	8.646086e-01	8.328297e-01	1.100553e+00	8.830944e-01	1.091143e+00	1.088288e+00	9.890277e-01	7.920820e-01	8.023492e-01	1.122627e+00	8.145559e-01	9.844569e-01	1.146375e+00	1.105458e+00	1.144437e+00	1.078737e+00	1.126498e+00	9.203467e-01	1.231732e+00	9.255273e-01	9.296608e-01	1.153142e+00	1.130439e+00	1.179990e+00	1.017506e+00	8.632719e-01	8.085386e-01	1.223099e+00	1.007995e+00	9.295951e-01	1.050206e+00	8.106743e-01	8.065076e-01	8.043650e-01	9.113383e-01	9.163940e-01	1.095567e+00	1.048366e+00	1.092274e+00	1.255166e+00	1.298004e+00	1.076831e+00	1.065582e+00	1.113575e+00	8.906259e-01	9.741673e-01	9.792399e-01	9.894338e-01	9.942781e-01	9.609135e-01	9.464863e-01	9.988092e-01	1.003186e+00	1.007430e+00	1.040858e+00	1.052710e+00	9.440630e-01	9.493658e-01	1.137683e+00	8.661929e-01	8.686439e-01	8.623851e-01	8.635652e-01	1.022892e+00	1.030768e+00	8.819329e-01	8.735356e-01	8.842815e-01	1.091382e+00	1.103153e+00	9.348624e-01	9.402122e-01	9.095756e-01	8.994089e-01	8.905080e-01	8.871482e-01	8.914723e-01	1.032836e+00	1.012840e+00	9.937752e-01	9.764625e-01	8.399987e-01	8.454782e-01	8.512974e-01	8.563945e-01	8.612452e-01	8.559974e-01	8.511391e-01	8.468304e-01	8.430290e-01	8.359125e-01	8.335362e-01	8.397715e-01	8.572486e-01	1.094707e+00	1.094054e+00	8.570776e-01	8.581951e-01	8.588099e-01	8.568354e-01	8.504655e-01	8.236734e-01	8.350579e-01	8.004442e-01	7.988117e-01	7.920067e-01	7.924877e-01	7.934463e-01	7.944329e-01	1.068509e+00	1.062495e+00	1.056424e+00	1.043954e+00	1.037725e+00	1.031479e+00	1.024126e+00	1.011357e+00	1.003436e+00	9.961469e-01	9.812240e-01	9.741054e-01	9.661250e-01	9.591002e-01	9.510451e-01	9.441940e-01	9.361925e-01	8.699987e-01	8.757796e-01	9.155335e-01	9.080911e-01	9.024480e-01	8.955538e-01	7.972496e-01	7.959312e-01	7.946302e-01	7.936379e-01	7.927528e-01	7.922132e-01	8.483556e-01	8.651027e-01	9.590603e-01	9.642952e-01	9.691193e-01	8.716494e-01	8.738567e-01	8.776592e-01	8.858595e-01	9.100734e-01	9.380177e-01	7.958691e-01	7.986389e-01	8.030395e-01	8.081632e-01	8.400672e-01	8.287014e-01	8.195440e-01	8.136612e-01	1.074302e+00	1.084379e+00	1.079732e+00	8.946629e-01	8.992719e-01	9.027474e-01	9.076003e-01	8.369921e-01	8.348231e-01	8.333371e-01	1.146950e+00	1.124983e+00	1.073672e+00	1.177365e+00	1.170654e+00	9.335642e-01	9.296877e-01	1.193312e+00	1.096376e+00	1.235860e+00	1.078255e+00	8.761183e-01	8.002474e-01	1.023365e+00	1.131668e+00	1.237798e+00	1.294271e+00	1.296159e+00	1.283643e+00	1.251586e+00	1.139085e+00	8.152598e-01	1.084693e+00	1.121921e+00	1.025490e+00	9.570816e-01	8.662249e-01	1.115560e+00	1.069942e+00	1.082932e+00	8.806935e-01	8.697665e-01	9.268663e-01	9.841748e-01	8.647908e-01	8.847473e-01	8.170182e-01	1.109297e+00	9.419833e-01	1.165017e+00	1.099531e+00	1.294245e+00	1.182484e+00	1.173407e+00	1.018478e+00	1.057841e+00	1.267780e+00	9.901360e-01	1.215336e+00	1.088639e+00	1.166066e+00	1.177054e+00	1.178091e+00	1.123837e+00	8.403223e-01	8.403068e-01	1.103772e+00	8.924415e-01	1.086170e+00	1.113855e+00	9.246259e-01	1.203643e+00	8.121848e-01	8.107800e-01	8.079756e-01	9.157532e-01	1.058105e+00	1.094760e+00	1.276607e+00	1.101502e+00	9.804420e-01	9.846282e-01	9.901321e-01	9.946455e-01	9.550538e-01	9.696747e-01	9.999029e-01	1.003984e+00	1.009064e+00	1.014266e+00	1.051605e+00	1.062485e+00	9.481851e-01	1.128950e+00	8.694034e-01	8.719890e-01	8.670980e-01	8.688511e-01	1.033117e+00	1.041532e+00	8.897231e-01	8.806048e-01	1.095279e+00	1.105060e+00	9.416589e-01	9.180138e-01	9.070236e-01	9.004341e-01	8.917621e-01	1.038394e+00	1.019255e+00	1.000939e+00	9.850340e-01	8.439877e-01	8.473405e-01	8.531189e-01	8.578036e-01	8.627518e-01	8.685356e-01	8.644103e-01	8.576616e-01	8.544900e-01	8.491564e-01	1.094089e+00	1.092333e+00	1.090636e+00	8.622880e-01	8.635546e-01	8.630714e-01	8.620703e-01	8.572527e-01	8.418359e-01	8.550352e-01	8.069328e-01	8.045368e-01	7.998008e-01	8.029174e-01	8.052085e-01	1.064134e+00	1.058823e+00	1.052834e+00	1.047120e+00	1.040991e+00	1.035168e+00	1.028428e+00	1.018711e+00	1.009461e+00	9.979880e-01	9.698063e-01	9.553495e-01	9.409887e-01	9.134161e-01	9.016506e-01	8.040032e-01	8.019197e-01	8.017578e-01	7.998240e-01	8.002342e-01	7.995343e-01	7.996396e-01	8.703616e-01	8.875670e-01	9.653758e-01	9.699103e-01	9.750557e-01	8.748704e-01	8.785619e-01	9.085381e-01	9.334002e-01	9.601576e-01	8.075657e-01	8.110796e-01	8.166514e-01	8.244912e-01	8.324371e-01	8.492393e-01	8.386779e-01	8.303864e-01	8.222306e-01	1.079268e+00	1.074130e+00	8.992653e-01	9.072722e-01	8.469816e-01	8.428974e-01	8.419105e-01	8.394427e-01	1.166349e+00	1.154091e+00	1.181003e+00	1.257294e+00	1.180728e+00	1.088731e+00	1.106313e+00	1.186640e+00	1.086858e+00	1.141354e+00	1.106205e+00	1.256674e+00	1.079398e+00	1.161009e+00	8.232454e-01	1.177678e+00	1.065005e+00	1.155924e+00	1.140467e+00	1.079433e+00	8.861979e-01	1.101523e+00	8.473891e-01	1.034352e+00	1.023725e+00	9.076528e-01	9.382275e-01	8.803651e-01	1.232004e+00	8.717533e-01	9.647280e-01	9.516088e-01	8.105070e-01	1.094253e+00	1.067217e+00	1.215732e+00	1.034927e+00	1.069933e+00	1.170602e+00	1.097474e+00	1.293186e+00	1.246048e+00	1.114037e+00	9.415112e-01	8.730602e-01	8.692938e-01	1.111869e+00	1.173868e+00	1.129224e+00	1.276865e+00	1.176857e+00	1.061352e+00	1.217486e+00	1.200008e+00	8.919071e-01	1.099648e+00	1.084548e+00	1.081085e+00	8.806994e-01	8.177526e-01	8.135791e-01	9.331208e-01	1.095857e+00	1.126629e+00	1.120785e+00	9.882316e-01	9.978023e-01	9.778914e-01	1.007596e+00	1.016260e+00	1.060336e+00	1.121298e+00	8.742202e-01	1.042736e+00	1.051044e+00	8.933177e-01	1.097661e+00	9.488330e-01	9.563283e-01	9.217791e-01	9.083344e-01	8.926714e-01	1.043265e+00	1.024189e+00	1.006914e+00	9.950955e-01	8.527034e-01	8.615264e-01	8.688512e-01	8.683838e-01	8.586206e-01	1.091601e+00	1.089259e+00	8.678278e-01	8.596305e-01	8.752073e-01	8.105938e-01	8.164050e-01	1.005537e+00	1.057463e+00	1.046444e+00	1.035115e+00	1.024705e+00	1.015476e+00	9.934250e-01	9.800210e-01	9.662385e-01	9.524101e-01	9.385565e-01	9.250477e-01	9.130357e-01	9.027695e-01	8.085494e-01	8.072645e-01	8.075496e-01	8.063561e-01	8.087290e-01	8.923774e-01	9.100984e-01	9.649493e-01	9.731552e-01	9.812390e-01	8.777406e-01	8.812986e-01	9.300279e-01	9.538366e-01	9.795483e-01	1.006066e+00	8.207198e-01	8.248692e-01	8.311497e-01	8.405189e-01	8.523364e-01	8.590065e-01	8.441765e-01	8.321272e-01	1.078685e+00	1.074289e+00	8.999409e-01	9.157994e-01	9.243630e-01	8.514538e-01	8.473326e-01	1.117134e+00	1.166221e+00	1.161431e+00	1.135969e+00	1.021860e+00	1.108194e+00	1.173774e+00	1.135919e+00	1.185846e+00	1.134409e+00	1.147896e+00	1.127069e+00	1.095933e+00	1.196337e+00	1.236964e+00	1.088582e+00	9.491457e-01	8.334193e-01	1.124767e+00	1.015922e+00	1.097842e+00	8.869378e-01	1.070080e+00	1.169497e+00	8.751583e-01	1.042967e+00	9.161760e-01	8.940245e-01	1.083563e+00	1.091560e+00	1.080145e+00	1.064594e+00	1.171293e+00	1.098664e+00	1.102944e+00	1.083289e+00	8.214526e-01	9.029998e-01	9.329239e-01	9.852164e-01	1.150260e+00	1.157054e+00	1.273917e+00	1.075299e+00	1.085789e+00	1.175668e+00	1.099365e+00	1.172017e+00	1.151855e+00	8.883579e-01	1.225970e+00	9.752617e-01	9.596112e-01	1.094854e+00	1.236003e+00	1.067033e+00	1.106774e+00	9.413481e-01	1.255931e+00	1.176210e+00	1.001166e+00	1.213897e+00	1.200687e+00	8.825121e-01	1.116426e+00	1.079941e+00	8.919190e-01	8.262962e-01	9.135562e-01	1.121670e+00	1.146617e+00	9.963893e-01	1.006151e+00	1.024387e+00	1.033500e+00	1.114511e+00	8.779656e-01	1.050796e+00	1.058691e+00	8.698136e-01	9.727798e-01	9.808550e-01	9.565012e-01	9.446429e-01	9.291418e-01	9.142020e-01	1.046158e+00	8.562997e-01	8.622664e-01	8.997499e-01	8.860092e-01	9.244124e-01	1.091553e+00	8.769176e-01	8.741623e-01	8.275976e-01	1.060658e+00	1.050923e+00	1.011931e+00	1.040467e+00	1.030355e+00	1.021098e+00	1.001444e+00	9.893466e-01	9.764142e-01	9.632380e-01	9.499121e-01	9.365991e-01	9.242783e-01	8.181793e-01	8.162890e-01	8.154199e-01	8.155566e-01	8.160314e-01	8.210507e-01	9.127990e-01	9.317603e-01	9.643879e-01	9.882151e-01	8.805227e-01	8.839462e-01	9.503063e-01	9.717347e-01	9.957120e-01	1.019523e+00	1.044305e+00	8.354170e-01	8.418696e-01	8.478804e-01	8.568977e-01	8.699303e-01	8.687480e-01	8.572124e-01	8.438893e-01	1.075344e+00	1.068790e+00	9.008407e-01	9.083159e-01	8.739088e-01	8.643417e-01	8.577459e-01	8.547376e-01	1.152125e+00	1.153288e+00	1.150049e+00	1.120813e+00	1.158799e+00	1.140068e+00	1.116511e+00	1.050036e+00	1.172858e+00	1.120939e+00	1.118152e+00	1.071610e+00	1.165880e+00	1.085048e+00	8.263199e-01	1.137870e+00	1.141857e+00	1.127669e+00	1.169384e+00	1.073869e+00	9.207985e-01	1.023911e+00	1.023972e+00	9.572432e-01	1.133137e+00	1.131759e+00	1.127950e+00	1.171965e+00	1.172477e+00	9.037121e-01	9.