# vtk DataFile Version 3.0
vtk output
ASCII
DATASET UNSTRUCTURED_GRID
POINTS 200 float
9.997500e-01	-3.633254e-05	0.0	9.990000e-01	-1.454797e-04	0.0	9.977600e-01	-3.275885e-04	0.0	9.960200e-01	-5.903658e-04	0.0	9.937800e-01	-9.486834e-04	0.0	9.910500e-01	-1.426502e-03	0.0	9.878400e-01	-2.055579e-03	0.0	9.841300e-01	-2.873534e-03	0.0	9.799500e-01	-3.893527e-03	0.0	9.752800e-01	-5.112946e-03	0.0	9.701500e-01	-6.484048e-03	0.0	9.645400e-01	-7.946852e-03	0.0	9.584700e-01	-9.424016e-03	0.0	9.519400e-01	-1.085857e-02	0.0	9.449600e-01	-1.222162e-02	0.0	9.375400e-01	-1.351743e-02	0.0	9.296900e-01	-1.477371e-02	0.0	9.214000e-01	-1.602938e-02	0.0	9.127000e-01	-1.731206e-02	0.0	9.035800e-01	-1.864292e-02	0.0	8.940600e-01	-2.002545e-02	0.0	8.841500e-01	-2.145473e-02	0.0	8.738500e-01	-2.292225e-02	0.0	8.631800e-01	-2.441569e-02	0.0	8.521600e-01	-2.592425e-02	0.0	8.407700e-01	-2.744485e-02	0.0	8.290500e-01	-2.896826e-02	0.0	8.170100e-01	-3.049074e-02	0.0	8.046400e-01	-3.201157e-02	0.0	7.919700e-01	-3.352514e-02	0.0	7.790100e-01	-3.502819e-02	0.0	7.657800e-01	-3.651610e-02	0.0	7.522800e-01	-3.798628e-02	0.0	7.385200e-01	-3.943484e-02	0.0	7.245300e-01	-4.085584e-02	0.0	7.103200e-01	-4.224561e-02	0.0	6.958900e-01	-4.360156e-02	0.0	6.812700e-01	-4.491847e-02	0.0	6.664700e-01	-4.619333e-02	0.0	6.515000e-01	-4.742341e-02	0.0	6.363800e-01	-4.860545e-02	0.0	6.211300e-01	-4.973661e-02	0.0	6.057600e-01	-5.081516e-02	0.0	5.902800e-01	-5.183960e-02	0.0	5.747100e-01	-5.280805e-02	0.0	5.590600e-01	-5.371953e-02	0.0	5.433600e-01	-5.457219e-02	0.0	5.276100e-01	-5.536606e-02	0.0	5.118400e-01	-5.609976e-02	0.0	4.960500e-01	-5.677350e-02	0.0	4.802700e-01	-5.738620e-02	0.0	4.645100e-01	-5.793775e-02	0.0	4.487800e-01	-5.842795e-02	0.0	4.331100e-01	-5.885598e-02	0.0	4.175000e-01	-5.922185e-02	0.0	4.019700e-01	-5.952489e-02	0.0	3.865400e-01	-5.976442e-02	0.0	3.712300e-01	-5.993971e-02	0.0	3.560400e-01	-6.005012e-02	0.0	3.409900e-01	-6.009458e-02	0.0	3.261100e-01	-6.007206e-02	0.0	3.114000e-01	-5.998143e-02	0.0	2.968700e-01	-5.982130e-02	0.0	2.825500e-01	-5.959052e-02	0.0	2.684500e-01	-5.928767e-02	0.0	2.545700e-01	-5.891096e-02	0.0	2.409400e-01	-5.845931e-02	0.0	2.275700e-01	-5.793119e-02	0.0	2.144700e-01	-5.732504e-02	0.0	2.016600e-01	-5.663987e-02	0.0	1.891400e-01	-5.587366e-02	0.0	1.769300e-01	-5.502559e-02	0.0	1.650400e-01	-5.409442e-02	0.0	1.534900e-01	-5.307990e-02	0.0	1.422900e-01	-5.198130e-02	0.0	1.314400e-01	-5.079691e-02	0.0	1.209500e-01	-4.952596e-02	0.0	1.108500e-01	-4.817070e-02	0.0	1.011300e-01	-4.672846e-02	0.0	9.181000e-02	-4.520083e-02	0.0	8.290000e-02	-4.358840e-02	0.0	7.440000e-02	-4.189003e-02	0.0	6.633000e-02	-4.010873e-02	0.0	5.869000e-02	-3.824375e-02	0.0	5.149000e-02	-3.629665e-02	0.0	4.474000e-02	-3.426953e-02	0.0	3.844000e-02	-3.216170e-02	0.0	3.260000e-02	-2.997571e-02	0.0	2.723000e-02	-2.771502e-02	0.0	2.232000e-02	-2.537434e-02	0.0	1.790000e-02	-2.296787e-02	0.0	1.395000e-02	-2.048463e-02	0.0	1.049000e-02	-1.793645e-02	0.0	7.520000e-03	-1.532480e-02	0.0	5.040000e-03	-1.265080e-02	0.0	3.050000e-03	-9.914381e-03	0.0	1.560000e-03	-7.133644e-03	0.0	5.600000e-04	-4.291014e-03	0.0	6.000000e-05	-1.402986e-03	0.0	0.000000e+00	0.000000e+00	0.0	6.000000e-05	1.283174e-03	0.0	5.600000e-04	3.709671e-03	0.0	1.560000e-03	5.947846e-03	0.0	3.050000e-03	8.040593e-03	0.0	5.040000e-03	1.002974e-02	0.0	7.520000e-03	1.192067e-02	0.0	1.049000e-02	1.372738e-02	0.0	1.395000e-02	1.545991e-02	0.0	1.790000e-02	1.712600e-02	0.0	2.232000e-02	1.872520e-02	0.0	2.723000e-02	2.027108e-02	0.0	3.260000e-02	2.175969e-02	0.0	3.844000e-02	2.319922e-02	0.0	4.474000e-02	2.459145e-02	0.0	5.149000e-02	2.593822e-02	0.0	5.869000e-02	2.724303e-02	0.0	6.633000e-02	2.850705e-02	0.0	7.440000e-02	2.973138e-02	0.0	8.290000e-02	3.091832e-02	0.0	9.181000e-02	3.206715e-02	0.0	1.011300e-01	3.317971e-02	0.0	1.108500e-01	3.425626e-02	0.0	1.209500e-01	3.529594e-02	0.0	1.314400e-01	3.630079e-02	0.0	1.422900e-01	3.726872e-02	0.0	1.534900e-01	3.819962e-02	0.0	1.650400e-01	3.909392e-02	0.0	1.769300e-01	3.995102e-02	0.0	1.891400e-01	4.076951e-02	0.0	2.016600e-01	4.154862e-02	0.0	2.144700e-01	4.228688e-02	0.0	2.275700e-01	4.298384e-02	0.0	2.409400e-01	4.363779e-02	0.0	2.545700e-01	4.424746e-02	0.0	2.684500e-01	4.481143e-02	0.0	2.825500e-01	4.532741e-02	0.0	2.968700e-01	4.579420e-02	0.0	3.114000e-01	4.621003e-02	0.0	3.261100e-01	4.657253e-02	0.0	3.409900e-01	4.687985e-02	0.0	3.560400e-01	4.713020e-02	0.0	3.712300e-01	4.732114e-02	0.0	3.865400e-01	4.745053e-02	0.0	4.019700e-01	4.751635e-02	0.0	4.175000e-01	4.751637e-02	0.0	4.331100e-01	4.744847e-02	0.0	4.487800e-01	4.731065e-02	0.0	4.645100e-01	4.710082e-02	0.0	4.802700e-01	4.681729e-02	0.0	4.960500e-01	4.645832e-02	0.0	5.118400e-01	4.602225e-02	0.0	5.276100e-01	4.550827e-02	0.0	5.433600e-01	4.491492e-02	0.0	5.590600e-01	4.424212e-02	0.0	5.747100e-01	4.348896e-02	0.0	5.902800e-01	4.265631e-02	0.0	6.057600e-01	4.174461e-02	0.0	6.211300e-01	4.075537e-02	0.0	6.363800e-01	3.969008e-02	0.0	6.515000e-01	3.855073e-02	0.0	6.664700e-01	3.734070e-02	0.0	6.812700e-01	3.606417e-02	0.0	6.958900e-01	3.472521e-02	0.0	7.103200e-01	3.332853e-02	0.0	7.245300e-01	3.188156e-02	0.0	7.385200e-01	3.038948e-02	0.0	7.522800e-01	2.885906e-02	0.0	7.657800e-01	2.730002e-02	0.0	7.790100e-01	2.572054e-02	0.0	7.919700e-01	2.412814e-02	0.0	8.046400e-01	2.253318e-02	0.0	8.170100e-01	2.094522e-02	0.0	8.290500e-01	1.937654e-02	0.0	8.407700e-01	1.783392e-02	0.0	8.521600e-01	1.632580e-02	0.0	8.631800e-01	1.486294e-02	0.0	8.738500e-01	1.344575e-02	0.0	8.841500e-01	1.207723e-02	0.0	8.940600e-01	1.075823e-02	0.0	9.035800e-01	9.486717e-03	0.0	9.127000e-01	8.265095e-03	0.0	9.214000e-01	7.104258e-03	0.0	9.296900e-01	6.021191e-03	0.0	9.375400e-01	5.047603e-03	0.0	9.449600e-01	4.213690e-03	0.0	9.519400e-01	3.545133e-03	0.0	9.584700e-01	3.048055e-03	0.0	9.645400e-01	2.701192e-03	0.0	9.701500e-01	2.457656e-03	0.0	9.752800e-01	2.259063e-03	0.0	9.799500e-01	2.051153e-03	0.0	9.841300e-01	1.802907e-03	0.0	9.878400e-01	1.507645e-03	0.0	9.910500e-01	1.184824e-03	0.0	9.937800e-01	8.610795e-04	0.0	9.960200e-01	5.660894e-04	0.0	9.977600e-01	3.230889e-04	0.0	9.990000e-01	1.450693e-04	0.0	9.997500e-01	3.632604e-05	0.0	1.000000e+00	0.000000e+00	0.0	
CELLS 200	600
2	199	0	2	0	1	2	1	2	2	2	3	2	3	4	2	4	5	2	5	6	2	6	7	2	7	8	2	8	9	2	9	10	2	10	11	2	11	12	2	12	13	2	13	14	2	14	15	2	15	16	2	16	17	2	17	18	2	18	19	2	19	20	2	20	21	2	21	22	2	22	23	2	23	24	2	24	25	2	25	26	2	26	27	2	27	28	2	28	29	2	29	30	2	30	31	2	31	32	2	32	33	2	33	34	2	34	35	2	35	36	2	36	37	2	37	38	2	38	39	2	39	40	2	40	41	2	41	42	2	42	43	2	43	44	2	44	45	2	45	46	2	46	47	2	47	48	2	48	49	2	49	50	2	50	51	2	51	52	2	52	53	2	53	54	2	54	55	2	55	56	2	56	57	2	57	58	2	58	59	2	59	60	2	60	61	2	61	62	2	62	63	2	63	64	2	64	65	2	65	66	2	66	67	2	67	68	2	68	69	2	69	70	2	70	71	2	71	72	2	72	73	2	73	74	2	74	75	2	75	76	2	76	77	2	77	78	2	78	79	2	79	80	2	80	81	2	81	82	2	82	83	2	83	84	2	84	85	2	85	86	2	86	87	2	87	88	2	88	89	2	89	90	2	90	91	2	91	92	2	92	93	2	93	94	2	94	95	2	95	96	2	96	97	2	97	98	2	98	99	2	99	100	2	100	101	2	101	102	2	102	103	2	103	104	2	104	105	2	105	106	2	106	107	2	107	108	2	108	109	2	109	110	2	110	111	2	111	112	2	112	113	2	113	114	2	114	115	2	115	116	2	116	117	2	117	118	2	118	119	2	119	120	2	120	121	2	121	122	2	122	123	2	123	124	2	124	125	2	125	126	2	126	127	2	127	128	2	128	129	2	129	130	2	130	131	2	131	132	2	132	133	2	133	134	2	134	135	2	135	136	2	136	137	2	137	138	2	138	139	2	139	140	2	140	141	2	141	142	2	142	143	2	143	144	2	144	145	2	145	146	2	146	147	2	147	148	2	148	149	2	149	150	2	150	151	2	151	152	2	152	153	2	153	154	2	154	155	2	155	156	2	156	157	2	157	158	2	158	159	2	159	160	2	160	161	2	161	162	2	162	163	2	163	164	2	164	165	2	165	166	2	166	167	2	167	168	2	168	169	2	169	170	2	170	171	2	171	172	2	172	173	2	173	174	2	174	175	2	175	176	2	176	177	2	177	178	2	178	179	2	179	180	2	180	181	2	181	182	2	182	183	2	183	184	2	184	185	2	185	186	2	186	187	2	187	188	2	188	189	2	189	190	2	190	191	2	191	192	2	192	193	2	193	194	2	194	195	2	195	196	2	196	197	2	197	198	2	198	199	
CELL_TYPES 200
3	3	3	3	3	3	3	3	3	3	3	3	3	3	3	3	3	3	3	3	3	3	3	3	3	3	3	3	3	3	3	3	3	3	3	3	3	3	3	3	3	3	3	3	3	3	3	3	3	3	3	3	3	3	3	3	3	3	3	3	3	3	3	3	3	3	3	3	3	3	3	3	3	3	3	3	3	3	3	3	3	3	3	3	3	3	3	3	3	3	3	3	3	3	3	3	3	3	3	3	3	3	3	3	3	3	3	3	3	3	3	3	3	3	3	3	3	3	3	3	3	3	3	3	3	3	3	3	3	3	3	3	3	3	3	3	3	3	3	3	3	3	3	3	3	3	3	3	3	3	3	3	3	3	3	3	3	3	3	3	3	3	3	3	3	3	3	3	3	3	3	3	3	3	3	3	3	3	3	3	3	3	3	3	3	3	3	3	3	3	3	3	3	3	3	3	3	3	3	3	
POINT_DATA 200

SCALARS Conservative_1 float 1
LOOKUP_TABLE default
1.199952e+00	1.181880e+00	1.171664e+00	1.165463e+00	1.161128e+00	1.156865e+00	1.150106e+00	1.139205e+00	1.122903e+00	1.101270e+00	1.075546e+00	1.048351e+00	1.024124e+00	1.007025e+00	9.982891e-01	9.960576e-01	9.971027e-01	9.985086e-01	9.984753e-01	9.963871e-01	9.924743e-01	9.873129e-01	9.815056e-01	9.755362e-01	9.696874e-01	9.640663e-01	9.586572e-01	9.534066e-01	9.482442e-01	9.431364e-01	9.380661e-01	9.329862e-01	9.278623e-01	9.227127e-01	9.175944e-01	9.125606e-01	9.076318e-01	9.028157e-01	8.981256e-01	8.935820e-01	8.891865e-01	8.849531e-01	8.808670e-01	8.769502e-01	8.732188e-01	8.697219e-01	8.664391e-01	8.632988e-01	8.601518e-01	8.569957e-01	8.540410e-01	8.516616e-01	8.500224e-01	8.489066e-01	8.477004e-01	8.455885e-01	8.418136e-01	8.361339e-01	8.291419e-01	8.222509e-01	8.167983e-01	8.133104e-01	8.116034e-01	8.111718e-01	8.116044e-01	8.126298e-01	8.141623e-01	8.160996e-01	8.183530e-01	8.208265e-01	8.235852e-01	8.268430e-01	8.308637e-01	8.356777e-01	8.411651e-01	8.471736e-01	8.537995e-01	8.612509e-01	8.695855e-01	8.788439e-01	8.891410e-01	9.005413e-01	9.132086e-01	9.272688e-01	9.429273e-01	9.604801e-01	9.801670e-01	1.002360e+00	1.027559e+00	1.056072e+00	1.088407e+00	1.124970e+00	1.165477e+00	1.209315e+00	1.254651e+00	1.298235e+00	1.331644e+00	1.350730e+00	1.340436e+00	1.311102e+00	1.288977e+00	1.229593e+00	1.113498e+00	1.018121e+00	9.409580e-01	8.821053e-01	8.405588e-01	8.124165e-01	7.929157e-01	7.792912e-01	7.698036e-01	7.632229e-01	7.589383e-01	7.561551e-01	7.544588e-01	7.538265e-01	7.541092e-01	7.550490e-01	7.563050e-01	7.575035e-01	7.585967e-01	7.599021e-01	7.617277e-01	7.639712e-01	7.662191e-01	7.681758e-01	7.698892e-01	7.714994e-01	7.731274e-01	7.748633e-01	7.767810e-01	7.788706e-01	7.810651e-01	7.832791e-01	7.855009e-01	7.877102e-01	7.898218e-01	7.916584e-01	7.933369e-01	7.958034e-01	8.010427e-01	8.107410e-01	8.238464e-01	8.358327e-01	8.426005e-01	8.437292e-01	8.415168e-01	8.389616e-01	8.382136e-01	8.402646e-01	8.449088e-01	8.511861e-01	8.579721e-01	8.646381e-01	8.710582e-01	8.773723e-01	8.837569e-01	8.903825e-01	8.973859e-01	9.047533e-01	9.124185e-01	9.203200e-01	9.284240e-01	9.367185e-01	9.451647e-01	9.537508e-01	9.624292e-01	9.711873e-01	9.799515e-01	9.887263e-01	9.974284e-01	1.005977e+00	1.014309e+00	1.022335e+00	1.030005e+00	1.037292e+00	1.044241e+00	1.051033e+00	1.057933e+00	1.065343e+00	1.073572e+00	1.082726e+00	1.092413e+00	1.101746e+00	1.109433e+00	1.114091e+00	1.114580e+00	1.110505e+00	1.102628e+00	1.093188e+00	1.085404e+00	1.082407e+00	1.086165e+00	1.096562e+00	1.111514e+00	1.129091e+00	1.147907e+00	1.168327e+00	1.192567e+00	1.181115e+00	
SCALARS Conservative_2 float 1
LOOKUP_TABLE default
7.192460e-01	7.453676e-01	7.631580e-01	7.736224e-01	7.791431e-01	7.835755e-01	7.891187e-01	7.986513e-01	8.137113e-01	8.343696e-01	8.588930e-01	8.838867e-01	9.055879e-01	9.215266e-01	9.310791e-01	9.352408e-01	9.361028e-01	9.358055e-01	9.358409e-01	9.368329e-01	9.388348e-01	9.415384e-01	9.445617e-01	9.476104e-01	9.504999e-01	9.531670e-01	9.556108e-01	9.578771e-01	9.599774e-01	9.619462e-01	9.638191e-01	9.655877e-01	9.672680e-01	9.688551e-01	9.703357e-01	9.716983e-01	9.729561e-01	9.740920e-01	9.751146e-01	9.760409e-01	9.768511e-01	9.775818e-01	9.782055e-01	9.787613e-01	9.792166e-01	9.796155e-01	9.799357e-01	9.802309e-01	9.804674e-01	9.806855e-01	9.808268e-01	9.809201e-01	9.809477e-01	9.809586e-01	9.809699e-01	9.810301e-01	9.810973e-01	9.810971e-01	9.808523e-01	9.803415e-01	9.797395e-01	9.792028e-01	9.788487e-01	9.786218e-01	9.785224e-01	9.784490e-01	9.784225e-01	9.783675e-01	9.782989e-01	9.781474e-01	9.779322e-01	9.776061e-01	9.771795e-01	9.765726e-01	9.757713e-01	9.746307e-01	9.731705e-01	9.713001e-01	9.687741e-01	9.654420e-01	9.612065e-01	9.557597e-01	9.488285e-01	9.399694e-01	9.286389e-01	9.140757e-01	8.952964e-01	8.711696e-01	8.400625e-01	7.997587e-01	7.477363e-01	6.809910e-01	5.960345e-01	4.910916e-01	3.669465e-01	2.320086e-01	1.055908e-01	1.166393e-02	-2.013709e-02	5.248718e-03	6.932914e-02	2.001907e-01	3.973015e-01	5.740565e-01	7.027392e-01	7.882712e-01	8.430048e-01	8.779763e-01	9.004822e-01	9.154960e-01	9.258624e-01	9.331382e-01	9.386036e-01	9.428162e-01	9.461522e-01	9.490025e-01	9.514446e-01	9.535655e-01	9.554623e-01	9.570950e-01	9.585389e-01	9.599259e-01	9.612913e-01	9.625466e-01	9.636813e-01	9.646695e-01	9.655653e-01	9.663794e-01	9.671661e-01	9.679225e-01	9.686872e-01	9.694373e-01	9.701775e-01	9.708768e-01	9.715521e-01	9.721764e-01	9.727531e-01	9.732710e-01	9.738431e-01	9.746361e-01	9.759205e-01	9.775300e-01	9.787270e-01	9.790568e-01	9.789445e-01	9.788470e-01	9.789005e-01	9.790899e-01	9.792770e-01	9.794880e-01	9.796229e-01	9.796031e-01	9.793607e-01	9.789602e-01	9.784232e-01	9.777522e-01	9.769428e-01	9.759142e-01	9.746534e-01	9.731157e-01	9.713037e-01	9.691986e-01	9.667968e-01	9.640872e-01	9.610611e-01	9.577176e-01	9.540506e-01	9.501014e-01	9.458011e-01	9.412610e-01	9.364868e-01	9.314957e-01	9.264063e-01	9.212748e-01	9.161594e-01	9.110895e-01	9.060092e-01	9.007919e-01	8.951347e-01	8.887259e-01	8.812139e-01	8.725850e-01	8.632763e-01	8.544109e-01	8.475903e-01	8.444467e-01	8.460383e-01	8.522795e-01	8.616660e-01	8.714274e-01	8.781006e-01	8.789060e-01	8.724799e-01	8.596021e-01	8.410908e-01	8.185923e-01	7.919099e-01	7.600405e-01	7.214465e-01	6.622547e-01	
SCALARS Conservative_3 float 1
LOOKUP_TABLE default
1.010058e-01	1.066289e-01	1.128522e-01	1.198643e-01	1.305210e-01	1.455371e-01	1.645530e-01	1.856087e-01	2.054895e-01	2.201774e-01	2.263915e-01	2.224852e-01	2.093857e-01	1.909455e-01	1.720139e-01	1.563658e-01	1.456954e-01	1.397668e-01	1.372025e-01	1.363365e-01	1.358485e-01	1.349653e-01	1.334042e-01	1.312006e-01	1.285327e-01	1.256072e-01	1.225605e-01	1.194816e-01	1.163938e-01	1.132811e-01	1.101294e-01	1.069154e-01	1.036269e-01	1.002551e-01	9.678515e-02	9.323252e-02	8.959426e-02	8.589035e-02	8.212788e-02	7.832077e-02	7.448315e-02	7.062441e-02	6.676357e-02	6.290403e-02	5.905344e-02	5.520561e-02	5.136562e-02	4.754793e-02	4.377573e-02	4.005429e-02	3.634976e-02	3.260796e-02	2.880572e-02	2.491978e-02	2.096066e-02	1.696371e-02	1.298899e-02	9.073046e-03	5.151739e-03	1.031951e-03	-3.378578e-03	-8.063520e-03	-1.299712e-02	-1.815456e-02	-2.357155e-02	-2.927844e-02	-3.533698e-02	-4.176599e-02	-4.860102e-02	-5.586671e-02	-6.362010e-02	-7.193547e-02	-8.088598e-02	-9.050421e-02	-1.008336e-01	-1.119372e-01	-1.239365e-01	-1.369091e-01	-1.509346e-01	-1.661507e-01	-1.826845e-01	-2.006586e-01	-2.202406e-01	-2.415721e-01	-2.647818e-01	-2.899865e-01	-3.172437e-01	-3.464688e-01	-3.772133e-01	-4.086335e-01	-4.390842e-01	-4.652002e-01	-4.816094e-01	-4.796884e-01	-4.466420e-01	-3.679593e-01	-2.334611e-01	-4.304886e-02	1.763361e-01	3.381746e-01	4.800908e-01	6.457664e-01	7.176039e-01	6.932935e-01	6.227675e-01	5.411482e-01	4.659056e-01	4.022848e-01	3.499791e-01	3.069798e-01	2.716970e-01	2.423562e-01	2.177551e-01	1.969006e-01	1.790151e-01	1.635502e-01	1.500957e-01	1.382778e-01	1.278239e-01	1.184501e-01	1.099306e-01	1.021810e-01	9.515226e-02	8.875705e-02	8.286653e-02	7.731492e-02	7.206116e-02	6.707548e-02	6.235501e-02	5.785150e-02	5.353347e-02	4.936745e-02	4.531855e-02	4.134741e-02	3.743265e-02	3.356455e-02	2.972983e-02	2.587667e-02	2.191231e-02	1.777562e-02	1.357150e-02	9.611387e-03	6.162087e-03	2.762653e-03	-1.253665e-03	-5.848039e-03	-1.073067e-02	-1.561998e-02	-2.040675e-02	-2.512923e-02	-2.981979e-02	-3.457483e-02	-3.946069e-02	-4.453616e-02	-4.973710e-02	-5.500550e-02	-6.030002e-02	-6.559828e-02	-7.086889e-02	-7.609045e-02	-8.122712e-02	-8.626136e-02	-9.113281e-02	-9.581576e-02	-1.002441e-01	-1.043955e-01	-1.081996e-01	-1.116214e-01	-1.146048e-01	-1.171050e-01	-1.190777e-01	-1.204867e-01	-1.213301e-01	-1.216310e-01	-1.214625e-01	-1.209732e-01	-1.203446e-01	-1.197628e-01	-1.193068e-01	-1.188115e-01	-1.177297e-01	-1.151328e-01	-1.098595e-01	-1.009858e-01	-8.830774e-02	-7.277354e-02	-5.662223e-02	-4.306187e-02	-3.548375e-02	-3.621355e-02	-4.537417e-02	-6.063505e-02	-7.799446e-02	-9.352169e-02	-1.043594e-01	-1.095604e-01	-1.102288e-01	-1.061974e-01	-1.003232e-01	2.656063e-03	
SCALARS Conservative_4 float 1
LOOKUP_TABLE default
3.446686e+00	3.401448e+00	3.376676e+00	3.361745e+00	3.351183e+00	3.340811e+00	3.324028e+00	3.296883e+00	3.256213e+00	3.202195e+00	3.137847e+00	3.069572e+00	3.008557e+00	2.965468e+00	2.943481e+00	2.937853e+00	2.940434e+00	2.943896e+00	2.943714e+00	2.938326e+00	2.928320e+00	2.915143e+00	2.900310e+00	2.885046e+00	2.870066e+00	2.855647e+00	2.841749e+00	2.828242e+00	2.814941e+00	2.801765e+00	2.788676e+00	2.775547e+00	2.762289e+00	2.748950e+00	2.735676e+00	2.722606e+00	2.709797e+00	2.697264e+00	2.685044e+00	2.673197e+00	2.661719e+00	2.650659e+00	2.639967e+00	2.629714e+00	2.619930e+00	2.610758e+00	2.602135e+00	2.593890e+00	2.585619e+00	2.577327e+00	2.569549e+00	2.563277e+00	2.558936e+00	2.555970e+00	2.552772e+00	2.547216e+00	2.537303e+00	2.522381e+00	2.503958e+00	2.485736e+00	2.471270e+00	2.461978e+00	2.457415e+00	2.456238e+00	2.457373e+00	2.460080e+00	2.464144e+00	2.469276e+00	2.475253e+00	2.481804e+00	2.489112e+00	2.497727e+00	2.508354e+00	2.521056e+00	2.535528e+00	2.551336e+00	2.568760e+00	2.588337e+00	2.610170e+00	2.634351e+00	2.661198e+00	2.690837e+00	2.723684e+00	2.760024e+00	2.800344e+00	2.845350e+00	2.895580e+00	2.951944e+00	3.015627e+00	3.087250e+00	3.168016e+00	3.258804e+00	3.358639e+00	3.465959e+00	3.576180e+00	3.681864e+00	3.762299e+00	3.809291e+00	3.783406e+00	3.709793e+00	3.661013e+00	3.520577e+00	3.226400e+00	2.984801e+00	2.787374e+00	2.635608e+00	2.528060e+00	2.455031e+00	2.404194e+00	2.368532e+00	2.343637e+00	2.326278e+00	2.314972e+00	2.307630e+00	2.303161e+00	2.301545e+00	2.302356e+00	2.304907e+00	2.308316e+00	2.311571e+00	2.314556e+00	2.318127e+00	2.323088e+00	2.329132e+00	2.335177e+00	2.340440e+00	2.345059e+00	2.349400e+00	2.353793e+00	2.358470e+00	2.363634e+00	2.369250e+00	2.375145e+00	2.381086e+00	2.387047e+00	2.392965e+00	2.398620e+00	2.403545e+00	2.408083e+00	2.414757e+00	2.428840e+00	2.454694e+00	2.489370e+00	2.520894e+00	2.538626e+00	2.541564e+00	2.535783e+00	2.529158e+00	2.527286e+00	2.532778e+00	2.545066e+00	2.561615e+00	2.579457e+00	2.596963e+00	2.613806e+00	2.630356e+00	2.647075e+00	2.664392e+00	2.682666e+00	2.701853e+00	2.721780e+00	2.742282e+00	2.763270e+00	2.784712e+00	2.806501e+00	2.828610e+00	2.850909e+00	2.873378e+00	2.895799e+00	2.918216e+00	2.940404e+00	2.962151e+00	2.983314e+00	3.003668e+00	3.023089e+00	3.041516e+00	3.059055e+00	3.076169e+00	3.093509e+00	3.112090e+00	3.132667e+00	3.155514e+00	3.179658e+00	3.202921e+00	3.222130e+00	3.233870e+00	3.235287e+00	3.225321e+00	3.205786e+00	3.182214e+00	3.162610e+00	3.154843e+00	3.163920e+00	3.189724e+00	3.226810e+00	3.270355e+00	3.316673e+00	3.366712e+00	3.426612e+00	3.383811e+00	
SCALARS Pressure float 1
LOOKUP_TABLE default
1.290751e+00	1.264640e+00	1.249081e+00	1.239528e+00	1.232974e+00	1.226515e+00	1.216615e+00	1.200724e+00	1.177033e+00	1.145643e+00	1.108432e+00	1.069341e+00	1.034707e+00	1.010289e+00	9.977858e-01	9.946043e-01	9.961489e-01	9.982376e-01	9.982880e-01	9.954318e-01	9.899902e-01	9.827900e-01	9.746958e-01	9.663924e-01	9.582807e-01	9.505076e-01	9.430509e-01	9.358283e-01	9.287478e-01	9.217584e-01	9.148289e-01	9.079027e-01	9.009315e-01	8.939403e-01	8.870068e-01	8.802036e-01	8.735534e-01	8.670722e-01	8.607751e-01	8.546841e-01	8.488082e-01	8.431552e-01	8.377148e-01	8.325046e-01	8.275570e-01	8.229233e-01	8.185852e-01	8.144321e-01	8.102795e-01	8.061108e-01	8.022233e-01	7.991018e-01	7.969712e-01	7.955314e-01	7.939671e-01	7.911853e-01	7.861958e-01	7.786941e-01	7.695124e-01	7.605286e-01	7.534680e-01	7.489889e-01	7.468129e-01	7.462861e-01	7.468585e-01	7.482002e-01	7.501863e-01	7.527030e-01	7.556227e-01	7.588370e-01	7.624207e-01	7.666674e-01	7.719143e-01	7.782177e-01	7.854102e-01	7.933237e-01	8.020596e-01	8.118999e-01	8.229730e-01	8.353436e-01	8.491498e-01	8.645199e-01	8.816830e-01	9.008538e-01	9.223536e-01	9.466467e-01	9.741410e-01	1.005396e+00	1.041200e+00	1.082146e+00	1.129040e+00	1.182601e+00	1.242689e+00	1.308443e+00	1.377208e+00	1.443595e+00	1.495059e+00	1.523422e+00	1.508663e+00	1.466468e+00	1.427897e+00	1.333882e+00	1.169715e+00	1.034765e+00	9.275487e-01	8.469633e-01	7.904841e-01	7.524071e-01	7.262545e-01	7.081264e-01	6.955643e-01	6.869430e-01	6.813329e-01	6.776866e-01	6.754589e-01	6.745787e-01	6.748837e-01	6.760429e-01	6.775929e-01	6.790689e-01	6.804004e-01	6.819828e-01	6.842302e-01	6.870431e-01	6.898723e-01	6.923348e-01	6.944799e-01	6.964965e-01	6.985307e-01	7.007074e-01	7.031146e-01	7.057482e-01	7.085166e-01	7.113169e-01	7.141278e-01	7.169318e-01	7.196136e-01	7.219395e-01	7.240283e-01	7.270921e-01	7.336946e-01	7.461287e-01	7.631938e-01	7.789914e-01	7.879797e-01	7.894970e-01	7.865434e-01	7.830805e-01	7.819992e-01	7.846050e-01	7.906526e-01	7.988863e-01	8.078352e-01	8.166469e-01	8.251502e-01	8.335293e-01	8.420163e-01	8.508577e-01	8.602324e-01	8.701327e-01	8.804679e-01	8.911613e-01	9.021679e-01	9.134734e-01	9.250292e-01	9.368186e-01	9.487819e-01	9.608907e-01	9.730708e-01	9.852974e-01	9.974648e-01	1.009468e+00	1.021199e+00	1.032532e+00	1.043392e+00	1.053736e+00	1.063633e+00	1.073333e+00	1.083235e+00	1.093908e+00	1.105820e+00	1.119111e+00	1.133213e+00	1.146797e+00	1.157937e+00	1.164584e+00	1.165100e+00	1.158975e+00	1.147413e+00	1.133715e+00	1.122587e+00	1.118525e+00	1.124281e+00	1.139525e+00	1.161473e+00	1.187320e+00	1.215289e+00	1.245867e+00	1.281669e+00	1.279257e+00	
SCALARS Temperature float 1
LOOKUP_TABLE default
1.075669e+00	1.070024e+00	1.066074e+00	1.063550e+00	1.061877e+00	1.060206e+00	1.057829e+00	1.054002e+00	1.048205e+00	1.040293e+00	1.030576e+00	1.020022e+00	1.010333e+00	1.003241e+00	9.994958e-01	9.985409e-01	9.990435e-01	9.997286e-01	9.998124e-01	9.990412e-01	9.974971e-01	9.954190e-01	9.930619e-01	9.906269e-01	9.882367e-01	9.859360e-01	9.837206e-01	9.815626e-01	9.794395e-01	9.773331e-01	9.752286e-01	9.731149e-01	9.709754e-01	9.688176e-01	9.666655e-01	9.645426e-01	9.624536e-01	9.604088e-01	9.584128e-01	9.564697e-01	9.545896e-01	9.527682e-01	9.510117e-01	9.493180e-01	9.477086e-01	9.461913e-01	9.447694e-01	9.433954e-01	9.420191e-01	9.406242e-01	9.393265e-01	9.382855e-01	9.375886e-01	9.371248e-01	9.366129e-01	9.356624e-01	9.339309e-01	9.313031e-01	9.280829e-01	9.249349e-01	9.224651e-01	9.209139e-01	9.201697e-01	9.200100e-01	9.202248e-01	9.207147e-01	9.214211e-01	9.223176e-01	9.233456e-01	9.244792e-01	9.257339e-01	9.272224e-01	9.290504e-01	9.312414e-01	9.337171e-01	9.364358e-01	9.394003e-01	9.426985e-01	9.463968e-01	9.505027e-01	9.550226e-01	9.600002e-01	9.654782e-01	9.715131e-01	9.781810e-01	9.855975e-01	9.938520e-01	1.003029e+00	1.013275e+00	1.024690e+00	1.037332e+00	1.051229e+00	1.066249e+00	1.081971e+00	1.097682e+00	1.111968e+00	1.122717e+00	1.127850e+00	1.125502e+00	1.118500e+00	1.107775e+00	1.084816e+00	1.050487e+00	1.016347e+00	9.857493e-01	9.601612e-01	9.404269e-01	9.261347e-01	9.159290e-01	9.086801e-01	9.035608e-01	9.000556e-01	8.977448e-01	8.962269e-01	8.952893e-01	8.948726e-01	8.949416e-01	8.953629e-01	8.959254e-01	8.964565e-01	8.969198e-01	8.974614e-01	8.982608e-01	8.993050e-01	9.003590e-01	9.012712e-01	9.020517e-01	9.027829e-01	9.035129e-01	9.042982e-01	9.051646e-01	9.061174e-01	9.071160e-01	9.081270e-01	9.091369e-01	9.101467e-01	9.111088e-01	9.119331e-01	9.126366e-01	9.136580e-01	9.159244e-01	9.203046e-01	9.263788e-01	9.319943e-01	9.351759e-01	9.357233e-01	9.346734e-01	9.333925e-01	9.329355e-01	9.337594e-01	9.357846e-01	9.385565e-01	9.415635e-01	9.444957e-01	9.472963e-01	9.500292e-01	9.527691e-01	9.556092e-01	9.585982e-01	9.617347e-01	9.649826e-01	9.683167e-01	9.717197e-01	9.751845e-01	9.786964e-01	9.822467e-01	9.858200e-01	9.893979e-01	9.929786e-01	9.965320e-01	1.000036e+00	1.003471e+00	1.006793e+00	1.009974e+00	1.012997e+00	1.015853e+00	1.018570e+00	1.021217e+00	1.023916e+00	1.026813e+00	1.030038e+00	1.033605e+00	1.037349e+00	1.040890e+00	1.043719e+00	1.045323e+00	1.045326e+00	1.043647e+00	1.040617e+00	1.037073e+00	1.034257e+00	1.033368e+00	1.035093e+00	1.039180e+00	1.044946e+00	1.051572e+00	1.058700e+00	1.066369e+00	1.074714e+00	1.083093e+00	
SCALARS Pressure_Coefficient float 1
LOOKUP_TABLE default
6.489988e-01	5.907149e-01	5.559836e-01	5.346603e-01	5.200318e-01	5.056144e-01	4.835164e-01	4.480456e-01	3.951631e-01	3.250967e-01	2.420352e-01	1.547787e-01	7.747022e-02	2.296600e-02	-4.942436e-03	-1.204396e-02	-8.596123e-03	-3.933858e-03	-3.821460e-03	-1.019690e-02	-2.234323e-02	-3.841523e-02	-5.648256e-02	-7.501687e-02	-9.312336e-02	-1.104741e-01	-1.271185e-01	-1.432405e-01	-1.590451e-01	-1.746464e-01	-1.901141e-01	-2.055743e-01	-2.211350e-01	-2.367404e-01	-2.522169e-01	-2.674027e-01	-2.822468e-01	-2.967139e-01	-3.107700e-01	-3.243658e-01	-3.374817e-01	-3.501000e-01	-3.622437e-01	-3.738736e-01	-3.849175e-01	-3.952604e-01	-4.049437e-01	-4.142140e-01	-4.234833e-01	-4.327883e-01	-4.414658e-01	-4.484335e-01	-4.531892e-01	-4.564031e-01	-4.598949e-01	-4.661043e-01	-4.772416e-01	-4.939864e-01	-5.144812e-01	-5.345345e-01	-5.502947e-01	-5.602927e-01	-5.651499e-01	-5.663256e-01	-5.650479e-01	-5.620532e-01	-5.576198e-01	-5.520022e-01	-5.454850e-01	-5.383102e-01	-5.303108e-01	-5.208317e-01	-5.091199e-01	-4.950499e-01	-4.789950e-01	-4.613311e-01	-4.418314e-01	-4.198662e-01	-3.951495e-01	-3.675367e-01	-3.367192e-01	-3.024110e-01	-2.641005e-01	-2.213084e-01	-1.733179e-01	-1.190922e-01	-5.772102e-02	1.204541e-02	9.196497e-02	1.833623e-01	2.880365e-01	4.075919e-01	5.417166e-01	6.884899e-01	8.419823e-01	9.901671e-01	1.105043e+00	1.168353e+00	1.135408e+00	1.041222e+00	9.551265e-01	7.452733e-01	3.788278e-01	7.760045e-02	-1.617217e-01	-3.415998e-01	-4.676695e-01	-5.526627e-01	-6.110390e-01	-6.515035e-01	-6.795439e-01	-6.987879e-01	-7.113105e-01	-7.194496e-01	-7.244220e-01	-7.263868e-01	-7.257060e-01	-7.231186e-01	-7.196587e-01	-7.163640e-01	-7.133920e-01	-7.098599e-01	-7.048433e-01	-6.985645e-01	-6.922494e-01	-6.867528e-01	-6.819646e-01	-6.774632e-01	-6.729227e-01	-6.680637e-01	-6.626905e-01	-6.568120e-01	-6.506326e-01	-6.443818e-01	-6.381075e-01	-6.318487e-01	-6.258624e-01	-6.206707e-01	-6.160083e-01	-6.091693e-01	-5.944318e-01	-5.666771e-01	-5.285852e-01	-4.933229e-01	-4.732596e-01	-4.698727e-01	-4.764657e-01	-4.841953e-01	-4.866089e-01	-4.807924e-01	-4.672932e-01	-4.489145e-01	-4.289393e-01	-4.092702e-01	-3.902897e-01	-3.715865e-01	-3.526422e-01	-3.329069e-01	-3.119811e-01	-2.898825e-01	-2.668127e-01	-2.429436e-01	-2.183753e-01	-1.931397e-01	-1.673455e-01	-1.410300e-01	-1.143261e-01	-8.729758e-02	-6.010971e-02	-3.281830e-02	-5.658998e-03	2.113464e-02	4.731811e-02	7.261657e-02	9.685621e-02	1.199475e-01	1.420379e-01	1.636894e-01	1.857927e-01	2.096159e-01	2.362063e-01	2.658731e-01	2.973512e-01	3.276721e-01	3.525381e-01	3.673757e-01	3.685266e-01	3.548542e-01	3.290480e-01	2.984712e-01	2.736307e-01	2.645649e-01	2.774132e-01	3.114397e-01	3.604299e-01	4.181247e-01	4.805549e-01	5.488111e-01	6.287244e-01	6.233425e-01	
SCALARS Mach float 1
LOOKUP_TABLE default
4.932316e-01	5.205174e-01	5.389528e-01	5.504767e-01	5.580152e-01	5.654625e-01	5.759378e-01	5.925064e-01	6.169719e-01	6.492929e-01	6.875303e-01	7.275471e-01	7.631164e-01	7.885503e-01	8.017955e-01	8.051536e-01	8.033872e-01	8.009757e-01	8.006807e-01	8.033951e-01	8.088159e-01	8.160804e-01	8.242789e-01	8.327038e-01	8.409317e-01	8.488135e-01	8.563683e-01	8.636966e-01	8.708773e-01	8.779740e-01	8.850374e-01	8.921061e-01	8.992352e-01	9.064003e-01	9.135217e-01	9.205236e-01	9.273917e-01	9.340939e-01	9.406178e-01	9.469514e-01	9.530638e-01	9.589712e-01	9.646549e-01	9.701236e-01	9.753097e-01	9.801900e-01	9.847555e-01	9.891603e-01	9.935657e-01	9.980240e-01	1.002165e+00	1.005483e+00	1.007703e+00	1.009179e+00	1.010807e+00	1.013829e+00	1.019325e+00	1.027650e+00	1.037823e+00	1.047740e+00	1.055503e+00	1.060370e+00	1.062703e+00	1.063204e+00	1.062530e+00	1.060995e+00	1.058779e+00	1.055966e+00	1.052737e+00	1.049174e+00	1.045226e+00	1.040537e+00	1.034770e+00	1.027845e+00	1.020003e+00	1.011370e+00	1.001930e+00	9.913919e-01	9.795295e-01	9.662995e-01	9.516574e-01	9.354310e-01	9.174404e-01	8.974459e-01	8.751204e-01	8.499700e-01	8.215353e-01	7.893038e-01	7.524229e-01	7.100256e-01	6.610996e-01	6.042991e-01	5.381431e-01	4.612374e-01	3.716535e-01	2.685484e-01	1.534764e-01	2.627764e-02	1.054804e-01	2.061459e-01	3.021831e-01	4.461673e-01	6.074290e-01	7.411576e-01	8.494512e-01	9.349042e-01	9.986540e-01	1.043964e+00	1.075972e+00	1.098562e+00	1.114453e+00	1.125306e+00	1.132450e+00	1.137139e+00	1.140033e+00	1.141318e+00	1.141106e+00	1.139805e+00	1.138069e+00	1.136430e+00	1.134999e+00	1.133326e+00	1.130856e+00	1.127628e+00	1.124368e+00	1.121545e+00	1.119128e+00	1.116863e+00	1.114601e+00	1.112167e+00	1.109480e+00	1.106523e+00	1.103423e+00	1.100281e+00	1.097142e+00	1.094001e+00	1.091006e+00	1.088438e+00	1.086246e+00	1.083061e+00	1.075987e+00	1.062280e+00	1.043195e+00	1.025462e+00	1.015374e+00	1.013635e+00	1.016969e+00	1.021033e+00	1.022481e+00	1.019869e+00	1.013440e+00	1.004620e+00	9.950226e-01	9.856338e-01	9.766367e-01	9.678288e-01	9.589681e-01	9.497509e-01	9.400127e-01	9.297502e-01	9.190741e-01	9.080599e-01	8.967580e-01	8.851851e-01	8.733840e-01	8.613768e-01	8.492097e-01	8.369396e-01	8.245679e-01	8.121939e-01	7.998909e-01	7.877338e-01	7.758727e-01	7.644149e-01	7.534378e-01	7.429771e-01	7.329428e-01	7.230859e-01	7.129474e-01	7.019649e-01	6.896059e-01	6.757650e-01	6.610357e-01	6.468911e-01	6.354381e-01	6.288821e-01	6.288676e-01	6.357327e-01	6.479901e-01	6.621289e-01	6.732149e-01	6.766922e-01	6.699379e-01	6.537477e-01	6.304263e-01	6.028520e-01	5.721181e-01	5.375925e-01	4.979318e-01	4.553438e-01	