# vtk DataFile Version 3.0
vtk output
ASCII
DATASET UNSTRUCTURED_GRID
POINTS 5233 float
9.997500e-01	-3.633243e-05	0.0	9.990000e-01	-1.454725e-04	0.0	9.977600e-01	-3.275093e-04	0.0	9.960200e-01	-5.899374e-04	0.0	9.937800e-01	-9.471318e-04	0.0	9.910500e-01	-1.422199e-03	0.0	9.878400e-01	-2.045752e-03	0.0	9.841300e-01	-2.854139e-03	0.0	9.799500e-01	-3.859694e-03	0.0	9.752800e-01	-5.059583e-03	0.0	9.701500e-01	-6.406966e-03	0.0	9.645400e-01	-7.843336e-03	0.0	9.584700e-01	-9.293307e-03	0.0	9.519400e-01	-1.070149e-02	0.0	9.449600e-01	-1.203990e-02	0.0	9.375400e-01	-1.331295e-02	0.0	9.296900e-01	-1.454794e-02	0.0	9.214000e-01	-1.578319e-02	0.0	9.127000e-01	-1.704594e-02	0.0	9.035800e-01	-1.835723e-02	0.0	8.940600e-01	-1.972071e-02	0.0	8.841500e-01	-2.113175e-02	0.0	8.738500e-01	-2.258214e-02	0.0	8.631800e-01	-2.405979e-02	0.0	8.521600e-01	-2.555402e-02	0.0	8.407700e-01	-2.706168e-02	0.0	8.290500e-01	-2.857352e-02	0.0	8.170100e-01	-3.008571e-02	0.0	8.046400e-01	-3.159743e-02	0.0	7.919700e-01	-3.310301e-02	0.0	7.790100e-01	-3.459921e-02	0.0	7.657800e-01	-3.608140e-02	0.0	7.522800e-01	-3.754703e-02	0.0	7.385200e-01	-3.899224e-02	0.0	7.245300e-01	-4.041117e-02	0.0	7.103200e-01	-4.180018e-02	0.0	6.958900e-01	-4.315672e-02	0.0	6.812700e-01	-4.447558e-02	0.0	6.664700e-01	-4.575376e-02	0.0	6.515000e-01	-4.698850e-02	0.0	6.363800e-01	-4.817647e-02	0.0	6.211300e-01	-4.931478e-02	0.0	6.057600e-01	-5.040156e-02	0.0	5.902800e-01	-5.143519e-02	0.0	5.747100e-01	-5.241362e-02	0.0	5.590600e-01	-5.333568e-02	0.0	5.433600e-01	-5.419930e-02	0.0	5.276100e-01	-5.500429e-02	0.0	5.118400e-01	-5.574900e-02	0.0	4.960500e-01	-5.643339e-02	0.0	4.802700e-01	-5.705612e-02	0.0	4.645100e-01	-5.761680e-02	0.0	4.487800e-01	-5.811498e-02	0.0	4.331100e-01	-5.854957e-02	0.0	4.175000e-01	-5.892036e-02	0.0	4.019700e-01	-5.922645e-02	0.0	3.865400e-01	-5.946697e-02	0.0	3.712300e-01	-5.964102e-02	0.0	3.560400e-01	-5.974782e-02	0.0	3.409900e-01	-5.978622e-02	0.0	3.261100e-01	-5.975512e-02	0.0	3.114000e-01	-5.965335e-02	0.0	2.968700e-01	-5.947958e-02	0.0	2.825500e-01	-5.923268e-02	0.0	2.684500e-01	-5.891139e-02	0.0	2.545700e-01	-5.851401e-02	0.0	2.409400e-01	-5.803967e-02	0.0	2.275700e-01	-5.748710e-02	0.0	2.144700e-01	-5.685500e-02	0.0	2.016600e-01	-5.614266e-02	0.0	1.891400e-01	-5.534842e-02	0.0	1.769300e-01	-5.447184e-02	0.0	1.650400e-01	-5.351207e-02	0.0	1.534900e-01	-5.246933e-02	0.0	1.422900e-01	-5.134332e-02	0.0	1.314400e-01	-5.013278e-02	0.0	1.209500e-01	-4.883744e-02	0.0	1.108500e-01	-4.746008e-02	0.0	1.011300e-01	-4.599851e-02	0.0	9.181000e-02	-4.445485e-02	0.0	8.290000e-02	-4.283018e-02	0.0	7.440000e-02	-4.112386e-02	0.0	6.633000e-02	-3.933942e-02	0.0	5.869000e-02	-3.747655e-02	0.0	5.149000e-02	-3.553725e-02	0.0	4.474000e-02	-3.352404e-02	0.0	3.844000e-02	-3.143660e-02	0.0	3.260000e-02	-2.927777e-02	0.0	2.723000e-02	-2.705123e-02	0.0	2.232000e-02	-2.475195e-02	0.0	1.790000e-02	-2.239392e-02	0.0	1.395000e-02	-1.996632e-02	0.0	1.049000e-02	-1.748043e-02	0.0	7.520000e-03	-1.493717e-02	0.0	5.040000e-03	-1.233674e-02	0.0	3.050000e-03	-9.677631e-03	0.0	1.560000e-03	-6.975158e-03	0.0	5.600000e-04	-4.208248e-03	0.0	6.000000e-05	-1.384462e-03	0.0	0.000000e+00	0.000000e+00	0.0	6.000000e-05	1.264175e-03	0.0	5.600000e-04	3.626953e-03	0.0	1.560000e-03	5.792433e-03	0.0	3.050000e-03	7.812166e-03	0.0	5.040000e-03	9.731101e-03	0.0	7.520000e-03	1.155693e-02	0.0	1.049000e-02	1.330463e-02	0.0	1.395000e-02	1.498469e-02	0.0	1.790000e-02	1.660503e-02	0.0	2.232000e-02	1.816527e-02	0.0	2.723000e-02	1.967855e-02	0.0	3.260000e-02	2.114076e-02	0.0	3.844000e-02	2.255960e-02	0.0	4.474000e-02	2.393645e-02	0.0	5.149000e-02	2.527269e-02	0.0	5.869000e-02	2.657136e-02	0.0	6.633000e-02	2.783319e-02	0.0	7.440000e-02	2.905885e-02	0.0	8.290000e-02	3.025028e-02	0.0	9.181000e-02	3.140637e-02	0.0	1.011300e-01	3.252864e-02	0.0	1.108500e-01	3.361708e-02	0.0	1.209500e-01	3.467054e-02	0.0	1.314400e-01	3.569090e-02	0.0	1.422900e-01	3.667587e-02	0.0	1.534900e-01	3.762519e-02	0.0	1.650400e-01	3.853923e-02	0.0	1.769300e-01	3.941730e-02	0.0	1.891400e-01	4.025793e-02	0.0	2.016600e-01	4.106033e-02	0.0	2.144700e-01	4.182301e-02	0.0	2.275700e-01	4.254556e-02	0.0	2.409400e-01	4.322627e-02	0.0	2.545700e-01	4.386389e-02	0.0	2.684500e-01	4.445700e-02	0.0	2.825500e-01	4.500332e-02	0.0	2.968700e-01	4.550166e-02	0.0	3.114000e-01	4.595024e-02	0.0	3.261100e-01	4.634661e-02	0.0	3.409900e-01	4.668889e-02	0.0	3.560400e-01	4.697521e-02	0.0	3.712300e-01	4.720301e-02	0.0	3.865400e-01	4.736998e-02	0.0	4.019700e-01	4.747399e-02	0.0	4.175000e-01	4.751258e-02	0.0	4.331100e-01	4.748341e-02	0.0	4.487800e-01	4.738425e-02	0.0	4.645100e-01	4.721277e-02	0.0	4.802700e-01	4.696699e-02	0.0	4.960500e-01	4.664489e-02	0.0	5.118400e-01	4.624457e-02	0.0	5.276100e-01	4.576488e-02	0.0	5.433600e-01	4.520415e-02	0.0	5.590600e-01	4.456202e-02	0.0	5.747100e-01	4.383737e-02	0.0	5.902800e-01	4.303085e-02	0.0	6.057600e-01	4.214273e-02	0.0	6.211300e-01	4.117440e-02	0.0	6.363800e-01	4.012726e-02	0.0	6.515000e-01	3.900325e-02	0.0	6.664700e-01	3.780573e-02	0.0	6.812700e-01	3.653891e-02	0.0	6.958900e-01	3.520694e-02	0.0	7.103200e-01	3.381462e-02	0.0	7.245300e-01	3.236952e-02	0.0	7.385200e-01	3.087698e-02	0.0	7.522800e-01	2.934393e-02	0.0	7.657800e-01	2.778026e-02	0.0	7.790100e-01	2.619436e-02	0.0	7.919700e-01	2.459385e-02	0.0	8.046400e-01	2.298927e-02	0.0	8.170100e-01	2.139025e-02	0.0	8.290500e-01	1.980914e-02	0.0	8.407700e-01	1.825273e-02	0.0	8.521600e-01	1.672946e-02	0.0	8.631800e-01	1.525018e-02	0.0	8.738500e-01	1.381535e-02	0.0	8.841500e-01	1.242821e-02	0.0	8.940600e-01	1.108993e-02	0.0	9.035800e-01	9.798834e-03	0.0	9.127000e-01	8.557611e-03	0.0	9.214000e-01	7.377206e-03	0.0	9.296900e-01	6.274191e-03	0.0	9.375400e-01	5.279546e-03	0.0	9.449600e-01	4.422437e-03	0.0	9.519400e-01	3.727797e-03	0.0	9.584700e-01	3.201744e-03	0.0	9.645400e-01	2.824075e-03	0.0	9.701500e-01	2.549887e-03	0.0	9.752800e-01	2.323321e-03	0.0	9.799500e-01	2.092096e-03	0.0	9.841300e-01	1.826468e-03	0.0	9.878400e-01	1.519617e-03	0.0	9.910500e-01	1.190077e-03	0.0	9.937800e-01	8.629766e-04	0.0	9.960200e-01	5.666138e-04	0.0	9.977600e-01	3.231859e-04	0.0	9.990000e-01	1.450781e-04	0.0	9.997500e-01	3.632618e-05	0.0	1.000000e+00	0.000000e+00	0.0	1.984229e+01	2.506660e+00	0.0	1.937166e+01	4.973800e+00	0.0	1.859553e+01	7.362490e+00	0.0	1.752613e+01	9.635070e+00	0.0	1.618034e+01	1.175571e+01	0.0	1.457937e+01	1.369094e+01	0.0	1.274848e+01	1.541027e+01	0.0	1.071654e+01	1.688656e+01	0.0	8.515590e+00	1.809654e+01	0.0	6.180340e+00	1.902113e+01	0.0	3.747630e+00	1.964575e+01	0.0	1.255810e+00	1.996053e+01	0.0	-1.255810e+00	1.996053e+01	0.0	-3.747630e+00	1.964574e+01	0.0	-6.180340e+00	1.902113e+01	0.0	-8.515590e+00	1.809654e+01	0.0	-1.071654e+01	1.688656e+01	0.0	-1.274848e+01	1.541026e+01	0.0	-1.457937e+01	1.369094e+01	0.0	-1.618034e+01	1.175570e+01	0.0	-1.752613e+01	9.635070e+00	0.0	-1.859553e+01	7.362490e+00	0.0	-1.937166e+01	4.973800e+00	0.0	-1.984229e+01	2.506660e+00	0.0	-2.000000e+01	0.000000e+00	0.0	-1.984229e+01	-2.506670e+00	0.0	-1.937166e+01	-4.973800e+00	0.0	-1.859553e+01	-7.362490e+00	0.0	-1.752613e+01	-9.635080e+00	0.0	-1.618034e+01	-1.175571e+01	0.0	-1.457937e+01	-1.369094e+01	0.0	-1.274848e+01	-1.541027e+01	0.0	-1.071653e+01	-1.688656e+01	0.0	-8.515580e+00	-1.809654e+01	0.0	-6.180340e+00	-1.902113e+01	0.0	-3.747620e+00	-1.964575e+01	0.0	-1.255810e+00	-1.996053e+01	0.0	1.255810e+00	-1.996053e+01	0.0	3.747630e+00	-1.964574e+01	0.0	6.180340e+00	-1.902113e+01	0.0	8.515590e+00	-1.809654e+01	0.0	1.071654e+01	-1.688656e+01	0.0	1.274848e+01	-1.541026e+01	0.0	1.457937e+01	-1.369094e+01	0.0	1.618034e+01	-1.175570e+01	0.0	1.752614e+01	-9.635070e+00	0.0	1.859553e+01	-7.362490e+00	0.0	1.937166e+01	-4.973790e+00	0.0	1.984229e+01	-2.506660e+00	0.0	2.000000e+01	0.000000e+00	0.0	6.074186e-02	-4.533955e-02	0.0	6.601884e-01	-6.003232e-02	0.0	4.255539e-01	6.172223e-02	0.0	6.897643e-01	4.909485e-02	0.0	3.791233e-01	-7.361318e-02	0.0	9.994675e-01	-7.275930e-04	0.0	9.985545e-01	-1.331436e-03	0.0	7.738134e-01	-4.741029e-02	0.0	6.898601e-01	-5.715867e-02	0.0	-1.128322e-03	5.519522e-03	0.0	7.467802e-01	-5.081792e-02	0.0	5.833315e-01	5.752550e-02	0.0	9.928160e-01	-3.736370e-03	0.0	9.899360e-01	-4.744436e-03	0.0	5.989075e-01	5.659007e-02	0.0	7.187647e-01	-5.407414e-02	0.0	-1.469383e-03	6.000973e-04	0.0	9.865726e-01	-5.906920e-03	0.0	9.827330e-01	-7.227093e-03	0.0	-1.303242e-03	-6.476060e-03	0.0	6.451051e-01	-6.138280e-02	0.0	8.244822e-01	-4.030730e-02	0.0	7.997424e-01	-4.390407e-02	0.0	3.484815e-01	6.061206e-02	0.0	8.479023e-01	-3.667631e-02	0.0	2.473661e-01	5.610722e-02	0.0	8.699424e-01	-3.303531e-02	0.0	1.046291e-02	1.735379e-02	0.0	8.904961e-01	-2.944047e-02	0.0	7.702116e-02	-4.971748e-02	0.0	9.094913e-01	-2.594658e-02	0.0	-1.767752e-03	-3.208361e-03	0.0	9.424829e-01	-1.917263e-02	0.0	9.268478e-01	-2.255557e-02	0.0	1.794672e-02	-2.751088e-02	0.0	4.257417e-01	-7.304409e-02	0.0	8.591039e-01	-3.485162e-02	0.0	9.563359e-01	-1.567017e-02	0.0	9.784090e-01	-8.726423e-03	0.0	9.683303e-01	-1.208274e-02	0.0	1.582635e-01	-6.358838e-02	0.0	9.001954e-01	-2.767893e-02	0.0	7.604296e-01	-4.912993e-02	0.0	9.971360e-01	-2.087316e-03	0.0	5.990500e-01	-6.505493e-02	0.0	4.414441e-01	-7.269436e-02	0.0	5.363196e-01	-6.898903e-02	0.0	4.730157e-01	-7.176222e-02	0.0	5.046766e-01	-7.052521e-02	0.0	4.888342e-01	-7.118064e-02	0.0	1.249494e-01	-5.908177e-02	0.0	2.784321e-02	-3.299257e-02	0.0	3.945690e-01	-7.350518e-02	0.0	4.621831e-02	-4.064100e-02	0.0	4.101098e-01	-7.331581e-02	0.0	3.187149e-01	-7.322176e-02	0.0	3.486127e-01	-7.358807e-02	0.0	3.350685e-02	-3.560666e-02	0.0	2.895107e-01	-7.251697e-02	0.0	9.348853e-01	-2.087098e-02	0.0	1.468047e-01	-6.217690e-02	0.0	1.946437e-01	-6.724631e-02	0.0	8.579545e-02	-5.177498e-02	0.0	1.045869e-01	-5.562155e-02	0.0	5.678223e-01	-6.716975e-02	0.0	1.700660e-01	-6.490604e-02	0.0	6.145275e-01	-6.389343e-02	0.0	8.804135e-01	-3.122947e-02	0.0	2.266711e-02	-3.029231e-02	0.0	9.952218e-01	-2.870207e-03	0.0	6.735142e-03	-1.883141e-02	0.0	1.849120e-02	2.152462e-02	0.0	9.183780e-01	-2.424160e-02	0.0	9.49640
[...]
POINT_DATA 5233

SCALARS Conservative_1 float 1
LOOKUP_TABLE default
1.199832e+00	1.181610e+00	1.171191e+00	1.164757e+00	1.160189e+00	1.155729e+00	1.148847e+00	1.137930e+00	1.121745e+00	1.100384e+00	1.075085e+00	1.048460e+00	1.024878e+00	1.008330e+00	9.999484e-01	9.978862e-01	9.989941e-01	1.000436e+00	1.000462e+00	9.984712e-01	9.946847e-01	9.896598e-01	9.839824e-01	9.781242e-01	9.723632e-01	9.668100e-01	9.614558e-01	9.562540e-01	9.511398e-01	9.460817e-01	9.410636e-01	9.360419e-01	9.309823e-01	9.259013e-01	9.208504e-01	9.158781e-01	9.110031e-01	9.062300e-01	9.015700e-01	8.970399e-01	8.926394e-01	8.883792e-01	8.842417e-01	8.802435e-01	8.763997e-01	8.727620e-01	8.693198e-01	8.660089e-01	8.626821e-01	8.593296e-01	8.561539e-01	8.535095e-01	8.515113e-01	8.498690e-01	8.479108e-01	8.448836e-01	8.402824e-01	8.342472e-01	8.276524e-01	8.217587e-01	8.174613e-01	8.149590e-01	8.139809e-01	8.140929e-01	8.149835e-01	8.164521e-01	8.184490e-01	8.208899e-01	8.236885e-01	8.267325e-01	8.300419e-01	8.337806e-01	8.381962e-01	8.433561e-01	8.491830e-01	8.555302e-01	8.624632e-01	8.701607e-01	8.786801e-01	8.880605e-01	8.984138e-01	9.097992e-01	9.223683e-01	9.362391e-01	9.516019e-01	9.687342e-01	9.878645e-01	1.009352e+00	1.033682e+00	1.061170e+00	1.092346e+00	1.127677e+00	1.167007e+00	1.209871e+00	1.254557e+00	1.298046e+00	1.331742e+00	1.350896e+00	1.339555e+00	1.308336e+00	1.284368e+00	1.221294e+00	1.099780e+00	1.002347e+00	9.263225e-01	8.705411e-01	8.324783e-01	8.074041e-01	7.905128e-01	7.790638e-01	7.713608e-01	7.662335e-01	7.631212e-01	7.612854e-01	7.603507e-01	7.603132e-01	7.610439e-01	7.623055e-01	7.637763e-01	7.651279e-01	7.663758e-01	7.678438e-01	7.697916e-01	7.720702e-01	7.742799e-01	7.761912e-01	7.778950e-01	7.795384e-01	7.812247e-01	7.830248e-01	7.849943e-01	7.871172e-01	7.893209e-01	7.915051e-01	7.936269e-01	7.956618e-01	7.976006e-01	7.994048e-01	8.010837e-01	8.027555e-01	8.046439e-01	8.069228e-01	8.096574e-01	8.128096e-01	8.163505e-01	8.202791e-01	8.245592e-01	8.291276e-01	8.338518e-01	8.386208e-01	8.433244e-01	8.480503e-01	8.530625e-01	8.586534e-01	8.648364e-01	8.713718e-01	8.780528e-01	8.848962e-01	8.920763e-01	8.996392e-01	9.075301e-01	9.156609e-01	9.239838e-01	9.324871e-01	9.411408e-01	9.499314e-01	9.588089e-01	9.677555e-01	9.766971e-01	9.856361e-01	9.944897e-01	1.003177e+00	1.011636e+00	1.019782e+00	1.027568e+00	1.034974e+00	1.042045e+00	1.048963e+00	1.055987e+00	1.063505e+00	1.071817e+00	1.081018e+00	1.090725e+00	1.100077e+00	1.107822e+00	1.112624e+00	1.113391e+00	1.109761e+00	1.102496e+00	1.093765e+00	1.086648e+00	1.084119e+00	1.088020e+00	1.098240e+00	1.112822e+00	1.129997e+00	1.148467e+00	1.168631e+00	1.192713e+00	1.181128e+00	9.999765e-01	9.999696e-01	9.999530e-01	9.999291e-01	9.999051e-01	9.998770e-01	9.998375e-01	9.997824e-01	9.997199e-01	9.996680e-01	9.996336e-01	9.996450e-01	9.996993e-01	9.998098e-01	9.999047e-01	9.999813e-01	1.000023e+00	1.000049e+00	1.000064e+00	1.000070e+00	1.000073e+00	1.000074e+00	1.000074e+00	1.000076e+00	1.000077e+00	1.000080e+00	1.000085e+00	1.000092e+00	1.000101e+00	1.000114e+00	1.000128e+00	1.000150e+00	1.000169e+00	1.000195e+00	1.000213e+00	1.000223e+00	1.000225e+00	1.000212e+00	1.000202e+00	1.000189e+00	1.000182e+00	1.000167e+00	1.000150e+00	1.000129e+00	1.000105e+00	1.000078e+00	1.000060e+00	1.000046e+00	1.000013e+00	9.999797e-01	9.441336e-01	9.019873e-01	8.219694e-01	9.233695e-01	8.407201e-01	1.183067e+00	1.173578e+00	9.407339e-01	9.111938e-01	1.217157e+00	9.307579e-01	8.722220e-01	1.151738e+00	1.145011e+00	8.788352e-01	9.208137e-01	1.307699e+00	1.136040e+00	1.123671e+00	1.337688e+00	8.975701e-01	9.608385e-01	9.506754e-01	8.071996e-01	9.714122e-01	7.941675e-01	9.825225e-01	8.786012e-01	9.931383e-01	9.169259e-01	1.000572e+00	1.344675e+00	1.006051e+00	1.002959e+00	1.100284e+00	8.522721e-01	9.769238e-01	1.025335e+00	1.107416e+00	1.065592e+00	8.482788e-01	9.974498e-01	9.357657e-01	1.164159e+00	8.850583e-01	8.538051e-01	8.705705e-01	8.576439e-01	8.639134e-01	8.605885e-01	8.681387e-01	1.042859e+00	8.461968e-01	9.773724e-01	8.499758e-01	8.197064e-01	8.278303e-01	1.018563e+00	8.181656e-01	1.003571e+00	8.542946e-01	8.346838e-01	9.051892e-01	8.847974e-01	8.774257e-01	8.430204e-01	8.891104e-01	9.880315e-01	1.070007e+00	1.157666e+00	1.209183e+00	8.235611e-01	1.002312e+00	1.012736e+00	1.087647e+00	1.134092e+00	9.660573e-01	8.224186e-01	8.739180e-01	9.257510e-01	9.456876e-01	8.760354e-01	8.278954e-01	8.811550e-01	9.065366e-01	9.599041e-01	1.248739e+00	1.133770e+00	8.341801e-01	8.385623e-01	1.211160e+00	8.249515e-01	8.945124e-01	8.182818e-01	8.204032e-01	8.554129e-01	9.159545e-01	1.279824e+00	1.318487e+00	8.546112e-01	1.324625e+00	7.950984e-01	7.744521e-01	7.810549e-01	7.754308e-01	8.181758e-01	1.140201e+00	8.497839e-01	8.353823e-01	1.097227e+00	1.105891e+00	1.052332e+00	8.402424e-01	8.261445e-01	8.117972e-01	1.083686e+00	1.067091e+00	7.728962e-01	1.092461e+00	1.106643e+00	1.099099e+00	7.738199e-01	7.730407e-01	8.002335e-01	7.962534e-01	7.834850e-01	8.038135e-01	8.306491e-01	8.147781e-01	7.806110e-01	7.770311e-01	8.924613e-01	7.863886e-01	7.899952e-01	9.073896e-01	8.657947e-01	9.570690e-01	9.399849e-01	9.915738e-01	9.743593e-01	1.023989e+00	1.008295e+00	1.059491e+00	1.038489e+00	1.104264e+00	1.075225e+00	1.102356e+00	1.031380e+00	1.045414e+00	1.000026e+00	1.016290e+00	9.657100e-01	9.830091e-01	9.316024e-01	9.484796e-01	8.997459e-01	9.152842e-01	8.598764e-01	8.855290e-01	7.880911e-01	7.920567e-01	7.821113e-01	7.848807e-01	7.770538e-01	7.788934e-01	8.466076e-01	7.868305e-01	8.311643e-01	9.817327e-01	1.043712e+00	9.557184e-01	8.228363e-01	8.672787e-01	1.053694e+00	8.069227e-01	9.228499e-01	7.733724e-01	7.726385e-01	7.982782e-01	7.743915e-01	1.090274e+00	1.092343e+00	8.020876e-01	1.099340e+00	1.110394e+00	8.054568e-01	8.092661e-01	1.091927e+00	1.206471e+00	1.157944e+00	1.174452e+00	8.932740e-01	9.968359e-01	1.124395e+00	8.450563e-01	1.286684e+00	1.170362e+00	9.298558e-01	8.609381e-01	8.189441e-01	7.849659e-01	1.199724e+00	1.259635e+00	8.238093e-01	9.164369e-01	1.003277e+00	1.199613e+00	8.736331e-01	9.117881e-01	9.456158e-01	1.133373e+00	8.257941e-01	9.762374e-01	9.657130e-01	9.124418e-01	1.317259e+00	8.362751e-01	1.132771e+00	1.041612e+00	8.602128e-01	9.211676e-01	9.028148e-01	8.579905e-01	9.243883e-01	8.471866e-01	9.965028e-01	9.505100e-01	9.567110e-01	8.549088e-01	9.154262e-01	1.020597e+00	7.828848e-01	9.232598e-01	7.881719e-01	1.041906e+00	1.100582e+00	8.102747e-01	8.519226e-01	1.099672e+00	1.048717e+00	1.108331e+00	1.100948e+00	1.094574e+00	7.973443e-01	8.085619e-01	7.954138e-01	7.827552e-01	9.072558e-01	8.401065e-01	9.141308e-01	7.858658e-01	7.938912e-01	1.098100e+00	1.119009e+00	1.055590e+00	8.540755e-01	1.215366e+00	1.145809e+00	1.131598e+00	1.009297e+00	1.133693e+00	1.234084e+00	1.331047e+00	1.315103e+00	1.102188e+00	1.217659e+00	9.518074e-01	1.163056e+00	1.148592e+00	8.242737e-01	8.754679e-01	1.123050e+00	9.868983e-01	8.801126e-01	1.141679e+00	1.332392e+00	8.564600e-01	8.206415e-01	9.709233e-01	8.032235e-01	9.815975e-01	9.919496e-01	9.374620e-01	1.000314e+00	1.005585e+00	1.017406e+00	1.048529e+00	1.027442e+00	1.058814e+00	1.110036e+00	8.745840e-01	9.358466e-01	9.407494e-01	1.155399e+00	8.599103e-01	8.625437e-01	8.656603e-01	1.074247e+00	8.516768e-01	8.546285e-01	8.296452e-01	1.004125e+00	1.007864e+00	1.011295e+00	8.670927e-01	9.015378e-01	8.788774e-01	8.902544e-01	1.077043e+00	1.094527e+00	9.259716e-01	9.309045e-01	8.916823e-01	8.827307e-01	8.825024e-01	8.862928e-01	9.850402e-01	9.676530e-01	1.165309e+00	8.350962e-01	8.413417e-01	8.488413e-01	8.442512e-01	8.328174e-01	8.297572e-01	8.232173e-01	8.237653e-01	8.272049e-01	1.298422e+00	1.267564e+00	8.000793e-01	1.095878e+00	8.566714e-01	8.471425e-01	8.422661e-01	8.373847e-01	1.095739e+00	1.100215e+00	1.077349e+00	8.327177e-01	8.283176e-01	8.174287e-01	1.069942e+00	1.096279e+00	7.866642e-01	7.895060e-01	7.993191e-01	8.012804e-01	7.870133e-01	7.847637e-01	7.836622e-01	9.890223e-01	9.557967e-01	9.475130e-01	9.807939e-01	1.013039e+00	1.062632e+00	1.034994e+00	1.027902e+00	1.005272e+00	9.972401e-01	9.724557e-01	9.641147e-01	9.393209e-01	9.312214e-01	9.077911e-01	9.004110e-01	8.673737e-01	8.617067e-01	8.933879e-01	8.866502e-01	7.935904e-01	7.919772e-01	7.905742e-01	7.893503e-01	8.809083e-01	8.085610e-01	8.199655e-01	9.554919e-01	9.605708e-01	8.689324e-01	8.721686e-01	1.069924e+00	8.350319e-01	7.831975e-01	7.839233e-01	8.068822e-01	8.051004e-01	8.146374e-01	8.122462e-01	1.091072e+00	1.084561e+00	8.943152e-01	8.985148e-01	1.025173e+00	1.297449e+00	8.251774e-01	1.311627e+00	8.534972e-01	8.291374e-01	9.510037e-01	8.776456e-01	1.007404e+00	1.107304e+00	1.101238e+00	1.096626e+00	1.081349e+00	1.115959e+00	1.160557e+00	1.181452e+00	1.153154e+00	1.200928e+00	1.103839e+00	1.283317e+00	9.201082e-01	1.010814e+00	1.131573e+00	8.757491e-01	1.172921e+00	1.220857e+00	9.221972e-01	1.275985e+00	9.268662e-01	1.131303e+00	9.863112e-01	1.190691e+00	8.325033e-01	9.811812e-01	9.175906e-01	1.139467e+00	1.160706e+00	1.095986e+00	8.593236e-01	1.093281e+00	9.163993e-01	1.125954e+00	8.544976e-01	8.063875e-01	8.135686e-01	7.933744e-01	7.996942e-01	1.171569e+00	1.293326e+00	1.185004e+00	9.089721e-01	1.240830e+00	1.055111e+00	9.321508e-01	1.312162e+00	8.663798e-01	8.627032e-01	1.077942e+00	9.821175e-01	1.017797e+00	9.872470e-01	9.239631e-01	1.097510e+00	1.095669e+00	1.051783e+00	1.045159e+00	8.118604e-01	8.082818e-01	8.008186e-01	7.916295e-01	9.086382e-01	9.130651e-01	8.456974e-01	9.423169e-01	7.925167e-01	1.095970e+00	1.136233e+00	1.029139e+00	1.134367e+00	1.249584e+00	1.315026e+00	1.053591e+00	1.186194e+00	1.178456e+00	1.070323e+00	1.122738e+00	8.820894e-01	8.610786e-01	8.269074e-01	9.708198e-01	9.759913e-01	9.913005e-01	9.959909e-01	9.596419e-01	9.453235e-01	1.000241e+00	1.004023e+00	1.029606e+00	1.041151e+00	1.112224e+00	9.413748e-01	9.462021e-01	1.145985e+00	8.649703e-01	8.679353e-01	8.572328e-01	8.595197e-01	1.031502e+00	1.015001e+00	1.020975e+00	8.813809e-01	8.735300e-01	8.809794e-01	8.844929e-01	1.085519e+00	1.099634e+00	9.316457e-01	9.365577e-01	9.090840e-01	8.988716e-01	8.896870e-01	8.881780e-01	8.920399e-01	1.011409e+00	9.926658e-01	9.753509e-01	8.368425e-01	8.424825e-01	8.483827e-01	8.603487e-01	8.550157e-01	8.501741e-01	8.416796e-01	8.380729e-01	8.288649e-01	8.298367e-01	8.349778e-01	8.180793e-01	8.495305e-01	8.445004e-01	1.096489e+00	8.396723e-01	8.350779e-01	8.308017e-01	8.234665e-01	1.071800e+00	8.040978e-01	8.101069e-01	8.044773e-01	8.026246e-01	7.919422e-01	7.917636e-01	7.915971e-01	9.553546e-01	1.065148e+00	1.058405e+00	1.038497e+00	1.031787e+00	1.024961e+00	1.010399e+00	1.002879e+00	9.951296e-01	9.793711e-01	9.713824e-01	9.633668e-01	9.474012e-01	9.394854e-01	9.316824e-01	9.090118e-01	8.696019e-01	8.642809e-01	9.019209e-01	8.951131e-01	8.885236e-01	7.991390e-01	7.976043e-01	7.963224e-01	7.952243e-01	7.942903e-01	8.287136e-01	8.425637e-01	9.558548e-01	9.608114e-01	9.657644e-01	8.711364e-01	8.743657e-01	8.601004e-01	8.818039e-01	7.925126e-01	7.943204e-01	7.966322e-01	8.101266e-01	8.204580e-01	8.178327e-01	8.155018e-01	1.089419e+00	1.084310e+00	1.078322e+00	8.960139e-01	9.001119e-01	9.043145e-01	8.323748e-01	8.304117e-01	1.289965e+00	9.279380e-01	1.129348e+00	1.097670e+00	8.830325e-01	1.261957e+00	1.159464e+00	1.013146e+00	1.018073e+00	1.057329e+00	1.112682e+00	8.577464e-01	1.271285e+00	9.661673e-01	1.206342e+00	1.092430e+00	1.120619e+00	1.172137e+00	9.173832e-01	1.130734e+00	1.185408e+00	1.188068e+00	9.563353e-01	8.737988e-01	1.104046e+00	8.600162e-01	9.400936e-01	8.662418e-01	8.357158e-01	1.101023e+00	8.781274e-01	1.090352e+00	1.087321e+00	9.862316e-01	7.997009e-01	8.101421e-01	1.122130e+00	8.185910e-01	9.865412e-01	1.146687e+00	1.105988e+00	1.144066e+00	1.078632e+00	1.128337e+00	9.233313e-01	1.231579e+00	9.284429e-01	9.325368e-01	1.154363e+00	1.129962e+00	1.180665e+00	1.015203e+00	8.615733e-01	8.156402e-01	1.219496e+00	1.002531e+00	9.254547e-01	1.048458e+00	8.174203e-01	8.138601e-01	8.119741e-01	9.144065e-01	9.194072e-01	1.095699e+00	1.042682e+00	1.086714e+00	1.254730e+00	1.296796e+00	1.079978e+00	1.065696e+00	1.113103e+00	8.851354e-01	9.764343e-01	9.814220e-01	9.914164e-01	9.961523e-01	9.672547e-01	9.531331e-01	1.000575e+00	1.004841e+00	1.008971e+00	1.041495e+00	1.053078e+00	9.467434e-01	9.519715e-01	1.137250e+00	8.681607e-01	8.708476e-01	8.628831e-01	8.647224e-01	1.024000e+00	1.031660e+00	8.889478e-01	8.804715e-01	8.871228e-01	1.091104e+00	1.102752e+00	9.376582e-01	9.429328e-01	9.167460e-01	9.066114e-01	8.976331e-01	8.900996e-01	8.944851e-01	1.037257e+00	1.017816e+00	9.992847e-01	9.824351e-01	8.403501e-01	8.449323e-01	8.502952e-01	8.555204e-01	8.677979e-01	8.622367e-01	8.570085e-01	8.523162e-01	8.481031e-01	8.372681e-01	8.357570e-01	8.444350e-01	8.523073e-01	1.094602e+00	1.093702e+00	8.473417e-01	8.425916e-01	8.381121e-01	8.339839e-01	8.302707e-01	8.267307e-01	8.370286e-01	8.083298e-01	8.067049e-01	7.994951e-01	7.998049e-01	8.005762e-01	8.013353e-01	1.067063e+00	1.060951e+00	1.054777e+00	1.042100e+00	1.035769e+00	1.029416e+00	1.021949e+00	1.008965e+00	1.000905e+00	9.934696e-01	9.782621e-01	9.710100e-01	9.628430e-01	9.556733e-01	9.474195e-01	9.404209e-01	9.322106e-01	8.673617e-01	8.717463e-01	9.109818e-01	9.032780e-01	8.973684e-01	8.901442e-01	8.051238e-01	8.037632e-01	8.024390e-01	8.014204e-01	8.005271e-01	7.999342e-01	8.491841e-01	8.647170e-01	9.615432e-01	9.667094e-01	9.714661e-01	8.740253e-01	8.763590e-01	8.802755e-01	8.841950e-01	9.071904e-01	9.340645e-01	8.024501e-01	8.047491e-01	8.085557e-01	8.130057e-01	8.269959e-01	8.241611e-01	8.216471e-01	8.192598e-01	1.072959e+00	1.083266e+00	1.078496e+00	8.977404e-01	9.023585e-01	9.058543e-01	9.106778e-01	8.412411e-01	8.386603e-01	8.367373e-01	1.148026e+00	1.125335e+00	1.073701e+00	1.177464e+00	1.171244e+00	9.363161e-01	9.361451e-01	1.193489e+00	1.096512e+00	1.235378e+00	1.081000e+00	8.825498e-01	8.075074e-01	1.018815e+00	1.127271e+00	1.235054e+00	1.292365e+00	1.294414e+00	1.281567e+00	1.250867e+00	1.138733e+00	8.217408e-01	1.084568e+00	1.121540e+00	1.026521e+00	9.595165e-01	8.664447e-01	1.115918e+00	1.068656e+00	1.082019e+00	8.773952e-01	8.678690e-01	9.227574e-01	9.813811e-01	8.608612e-01	8.874284e-01	8.228403e-01	1.109665e+00	9.482375e-01	1.165197e+00	1.099793e+00	1.292615e+00	1.182394e+00	1.173234e+00	1.019691e+00	1.061152e+00	1.266795e+00	9.859863e-01	1.215156e+00	1.088041e+00	1.162122e+00	1.177069e+00	1.178083e+00	1.125433e+00	8.423221e-01	8.430314e-01	1.104112e+00	8.874534e-01	1.085403e+00	1.113486e+00	9.274861e-01	1.200262e+00	8.192113e-01	8.180704e-01	8.155335e-01	9.187020e-01	1.053398e+00	1.090113e+00	1.275337e+00	1.103644e+00	9.825138e-01	9.866331e-01	9.920136e-01	9.964432e-01	9.610584e-01	9.753244e-01	1.001572e+00	1.005566e+00	1.010512e+00	1.015584e+00	1.052028e+00	1.062699e+00	9.507369e-01	1.128583e+00	8.712456e-01	8.741105e-01	8.679676e-01	8.702600e-01	1.033957e+00	1.042172e+00	8.962891e-01	8.872191e-01	1.095035e+00	1.104736e+00	9.442949e-01	9.246167e-01	9.137485e-01	9.070472e-01	8.946300e-01	1.042234e+00	1.023629e+00	1.005815e+00	9.903046e-01	8.451748e-01	8.475649e-01	8.527433e-01	8.570602e-01	8.623150e-01	8.747779e-01	8.703455e-01	8.632946e-01	8.597772e-01	8.540772e-01	1.094059e+00	1.092114e+00	1.090224e+00	8.547470e-01	8.506404e-01	8.452281e-01	8.416489e-01	8.368734e-01	8.441944e-01	8.563467e-01	8.145784e-01	8.122601e-01	8.068953e-01	8.096902e-01	8.116840e-01	1.062765e+00	1.057334e+00	1.051262e+00	1.045429e+00	1.039216e+00	1.033274e+00	1.026438e+00	1.016548e+00	1.007147e+00	9.954602e-01	9.667077e-01	9.519262e-01	9.372416e-01	9.087722e-01	8.964049e-01	8.116793e-01	8.095980e-01	8.093852e-01	8.074628e-01	8.078314e-01	8.071113e-01	8.070904e-01	8.706191e-01	8.868061e-01	9.676899e-01	9.721705e-01	9.772182e-01	8.772109e-01	8.810542e-01	9.067493e-01	9.306341e-01	9.566127e-01	8.136784e-01	8.166756e-01	8.215603e-01	8.285917e-01	8.357136e-01	8.341359e-01	8.302481e-01	8.285496e-01	8.256899e-01	1.078226e+00	1.072970e+00	9.022457e-01	9.102701e-01	8.515306e-01	8.470397e-01	8.456535e-01	8.427175e-01	1.166084e+00	1.154370e+00	1.181130e+00	1.255050e+00	1.180684e+00	1.088609e+00	1.106549e+00	1.183486e+00	1.086414e+00	1.141053e+00	1.105945e+00	1.255370e+00	1.081759e+00	1.161512e+00	8.281794e-01	1.177728e+00	1.061073e+00	1.152435e+00	1.141391e+00	1.079419e+00	8.887410e-01	1.101712e+00	8.496046e-01	1.035147e+00	1.024772e+00	9.105424e-01	9.440665e-01	8.863579e-01	1.231240e+00	8.726128e-01	9.700317e-01	9.571729e-01	8.170945e-01	1.094247e+00	1.066058e+00	1.212970e+00	1.031121e+00	1.070050e+00	1.170730e+00	1.097580e+00	1.291399e+00	1.245024e+00	1.113749e+00	9.440807e-01	8.702368e-01	8.603530e-01	1.112125e+00	1.173870e+00	1.129516e+00	1.275294e+00	1.176735e+00	1.064190e+00	1.216978e+00	1.199799e+00	8.880167e-01	1.101497e+00	1.083960e+00	1.080355e+00	8.787067e-01	8.244216e-01	8.209021e-01	9.358015e-01	1.091948e+00	1.122871e+00	1.122143e+00	9.900815e-01	9.994502e-01	9.828879e-01	1.009025e+00	1.017481e+00	1.060609e+00	1.121002e+00	8.760152e-01	1.043347e+00	1.051486e+00	8.995021e-01	1.097459e+00	9.512985e-01	9.586907e-01	9.278933e-01	9.144472e-01	8.953724e-01	1.046576e+00	1.028008e+00	1.011228e+00	9.996642e-01	8.534294e-01	8.612430e-01	8.688063e-01	8.739213e-01	8.635631e-01	1.091461e+00	1.088970e+00	8.507981e-01	8.424913e-01	8.759746e-01	8.180735e-01	8.223711e-01	1.003253e+00	1.056102e+00	1.044879e+00	1.033343e+00	1.022760e+00	1.013371e+00	9.909135e-01	9.772343e-01	9.631448e-01	9.490152e-01	9.348708e-01	9.209154e-01	9.082092e-01	8.976801e-01	8.160192e-01	8.147079e-01	8.149206e-01	8.136570e-01	8.157255e-01	8.921858e-01	9.090518e-01	9.671923e-01	9.752769e-01	9.832125e-01	8.800124e-01	8.837321e-01	9.282121e-01	9.512940e-01	9.764319e-01	1.002540e+00	8.261973e-01	8.298107e-01	8.353782e-01	8.438777e-01	8.547454e-01	8.607518e-01	8.361165e-01	8.325105e-01	1.077818e+00	1.073314e+00	9.027801e-01	9.186577e-01	9.271441e-01	8.556886e-01	8.507108e-01	1.117384e+00	1.166024e+00	1.161184e+00	1.136248e+00	1.025390e+00	1.108367e+00	1.173799e+00	1.135628e+00	1.185603e+00	1.135166e+00	1.147611e+00	1.126782e+00	1.092588e+00	1.193677e+00	1.235661e+00	1.088372e+00	9.515287e-01	8.358340e-01	1.125038e+00	1.017101e+00	1.099414e+00	8.876265e-01	1.066745e+00	1.169559e+00	8.756669e-01	1.043556e+00	9.189309e-01	8.965781e-01	1.083529e+00	1.091449e+00	1.082137e+00	1.066958e+00	1.171389e+00	1.098734e+00	1.103070e+00	1.082842e+00	8.282039e-01	8.985911e-01	9.355233e-01	9.896480e-01	1.150513e+00	1.157255e+00	1.272049e+00	1.075360e+00	1.085460e+00	1.175646e+00	1.099198e+00	1.169109e+00	1.152255e+00	8.908050e-01	1.224933e+00	9.798670e-01	9.645658e-01	1.094849e+00	1.233657e+00	1.067206e+00	1.106567e+00	9.438418e-01	1.254351e+00	1.176119e+00	1.005163e+00	1.213115e+00	1.200161e+00	8.802707e-01	1.117570e+00	1.079364e+00	8.891492e-01	8.317878e-01	9.087284e-01	1.118409e+00	1.143509e+00	9.979936e-01	1.007547e+00	1.025375e+00	1.034287e+00	1.114275e+00	8.793396e-01	1.051235e+00	1.058994e+00	8.698577e-01	9.748204e-01	9.827559e-01	9.587796e-01	9.499294e-01	9.346536e-01	9.198473e-01	1.048992e+00	8.580688e-01	8.628032e-01	9.054399e-01	8.915188e-01	9.271032e-01	1.091453e+00	8.709909e-01	8.613199e-01	8.330702e-01	1.059513e+00	1.049575e+00	1.009856e+00	1.038915e+00	1.028614e+00	1.019191e+00	9.991700e-01	9.868322e-01	9.736197e-01	9.601487e-01	9.465591e-01	9.329258e-01	9.200247e-01	8.253503e-01	8.235309e-01	8.226462e-01	8.226818e-01	8.228691e-01	8.272525e-01	9.123209e-01	9.305619e-01	9.665557e-01	9.899797e-01	8.825712e-01	8.862918e-01	9.485380e-01	9.694563e-01	9.929975e-01	1.016510e+00	1.041084e+00	8.401466e-01	8.459636e-01	8.513266e-01	8.595551e-01	8.716682e-01	8.524489e-01	8.452924e-01	8.401264e-01	1.074576e+00	1.067840e+00	9.035234e-01	9.110766e-01	8.790376e-01	8.689360e-01	8.616483e-01	8.577273e-01	1.152324e+00	1.152985e+00	1.149684e+00	1.121125e+00	1.156135e+00	1.140378e+00	1.113659e+00	1.050473e+00	1.172802e+00	1.120691e+00	1.117936e+00	1.071723e+00	1.166004e+00	1.084792e+00	8.330055e-01	1.137613e+00	1.141603e+00	1.128275e+00	1.169441e+00	1.071014e+00	9.259444e-01	1.026963e+00	1.024923e+00	9.594199e-01	1.132809e+00	1.131993e+00	1.128182e+00	1.171843e+00	1.172196e+00	9.002516e-01	9.