# vtk DataFile Version 3.0
vtk output
ASCII
DATASET UNSTRUCTURED_GRID
POINTS 200 float
9.997500e-01	-3.633243e-05	0.0	9.990000e-01	-1.454725e-04	0.0	9.977600e-01	-3.275093e-04	0.0	9.960200e-01	-5.899374e-04	0.0	9.937800e-01	-9.471318e-04	0.0	9.910500e-01	-1.422199e-03	0.0	9.878400e-01	-2.045752e-03	0.0	9.841300e-01	-2.854139e-03	0.0	9.799500e-01	-3.859694e-03	0.0	9.752800e-01	-5.059583e-03	0.0	9.701500e-01	-6.406966e-03	0.0	9.645400e-01	-7.843336e-03	0.0	9.584700e-01	-9.293307e-03	0.0	9.519400e-01	-1.070149e-02	0.0	9.449600e-01	-1.203990e-02	0.0	9.375400e-01	-1.331295e-02	0.0	9.296900e-01	-1.454794e-02	0.0	9.214000e-01	-1.578319e-02	0.0	9.127000e-01	-1.704594e-02	0.0	9.035800e-01	-1.835723e-02	0.0	8.940600e-01	-1.972071e-02	0.0	8.841500e-01	-2.113175e-02	0.0	8.738500e-01	-2.258214e-02	0.0	8.631800e-01	-2.405979e-02	0.0	8.521600e-01	-2.555402e-02	0.0	8.407700e-01	-2.706168e-02	0.0	8.290500e-01	-2.857352e-02	0.0	8.170100e-01	-3.008571e-02	0.0	8.046400e-01	-3.159743e-02	0.0	7.919700e-01	-3.310301e-02	0.0	7.790100e-01	-3.459921e-02	0.0	7.657800e-01	-3.608140e-02	0.0	7.522800e-01	-3.754703e-02	0.0	7.385200e-01	-3.899224e-02	0.0	7.245300e-01	-4.041117e-02	0.0	7.103200e-01	-4.180018e-02	0.0	6.958900e-01	-4.315672e-02	0.0	6.812700e-01	-4.447558e-02	0.0	6.664700e-01	-4.575376e-02	0.0	6.515000e-01	-4.698850e-02	0.0	6.363800e-01	-4.817647e-02	0.0	6.211300e-01	-4.931478e-02	0.0	6.057600e-01	-5.040156e-02	0.0	5.902800e-01	-5.143519e-02	0.0	5.747100e-01	-5.241362e-02	0.0	5.590600e-01	-5.333568e-02	0.0	5.433600e-01	-5.419930e-02	0.0	5.276100e-01	-5.500429e-02	0.0	5.118400e-01	-5.574900e-02	0.0	4.960500e-01	-5.643339e-02	0.0	4.802700e-01	-5.705612e-02	0.0	4.645100e-01	-5.761680e-02	0.0	4.487800e-01	-5.811498e-02	0.0	4.331100e-01	-5.854957e-02	0.0	4.175000e-01	-5.892036e-02	0.0	4.019700e-01	-5.922645e-02	0.0	3.865400e-01	-5.946697e-02	0.0	3.712300e-01	-5.964102e-02	0.0	3.560400e-01	-5.974782e-02	0.0	3.409900e-01	-5.978622e-02	0.0	3.261100e-01	-5.975512e-02	0.0	3.114000e-01	-5.965335e-02	0.0	2.968700e-01	-5.947958e-02	0.0	2.825500e-01	-5.923268e-02	0.0	2.684500e-01	-5.891139e-02	0.0	2.545700e-01	-5.851401e-02	0.0	2.409400e-01	-5.803967e-02	0.0	2.275700e-01	-5.748710e-02	0.0	2.144700e-01	-5.685500e-02	0.0	2.016600e-01	-5.614266e-02	0.0	1.891400e-01	-5.534842e-02	0.0	1.769300e-01	-5.447184e-02	0.0	1.650400e-01	-5.351207e-02	0.0	1.534900e-01	-5.246933e-02	0.0	1.422900e-01	-5.134332e-02	0.0	1.314400e-01	-5.013278e-02	0.0	1.209500e-01	-4.883744e-02	0.0	1.108500e-01	-4.746008e-02	0.0	1.011300e-01	-4.599851e-02	0.0	9.181000e-02	-4.445485e-02	0.0	8.290000e-02	-4.283018e-02	0.0	7.440000e-02	-4.112386e-02	0.0	6.633000e-02	-3.933942e-02	0.0	5.869000e-02	-3.747655e-02	0.0	5.149000e-02	-3.553725e-02	0.0	4.474000e-02	-3.352404e-02	0.0	3.844000e-02	-3.143660e-02	0.0	3.260000e-02	-2.927777e-02	0.0	2.723000e-02	-2.705123e-02	0.0	2.232000e-02	-2.475195e-02	0.0	1.790000e-02	-2.239392e-02	0.0	1.395000e-02	-1.996632e-02	0.0	1.049000e-02	-1.748043e-02	0.0	7.520000e-03	-1.493717e-02	0.0	5.040000e-03	-1.233674e-02	0.0	3.050000e-03	-9.677631e-03	0.0	1.560000e-03	-6.975158e-03	0.0	5.600000e-04	-4.208248e-03	0.0	6.000000e-05	-1.384462e-03	0.0	0.000000e+00	0.000000e+00	0.0	6.000000e-05	1.264175e-03	0.0	5.600000e-04	3.626953e-03	0.0	1.560000e-03	5.792433e-03	0.0	3.050000e-03	7.812166e-03	0.0	5.040000e-03	9.731101e-03	0.0	7.520000e-03	1.155693e-02	0.0	1.049000e-02	1.330463e-02	0.0	1.395000e-02	1.498469e-02	0.0	1.790000e-02	1.660503e-02	0.0	2.232000e-02	1.816527e-02	0.0	2.723000e-02	1.967855e-02	0.0	3.260000e-02	2.114076e-02	0.0	3.844000e-02	2.255960e-02	0.0	4.474000e-02	2.393645e-02	0.0	5.149000e-02	2.527269e-02	0.0	5.869000e-02	2.657136e-02	0.0	6.633000e-02	2.783319e-02	0.0	7.440000e-02	2.905885e-02	0.0	8.290000e-02	3.025028e-02	0.0	9.181000e-02	3.140637e-02	0.0	1.011300e-01	3.252864e-02	0.0	1.108500e-01	3.361708e-02	0.0	1.209500e-01	3.467054e-02	0.0	1.314400e-01	3.569090e-02	0.0	1.422900e-01	3.667587e-02	0.0	1.534900e-01	3.762519e-02	0.0	1.650400e-01	3.853923e-02	0.0	1.769300e-01	3.941730e-02	0.0	1.891400e-01	4.025793e-02	0.0	2.016600e-01	4.106033e-02	0.0	2.144700e-01	4.182301e-02	0.0	2.275700e-01	4.254556e-02	0.0	2.409400e-01	4.322627e-02	0.0	2.545700e-01	4.386389e-02	0.0	2.684500e-01	4.445700e-02	0.0	2.825500e-01	4.500332e-02	0.0	2.968700e-01	4.550166e-02	0.0	3.114000e-01	4.595024e-02	0.0	3.261100e-01	4.634661e-02	0.0	3.409900e-01	4.668889e-02	0.0	3.560400e-01	4.697521e-02	0.0	3.712300e-01	4.720301e-02	0.0	3.865400e-01	4.736998e-02	0.0	4.019700e-01	4.747399e-02	0.0	4.175000e-01	4.751258e-02	0.0	4.331100e-01	4.748341e-02	0.0	4.487800e-01	4.738425e-02	0.0	4.645100e-01	4.721277e-02	0.0	4.802700e-01	4.696699e-02	0.0	4.960500e-01	4.664489e-02	0.0	5.118400e-01	4.624457e-02	0.0	5.276100e-01	4.576488e-02	0.0	5.433600e-01	4.520415e-02	0.0	5.590600e-01	4.456202e-02	0.0	5.747100e-01	4.383737e-02	0.0	5.902800e-01	4.303085e-02	0.0	6.057600e-01	4.214273e-02	0.0	6.211300e-01	4.117440e-02	0.0	6.363800e-01	4.012726e-02	0.0	6.515000e-01	3.900325e-02	0.0	6.664700e-01	3.780573e-02	0.0	6.812700e-01	3.653891e-02	0.0	6.958900e-01	3.520694e-02	0.0	7.103200e-01	3.381462e-02	0.0	7.245300e-01	3.236952e-02	0.0	7.385200e-01	3.087698e-02	0.0	7.522800e-01	2.934393e-02	0.0	7.657800e-01	2.778026e-02	0.0	7.790100e-01	2.619436e-02	0.0	7.919700e-01	2.459385e-02	0.0	8.046400e-01	2.298927e-02	0.0	8.170100e-01	2.139025e-02	0.0	8.290500e-01	1.980914e-02	0.0	8.407700e-01	1.825273e-02	0.0	8.521600e-01	1.672946e-02	0.0	8.631800e-01	1.525018e-02	0.0	8.738500e-01	1.381535e-02	0.0	8.841500e-01	1.242821e-02	0.0	8.940600e-01	1.108993e-02	0.0	9.035800e-01	9.798834e-03	0.0	9.127000e-01	8.557611e-03	0.0	9.214000e-01	7.377206e-03	0.0	9.296900e-01	6.274191e-03	0.0	9.375400e-01	5.279546e-03	0.0	9.449600e-01	4.422437e-03	0.0	9.519400e-01	3.727797e-03	0.0	9.584700e-01	3.201744e-03	0.0	9.645400e-01	2.824075e-03	0.0	9.701500e-01	2.549887e-03	0.0	9.752800e-01	2.323321e-03	0.0	9.799500e-01	2.092096e-03	0.0	9.841300e-01	1.826468e-03	0.0	9.878400e-01	1.519617e-03	0.0	9.910500e-01	1.190077e-03	0.0	9.937800e-01	8.629766e-04	0.0	9.960200e-01	5.666138e-04	0.0	9.977600e-01	3.231859e-04	0.0	9.990000e-01	1.450781e-04	0.0	9.997500e-01	3.632618e-05	0.0	1.000000e+00	0.000000e+00	0.0	
CELLS 200	600
2	199	0	2	0	1	2	1	2	2	2	3	2	3	4	2	4	5	2	5	6	2	6	7	2	7	8	2	8	9	2	9	10	2	10	11	2	11	12	2	12	13	2	13	14	2	14	15	2	15	16	2	16	17	2	17	18	2	18	19	2	19	20	2	20	21	2	21	22	2	22	23	2	23	24	2	24	25	2	25	26	2	26	27	2	27	28	2	28	29	2	29	30	2	30	31	2	31	32	2	32	33	2	33	34	2	34	35	2	35	36	2	36	37	2	37	38	2	38	39	2	39	40	2	40	41	2	41	42	2	42	43	2	43	44	2	44	45	2	45	46	2	46	47	2	47	48	2	48	49	2	49	50	2	50	51	2	51	52	2	52	53	2	53	54	2	54	55	2	55	56	2	56	57	2	57	58	2	58	59	2	59	60	2	60	61	2	61	62	2	62	63	2	63	64	2	64	65	2	65	66	2	66	67	2	67	68	2	68	69	2	69	70	2	70	71	2	71	72	2	72	73	2	73	74	2	74	75	2	75	76	2	76	77	2	77	78	2	78	79	2	79	80	2	80	81	2	81	82	2	82	83	2	83	84	2	84	85	2	85	86	2	86	87	2	87	88	2	88	89	2	89	90	2	90	91	2	91	92	2	92	93	2	93	94	2	94	95	2	95	96	2	96	97	2	97	98	2	98	99	2	99	100	2	100	101	2	101	102	2	102	103	2	103	104	2	104	105	2	105	106	2	106	107	2	107	108	2	108	109	2	109	110	2	110	111	2	111	112	2	112	113	2	113	114	2	114	115	2	115	116	2	116	117	2	117	118	2	118	119	2	119	120	2	120	121	2	121	122	2	122	123	2	123	124	2	124	125	2	125	126	2	126	127	2	127	128	2	128	129	2	129	130	2	130	131	2	131	132	2	132	133	2	133	134	2	134	135	2	135	136	2	136	137	2	137	138	2	138	139	2	139	140	2	140	141	2	141	142	2	142	143	2	143	144	2	144	145	2	145	146	2	146	147	2	147	148	2	148	149	2	149	150	2	150	151	2	151	152	2	152	153	2	153	154	2	154	155	2	155	156	2	156	157	2	157	158	2	158	159	2	159	160	2	160	161	2	161	162	2	162	163	2	163	164	2	164	165	2	165	166	2	166	167	2	167	168	2	168	169	2	169	170	2	170	171	2	171	172	2	172	173	2	173	174	2	174	175	2	175	176	2	176	177	2	177	178	2	178	179	2	179	180	2	180	181	2	181	182	2	182	183	2	183	184	2	184	185	2	185	186	2	186	187	2	187	188	2	188	189	2	189	190	2	190	191	2	191	192	2	192	193	2	193	194	2	194	195	2	195	196	2	196	197	2	197	198	2	198	199	
CELL_TYPES 200
3	3	3	3	3	3	3	3	3	3	3	3	3	3	3	3	3	3	3	3	3	3	3	3	3	3	3	3	3	3	3	3	3	3	3	3	3	3	3	3	3	3	3	3	3	3	3	3	3	3	3	3	3	3	3	3	3	3	3	3	3	3	3	3	3	3	3	3	3	3	3	3	3	3	3	3	3	3	3	3	3	3	3	3	3	3	3	3	3	3	3	3	3	3	3	3	3	3	3	3	3	3	3	3	3	3	3	3	3	3	3	3	3	3	3	3	3	3	3	3	3	3	3	3	3	3	3	3	3	3	3	3	3	3	3	3	3	3	3	3	3	3	3	3	3	3	3	3	3	3	3	3	3	3	3	3	3	3	3	3	3	3	3	3	3	3	3	3	3	3	3	3	3	3	3	3	3	3	3	3	3	3	3	3	3	3	3	3	3	3	3	3	3	3	3	3	3	3	3	3	
POINT_DATA 200

SCALARS Conservative_1 float 1
LOOKUP_TABLE default
1.199832e+00	1.181610e+00	1.171191e+00	1.164757e+00	1.160189e+00	1.155729e+00	1.148847e+00	1.137930e+00	1.121745e+00	1.100384e+00	1.075085e+00	1.048460e+00	1.024878e+00	1.008330e+00	9.999484e-01	9.978862e-01	9.989941e-01	1.000436e+00	1.000462e+00	9.984712e-01	9.946847e-01	9.896598e-01	9.839824e-01	9.781242e-01	9.723632e-01	9.668100e-01	9.614558e-01	9.562540e-01	9.511398e-01	9.460817e-01	9.410636e-01	9.360419e-01	9.309823e-01	9.259013e-01	9.208504e-01	9.158781e-01	9.110031e-01	9.062300e-01	9.015700e-01	8.970399e-01	8.926394e-01	8.883792e-01	8.842417e-01	8.802435e-01	8.763997e-01	8.727620e-01	8.693198e-01	8.660089e-01	8.626821e-01	8.593296e-01	8.561539e-01	8.535095e-01	8.515113e-01	8.498690e-01	8.479108e-01	8.448836e-01	8.402824e-01	8.342472e-01	8.276524e-01	8.217587e-01	8.174613e-01	8.149590e-01	8.139809e-01	8.140929e-01	8.149835e-01	8.164521e-01	8.184490e-01	8.208899e-01	8.236885e-01	8.267325e-01	8.300419e-01	8.337806e-01	8.381962e-01	8.433561e-01	8.491830e-01	8.555302e-01	8.624632e-01	8.701607e-01	8.786801e-01	8.880605e-01	8.984138e-01	9.097992e-01	9.223683e-01	9.362391e-01	9.516019e-01	9.687342e-01	9.878645e-01	1.009352e+00	1.033682e+00	1.061170e+00	1.092346e+00	1.127677e+00	1.167007e+00	1.209871e+00	1.254557e+00	1.298046e+00	1.331742e+00	1.350896e+00	1.339555e+00	1.308336e+00	1.284368e+00	1.221294e+00	1.099780e+00	1.002347e+00	9.263225e-01	8.705411e-01	8.324783e-01	8.074041e-01	7.905128e-01	7.790638e-01	7.713608e-01	7.662335e-01	7.631212e-01	7.612854e-01	7.603507e-01	7.603132e-01	7.610439e-01	7.623055e-01	7.637763e-01	7.651279e-01	7.663758e-01	7.678438e-01	7.697916e-01	7.720702e-01	7.742799e-01	7.761912e-01	7.778950e-01	7.795384e-01	7.812247e-01	7.830248e-01	7.849943e-01	7.871172e-01	7.893209e-01	7.915051e-01	7.936269e-01	7.956618e-01	7.976006e-01	7.994048e-01	8.010837e-01	8.027555e-01	8.046439e-01	8.069228e-01	8.096574e-01	8.128096e-01	8.163505e-01	8.202791e-01	8.245592e-01	8.291276e-01	8.338518e-01	8.386208e-01	8.433244e-01	8.480503e-01	8.530625e-01	8.586534e-01	8.648364e-01	8.713718e-01	8.780528e-01	8.848962e-01	8.920763e-01	8.996392e-01	9.075301e-01	9.156609e-01	9.239838e-01	9.324871e-01	9.411408e-01	9.499314e-01	9.588089e-01	9.677555e-01	9.766971e-01	9.856361e-01	9.944897e-01	1.003177e+00	1.011636e+00	1.019782e+00	1.027568e+00	1.034974e+00	1.042045e+00	1.048963e+00	1.055987e+00	1.063505e+00	1.071817e+00	1.081018e+00	1.090725e+00	1.100077e+00	1.107822e+00	1.112624e+00	1.113391e+00	1.109761e+00	1.102496e+00	1.093765e+00	1.086648e+00	1.084119e+00	1.088020e+00	1.098240e+00	1.112822e+00	1.129997e+00	1.148467e+00	1.168631e+00	1.192713e+00	1.181128e+00	
SCALARS Conservative_2 float 1
LOOKUP_TABLE default
7.195664e-01	7.459367e-01	7.640206e-01	7.748220e-01	7.807053e-01	7.854709e-01	7.912707e-01	8.009329e-01	8.159436e-01	8.363564e-01	8.604552e-01	8.849110e-01	9.060781e-01	9.215736e-01	9.308075e-01	9.347749e-01	9.355315e-01	9.351723e-01	9.351570e-01	9.360976e-01	9.380476e-01	9.407059e-01	9.436967e-01	9.467294e-01	9.496176e-01	9.522953e-01	9.547579e-01	9.570474e-01	9.591742e-01	9.611707e-01	9.630719e-01	9.648700e-01	9.665795e-01	9.681979e-01	9.697126e-01	9.711116e-01	9.724093e-01	9.735869e-01	9.746544e-01	9.756273e-01	9.764865e-01	9.772669e-01	9.779422e-01	9.785495e-01	9.790562e-01	9.795032e-01	9.798678e-01	9.802021e-01	9.804744e-01	9.807237e-01	9.808910e-01	9.810035e-01	9.810459e-01	9.810750e-01	9.811099e-01	9.811835e-01	9.812229e-01	9.811476e-01	9.808250e-01	9.803290e-01	9.798231e-01	9.794074e-01	9.791557e-01	9.790030e-01	9.789498e-01	9.789053e-01	9.788924e-01	9.788392e-01	9.787593e-01	9.785855e-01	9.783313e-01	9.779432e-01	9.774232e-01	9.766911e-01	9.757344e-01	9.744127e-01	9.727460e-01	9.706395e-01	9.678625e-01	9.642602e-01	9.597422e-01	9.540163e-01	9.468189e-01	9.377326e-01	9.262413e-01	9.116159e-01	8.929236e-01	8.690882e-01	8.385359e-01	7.991156e-01	7.483404e-01	6.831636e-01	5.999254e-01	4.964307e-01	3.727060e-01	2.365271e-01	1.074077e-01	1.082631e-02	-2.154522e-02	5.237874e-03	7.298128e-02	2.102838e-01	4.131816e-01	5.899499e-01	7.150395e-01	7.966958e-01	8.483428e-01	8.812932e-01	9.025860e-01	9.169291e-01	9.269737e-01	9.341419e-01	9.396107e-01	9.438858e-01	9.473150e-01	9.502549e-01	9.527680e-01	9.549405e-01	9.568700e-01	9.585345e-01	9.600193e-01	9.614383e-01	9.628077e-01	9.640395e-01	9.651382e-01	9.661021e-01	9.669871e-01	9.677982e-01	9.685777e-01	9.693227e-01	9.700655e-01	9.707855e-01	9.714866e-01	9.721369e-01	9.727509e-01	9.733129e-01	9.738359e-01	9.743107e-01	9.747520e-01	9.751780e-01	9.756393e-01	9.761159e-01	9.766143e-01	9.771132e-01	9.776016e-01	9.780709e-01	9.784901e-01	9.788669e-01	9.791308e-01	9.793217e-01	9.794213e-01	9.794558e-01	9.794006e-01	9.792290e-01	9.788776e-01	9.783222e-01	9.775994e-01	9.766537e-01	9.754876e-01	9.740429e-01	9.723177e-01	9.702870e-01	9.679552e-01	9.653062e-01	9.623351e-01	9.590357e-01	9.554067e-01	9.514881e-01	9.472140e-01	9.426956e-01	9.379395e-01	9.329645e-01	9.278863e-01	9.227600e-01	9.176403e-01	9.125534e-01	9.074435e-01	9.021876e-01	8.964929e-01	8.900629e-01	8.825615e-01	8.739815e-01	8.647486e-01	8.559467e-01	8.491168e-01	8.458261e-01	8.470854e-01	8.527995e-01	8.615080e-01	8.705432e-01	8.765956e-01	8.770199e-01	8.705080e-01	8.577940e-01	8.396120e-01	8.175118e-01	7.912064e-01	7.596612e-01	7.213290e-01	6.623533e-01	
SCALARS Conservative_3 float 1
LOOKUP_TABLE default
1.010183e-01	1.066658e-01	1.128618e-01	1.197602e-01	1.301787e-01	1.448023e-01	1.632844e-01	1.837110e-01	2.029323e-01	2.170243e-01	2.228024e-01	2.186881e-01	2.056472e-01	1.874751e-01	1.688998e-01	1.535915e-01	1.431897e-01	1.374538e-01	1.350318e-01	1.342906e-01	1.339341e-01	1.331983e-01	1.317979e-01	1.297607e-01	1.272550e-01	1.244807e-01	1.215713e-01	1.186160e-01	1.156405e-01	1.126326e-01	1.095807e-01	1.064644e-01	1.032722e-01	9.999665e-02	9.662368e-02	9.316824e-02	8.962672e-02	8.601770e-02	8.234755e-02	7.862824e-02	7.487304e-02	7.108884e-02	6.729419e-02	6.349062e-02	5.968569e-02	5.587080e-02	5.204971e-02	4.823463e-02	4.444902e-02	4.069731e-02	3.694326e-02	3.313000e-02	2.923509e-02	2.524535e-02	2.119256e-02	1.712059e-02	1.307478e-02	9.043019e-03	4.918360e-03	5.630686e-04	-4.060435e-03	-8.930637e-03	-1.403593e-02	-1.936470e-02	-2.495518e-02	-3.083545e-02	-3.706194e-02	-4.365154e-02	-5.063787e-02	-5.804096e-02	-6.590794e-02	-7.430313e-02	-8.329697e-02	-9.292200e-02	-1.032209e-01	-1.142458e-01	-1.261080e-01	-1.388743e-01	-1.526208e-01	-1.674719e-01	-1.835463e-01	-2.009566e-01	-2.198588e-01	-2.403876e-01	-2.626640e-01	-2.868060e-01	-3.128844e-01	-3.408439e-01	-3.702970e-01	-4.005103e-01	-4.300050e-01	-4.556696e-01	-4.724237e-01	-4.718472e-01	-4.410242e-01	-3.645440e-01	-2.307213e-01	-3.818343e-02	1.855872e-01	3.515847e-01	4.960337e-01	6.607905e-01	7.235315e-01	6.885312e-01	6.114721e-01	5.278348e-01	4.533489e-01	3.915542e-01	3.413289e-01	3.002815e-01	2.666757e-01	2.387257e-01	2.152562e-01	1.953141e-01	1.781627e-01	1.632872e-01	1.503019e-01	1.388543e-01	1.286901e-01	1.195371e-01	1.111962e-01	1.035980e-01	9.669302e-02	9.038888e-02	8.455530e-02	7.904592e-02	7.383482e-02	6.889735e-02	6.422422e-02	5.976507e-02	5.548809e-02	5.136164e-02	4.735443e-02	4.342855e-02	3.955963e-02	3.572804e-02	3.192003e-02	2.811412e-02	2.428086e-02	2.039920e-02	1.647269e-02	1.250442e-02	8.485681e-03	4.387146e-03	1.907503e-04	-4.112575e-03	-8.525496e-03	-1.304522e-02	-1.768808e-02	-2.245709e-02	-2.736193e-02	-3.241992e-02	-3.758763e-02	-4.284240e-02	-4.813666e-02	-5.349007e-02	-5.891500e-02	-6.438888e-02	-6.985376e-02	-7.526720e-02	-8.058967e-02	-8.580814e-02	-9.086395e-02	-9.572804e-02	-1.003306e-01	-1.046476e-01	-1.086085e-01	-1.121784e-01	-1.153021e-01	-1.179355e-01	-1.200378e-01	-1.215751e-01	-1.225485e-01	-1.229834e-01	-1.229524e-01	-1.226014e-01	-1.221053e-01	-1.216418e-01	-1.212829e-01	-1.208644e-01	-1.198539e-01	-1.173549e-01	-1.122496e-01	-1.036530e-01	-9.137537e-02	-7.633905e-02	-6.070819e-02	-4.757110e-02	-4.017491e-02	-4.072515e-02	-4.931774e-02	-6.371646e-02	-8.011133e-02	-9.477064e-02	-1.049713e-01	-1.097926e-01	-1.102822e-01	-1.061996e-01	-1.003426e-01	2.576730e-03	
SCALARS Conservative_4 float 1
LOOKUP_TABLE default
3.446408e+00	3.400807e+00	3.375530e+00	3.360024e+00	3.348888e+00	3.338026e+00	3.320937e+00	3.293750e+00	3.253371e+00	3.200026e+00	3.136735e+00	3.069887e+00	3.010502e+00	2.968813e+00	2.947724e+00	2.942525e+00	2.945268e+00	2.948824e+00	2.948795e+00	2.943659e+00	2.933979e+00	2.921156e+00	2.906662e+00	2.891691e+00	2.876945e+00	2.862708e+00	2.848960e+00	2.835587e+00	2.822420e+00	2.809381e+00	2.796436e+00	2.783466e+00	2.770383e+00	2.757231e+00	2.744142e+00	2.731241e+00	2.718582e+00	2.706170e+00	2.694039e+00	2.682237e+00	2.670755e+00	2.659634e+00	2.648817e+00	2.638359e+00	2.628290e+00	2.618756e+00	2.609722e+00	2.601036e+00	2.592297e+00	2.583493e+00	2.575138e+00	2.568171e+00	2.562888e+00	2.558542e+00	2.553373e+00	2.545416e+00	2.533324e+00	2.517449e+00	2.500046e+00	2.484443e+00	2.473032e+00	2.466359e+00	2.463737e+00	2.464009e+00	2.466361e+00	2.470243e+00	2.475534e+00	2.481994e+00	2.489405e+00	2.497456e+00	2.506209e+00	2.516082e+00	2.527734e+00	2.541326e+00	2.556665e+00	2.573333e+00	2.591527e+00	2.611707e+00	2.633978e+00	2.658427e+00	2.685363e+00	2.714901e+00	2.747425e+00	2.783202e+00	2.822683e+00	2.866528e+00	2.915251e+00	2.969733e+00	3.031125e+00	3.100078e+00	3.177854e+00	3.265494e+00	3.362355e+00	3.467243e+00	3.575836e+00	3.681292e+00	3.762480e+00	3.809714e+00	3.781289e+00	3.703028e+00	3.649897e+00	3.500315e+00	3.191572e+00	2.943805e+00	2.748756e+00	2.604819e+00	2.506372e+00	2.441439e+00	2.397534e+00	2.367676e+00	2.347560e+00	2.334108e+00	2.325962e+00	2.321178e+00	2.318772e+00	2.318769e+00	2.320795e+00	2.324220e+00	2.328213e+00	2.331888e+00	2.335295e+00	2.339306e+00	2.344591e+00	2.350725e+00	2.356664e+00	2.361804e+00	2.366398e+00	2.370826e+00	2.375372e+00	2.380214e+00	2.385509e+00	2.391206e+00	2.397116e+00	2.402967e+00	2.408651e+00	2.414098e+00	2.419287e+00	2.424116e+00	2.428612e+00	2.433090e+00	2.438153e+00	2.444246e+00	2.451545e+00	2.459943e+00	2.469364e+00	2.479805e+00	2.491162e+00	2.503275e+00	2.515774e+00	2.528385e+00	2.540812e+00	2.553295e+00	2.566522e+00	2.581255e+00	2.597514e+00	2.614665e+00	2.632177e+00	2.650080e+00	2.668836e+00	2.688553e+00	2.709090e+00	2.730208e+00	2.751785e+00	2.773786e+00	2.796132e+00	2.818786e+00	2.841616e+00	2.864585e+00	2.887477e+00	2.910329e+00	2.932918e+00	2.955032e+00	2.976531e+00	2.997200e+00	3.016926e+00	3.035661e+00	3.053518e+00	3.070957e+00	3.088616e+00	3.107479e+00	3.128272e+00	3.151249e+00	3.175454e+00	3.198772e+00	3.218128e+00	3.230222e+00	3.232321e+00	3.223453e+00	3.205436e+00	3.183632e+00	3.165704e+00	3.159122e+00	3.168574e+00	3.193935e+00	3.230088e+00	3.272623e+00	3.318077e+00	3.367480e+00	3.426996e+00	3.383862e+00	
SCALARS Pressure float 1
LOOKUP_TABLE default
1.290554e+00	1.264217e+00	1.248356e+00	1.238461e+00	1.231565e+00	1.224816e+00	1.214736e+00	1.198821e+00	1.175304e+00	1.144314e+00	1.107724e+00	1.069457e+00	1.035738e+00	1.012097e+00	1.000094e+00	9.971511e-01	9.987824e-01	1.000919e+00	1.001050e+00	9.983271e-01	9.930576e-01	9.860423e-01	9.781219e-01	9.699649e-01	9.619662e-01	9.542782e-01	9.468883e-01	9.397240e-01	9.327007e-01	9.257703e-01	9.189035e-01	9.120474e-01	9.051546e-01	8.982472e-01	8.913955e-01	8.846656e-01	8.780783e-01	8.716452e-01	8.653788e-01	8.592963e-01	8.534042e-01	8.477062e-01	8.421881e-01	8.368610e-01	8.317554e-01	8.269272e-01	8.223709e-01	8.179863e-01	8.135906e-01	8.091585e-01	8.049760e-01	8.015028e-01	7.988972e-01	7.967593e-01	7.941967e-01	7.902027e-01	7.841284e-01	7.761769e-01	7.675435e-01	7.598777e-01	7.543224e-01	7.511163e-01	7.498769e-01	7.500477e-01	7.512109e-01	7.531277e-01	7.557203e-01	7.588973e-01	7.625347e-01	7.665015e-01	7.708143e-01	7.757020e-01	7.814828e-01	7.882616e-01	7.959276e-01	8.043189e-01	8.134967e-01	8.237060e-01	8.350700e-01	8.476548e-01	8.615941e-01	8.770064e-01	8.941052e-01	9.130907e-01	9.342617e-01	9.580556e-01	9.848592e-01	1.015210e+00	1.049873e+00	1.089444e+00	1.134753e+00	1.186598e+00	1.245012e+00	1.309354e+00	1.377182e+00	1.443421e+00	1.495265e+00	1.523652e+00	1.507304e+00	1.462311e+00	1.420815e+00	1.321379e+00	1.150382e+00	1.013484e+00	9.083854e-01	8.320962e-01	7.802702e-01	7.462096e-01	7.234279e-01	7.080843e-01	6.977891e-01	6.909987e-01	6.868576e-01	6.843926e-01	6.831090e-01	6.829643e-01	6.838228e-01	6.853787e-01	6.871924e-01	6.888540e-01	6.903730e-01	6.921582e-01	6.945632e-01	6.974253e-01	7.002101e-01	7.026158e-01	7.047487e-01	7.068081e-01	7.089203e-01	7.111844e-01	7.136653e-01	7.163498e-01	7.191396e-01	7.219120e-01	7.246052e-01	7.271924e-01	7.296572e-01	7.319516e-01	7.340836e-01	7.362055e-01	7.385990e-01	7.415026e-01	7.450003e-01	7.490467e-01	7.536049e-01	7.586747e-01	7.642157e-01	7.701390e-01	7.762904e-01	7.825080e-01	7.886509e-01	7.948257e-01	8.013876e-01	8.087272e-01	8.168785e-01	8.255295e-01	8.343940e-01	8.435097e-01	8.531008e-01	8.632419e-01	8.738586e-01	8.848407e-01	8.961230e-01	9.076929e-01	9.195123e-01	9.315634e-01	9.437824e-01	9.561345e-01	9.685443e-01	9.809841e-01	9.933485e-01	1.005533e+00	1.017429e+00	1.028920e+00	1.039934e+00	1.050437e+00	1.060500e+00	1.070372e+00	1.080443e+00	1.091263e+00	1.103284e+00	1.116632e+00	1.130753e+00	1.144357e+00	1.155579e+00	1.162441e+00	1.163371e+00	1.157906e+00	1.147243e+00	1.134574e+00	1.124404e+00	1.121003e+00	1.126954e+00	1.141940e+00	1.163359e+00	1.188628e+00	1.216096e+00	1.246299e+00	1.281861e+00	1.279257e+00	
SCALARS Temperature float 1
LOOKUP_TABLE default
1.075612e+00	1.069910e+00	1.065886e+00	1.063279e+00	1.061520e+00	1.059778e+00	1.057352e+00	1.053510e+00	1.047746e+00	1.039922e+00	1.030360e+00	1.020026e+00	1.010597e+00	1.003736e+00	1.000146e+00	9.992633e-01	9.997880e-01	1.000483e+00	1.000588e+00	9.998557e-01	9.983643e-01	9.963447e-01	9.940442e-01	9.916582e-01	9.893075e-01	9.870380e-01	9.848485e-01	9.827138e-01	9.806137e-01	9.785311e-01	9.764520e-01	9.743660e-01	9.722577e-01	9.701328e-01	9.680134e-01	9.659207e-01	9.638587e-01	9.618366e-01	9.598575e-01	9.579243e-01	9.560459e-01	9.542166e-01	9.524412e-01	9.507153e-01	9.490594e-01	9.474831e-01	9.459936e-01	9.445472e-01	9.430944e-01	9.416160e-01	9.402235e-01	9.390673e-01	9.382110e-01	9.375084e-01	9.366513e-01	9.352799e-01	9.331725e-01	9.303920e-01	9.273743e-01	9.246969e-01	9.227622e-01	9.216615e-01	9.212463e-01	9.213293e-01	9.217498e-01	9.224395e-01	9.233566e-01	9.244812e-01	9.257561e-01	9.271457e-01	9.286451e-01	9.303431e-01	9.323387e-01	9.346724e-01	9.372863e-01	9.401409e-01	9.432248e-01	9.466136e-01	9.503687e-01	9.545012e-01	9.590170e-01	9.639559e-01	9.693581e-01	9.752750e-01	9.817779e-01	9.889767e-01	9.969578e-01	1.005804e+00	1.015664e+00	1.026644e+00	1.038822e+00	1.052250e+00	1.066842e+00	1.082226e+00	1.097744e+00	1.111995e+00	1.122789e+00	1.127883e+00	1.125227e+00	1.117688e+00	1.106237e+00	1.081950e+00	1.046011e+00	1.011110e+00	9.806362e-01	9.558380e-01	9.372859e-01	9.242084e-01	9.151375e-01	9.088912e-01	9.046208e-01	9.018122e-01	9.000635e-01	8.989961e-01	8.984131e-01	8.982670e-01	8.985327e-01	8.990866e-01	8.997299e-01	9.003122e-01	9.008283e-01	9.014310e-01	9.022743e-01	9.033185e-01	9.043372e-01	9.052097e-01	9.059689e-01	9.067008e-01	9.074474e-01	9.082528e-01	9.091344e-01	9.100929e-01	9.110865e-01	9.120750e-01	9.130301e-01	9.139466e-01	9.148152e-01	9.156207e-01	9.163632e-01	9.170981e-01	9.179203e-01	9.189264e-01	9.201427e-01	9.215525e-01	9.231390e-01	9.248982e-01	9.268172e-01	9.288547e-01	9.309694e-01	9.330892e-01	9.351691e-01	9.372388e-01	9.394242e-01	9.418552e-01	9.445469e-01	9.473906e-01	9.502777e-01	9.532301e-01	9.563092e-01	9.595423e-01	9.628976e-01	9.663411e-01	9.698471e-01	9.734107e-01	9.770188e-01	9.806639e-01	9.843280e-01	9.879918e-01	9.916527e-01	9.952801e-01	9.988525e-01	1.002348e+00	1.005727e+00	1.008961e+00	1.012034e+00	1.014941e+00	1.017710e+00	1.020409e+00	1.023159e+00	1.026100e+00	1.029358e+00	1.032945e+00	1.036698e+00	1.040251e+00	1.043108e+00	1.044774e+00	1.044890e+00	1.043384e+00	1.040586e+00	1.037311e+00	1.034746e+00	1.034022e+00	1.035784e+00	1.039791e+00	1.045413e+00	1.051886e+00	1.058887e+00	1.066461e+00	1.074744e+00	1.083081e+00	
SCALARS Pressure_Coefficient float 1
LOOKUP_TABLE default
6.485582e-01	5.897696e-01	5.543660e-01	5.322793e-01	5.168851e-01	5.018208e-01	4.793204e-01	4.437961e-01	3.913046e-01	3.221291e-01	2.404561e-01	1.550386e-01	7.977244e-02	2.700323e-02	2.103935e-04	-6.359240e-03	-2.717947e-03	2.051933e-03	2.343893e-03	-3.734091e-03	-1.549634e-02	-3.115558e-02	-4.883494e-02	-6.704259e-02	-8.489686e-02	-1.020577e-01	-1.185529e-01	-1.345446e-01	-1.502217e-01	-1.656912e-01	-1.810190e-01	-1.963228e-01	-2.117084e-01	-2.271267e-01	-2.424207e-01	-2.574428e-01	-2.721467e-01	-2.865063e-01	-3.004939e-01	-3.140707e-01	-3.272227e-01	-3.399415e-01	-3.522586e-01	-3.641496e-01	-3.755460e-01	-3.863232e-01	-3.964935e-01	-4.062806e-01	-4.160924e-01	-4.259855e-01	-4.353213e-01	-4.430741e-01	-4.488901e-01	-4.536622e-01	-4.593824e-01	-4.682976e-01	-4.818562e-01	-4.996052e-01	-5.188761e-01	-5.359873e-01	-5.483876e-01	-5.555439e-01	-5.583104e-01	-5.579293e-01	-5.553329e-01	-5.510541e-01	-5.452672e-01	-5.381758e-01	-5.300565e-01	-5.212020e-01	-5.115753e-01	-5.006651e-01	-4.877616e-01	-4.726303e-01	-4.555188e-01	-4.367881e-01	-4.163020e-01	-3.935133e-01	-3.681473e-01	-3.400563e-01	-3.089416e-01	-2.745394e-01	-2.363723e-01	-1.939941e-01	-1.467373e-01	-9.362588e-02	-3.379654e-02	3.395122e-02	1.113245e-01	1.996515e-01	3.007877e-01	4.165143e-01	5.469021e-01	6.905231e-01	8.419244e-01	9.897797e-01	1.105503e+00	1.168867e+00	1.132375e+00	1.031944e+00	9.393188e-01	7.173646e-01	3.356747e-01	3.009745e-02	-2.044969e-01	-3.747852e-01	-4.904683e-01	-5.664963e-01	-6.173485e-01	-6.515976e-01	-6.745780e-01	-6.897350e-01	-6.989786e-01	-7.044808e-01	-7.073459e-01	-7.076691e-01	-7.057526e-01	-7.022798e-01	-6.982313e-01	-6.945223e-01	-6.911316e-01	-6.871468e-01	-6.817786e-01	-6.753899e-01	-6.691738e-01	-6.638039e-01	-6.590431e-01	-6.544463e-01	-6.497314e-01	-6.446776e-01	-6.391399e-01	-6.331478e-01	-6.269206e-01	-6.207322e-01	-6.147205e-01	-6.089455e-01	-6.034438e-01	-5.983223e-01	-5.935634e-01	-5.888270e-01	-5.834843e-01	-5.770031e-01	-5.691957e-01	-5.601636e-01	-5.499890e-01	-5.386726e-01	-5.263043e-01	-5.130825e-01	-4.993517e-01	-4.854732e-01	-4.717614e-01	-4.579784e-01	-4.433312e-01	-4.269483e-01	-4.087533e-01	-3.894431e-01	-3.696562e-01	-3.493088e-01	-3.279000e-01	-3.052637e-01	-2.815656e-01	-2.570520e-01	-2.318682e-01	-2.060426e-01	-1.796600e-01	-1.527602e-01	-1.254856e-01	-9.791398e-02	-7.021371e-02	-4.244630e-02	-1.484704e-02	1.235022e-02	3.890421e-02	6.455320e-02	8.913769e-02	1.125827e-01	1.350443e-01	1.570798e-01	1.795592e-01	2.037125e-01	2.305441e-01	2.603395e-01	2.918598e-01	3.222252e-01	3.472738e-01	3.625906e-01	3.646680e-01	3.524690e-01	3.286664e-01	3.003886e-01	2.776884e-01	2.700969e-01	2.833788e-01	3.168307e-01	3.646412e-01	4.210439e-01	4.823582e-01	5.497748e-01	6.291536e-01	6.233406e-01	
SCALARS Mach float 1
LOOKUP_TABLE default
4.935108e-01	5.210572e-01	5.398157e-01	5.517036e-01	5.596097e-01	5.673616e-01	5.780222e-01	5.946088e-01	6.188802e-01	6.507779e-01	6.883651e-01	7.275294e-01	7.621630e-01	7.867899e-01	7.995050e-01	8.026139e-01	8.007664e-01	7.983157e-01	7.979456e-01	8.005279e-01	8.057738e-01	8.128485e-01	8.208673e-01	8.291409e-01	8.372506e-01	8.450426e-01	8.525261e-01	8.597909e-01	8.669094e-01	8.739409e-01	8.809342e-01	8.879250e-01	8.949654e-01	9.020360e-01	9.090642e-01	9.159806e-01	9.227742e-01	9.294159e-01	9.358977e-01	9.422115e-01	9.483305e-01	9.542745e-01	9.600303e-01	9.656126e-01	9.709574e-01	9.760355e-01	9.808253e-01	9.854682e-01	9.901243e-01	9.948545e-01	9.993029e-01	1.002992e+00	1.005721e+00	1.007958e+00	1.010685e+00	1.015043e+00	1.021730e+00	1.030531e+00	1.040058e+00	1.048489e+00	1.054570e+00	1.058025e+00	1.059327e+00	1.059067e+00	1.057748e+00	1.055583e+00	1.052702e+00	1.049167e+00	1.045156e+00	1.040778e+00	1.036049e+00	1.030686e+00	1.024371e+00	1.016973e+00	1.008665e+00	9.995668e-01	9.897066e-01	9.788324e-01	9.667324e-01	9.533508e-01	9.386449e-01	9.224543e-01	9.046078e-01	8.848817e-01	8.629668e-01	8.383885e-01	8.107043e-01	7.794130e-01	7.436722e-01	7.026077e-01	6.551780e-01	5.999756e-01	5.354045e-01	4.598994e-01	3.712665e-01	2.683110e-01	1.524227e-01	2.338017e-02	1.111246e-01	2.148496e-01	3.136781e-01	4.613420e-01	6.260509e-01	7.603002e-01	8.668332e-01	9.490068e-01	1.008666e+00	1.050025e+00	1.078444e+00	1.097906e+00	1.111166e+00	1.119870e+00	1.125282e+00	1.128583e+00	1.130385e+00	1.130836e+00	1.130015e+00	1.128303e+00	1.126313e+00	1.124512e+00	1.122915e+00	1.121050e+00	1.118439e+00	1.115204e+00	1.112046e+00	1.109340e+00	1.106984e+00	1.104712e+00	1.102393e+00	1.099890e+00	1.097149e+00	1.094168e+00	1.091075e+00	1.087996e+00	1.085019e+00	1.082161e+00	1.079451e+00	1.076935e+00	1.074616e+00	1.072318e+00	1.069747e+00	1.066598e+00	1.062788e+00	1.058367e+00	1.053386e+00	1.047856e+00	1.041814e+00	1.035388e+00	1.028705e+00	1.021994e+00	1.015395e+00	1.008816e+00	1.001853e+00	9.940896e-01	9.854693e-01	9.763331e-01	9.670262e-01	9.574743e-01	9.474738e-01	9.369284e-01	9.259333e-01	9.145932e-01	9.029846e-01	8.911182e-01	8.790302e-01	8.667396e-01	8.543001e-01	8.417722e-01	8.291601e-01	8.165644e-01	8.040586e-01	7.917180e-01	7.796895e-01	7.680751e-01	7.569448e-01	7.463270e-01	7.361283e-01	7.261018e-01	7.157991e-01	7.046765e-01	6.922218e-01	6.783395e-01	6.636096e-01	6.494588e-01	6.379238e-01	6.311305e-01	6.306561e-01	6.368046e-01	6.481132e-01	6.611845e-01	6.712988e-01	6.741346e-01	6.672192e-01	6.513032e-01	6.285107e-01	6.015202e-01	5.712955e-01	5.371667e-01	4.977862e-01	4.554091e-01	