# vtk DataFile Version 3.0
vtk output
ASCII
DATASET UNSTRUCTURED_GRID
POINTS 5233 float
9.997500e-01	-3.633255e-05	0.0	9.990000e-01	-1.454797e-04	0.0	9.977600e-01	-3.275883e-04	0.0	9.960200e-01	-5.903629e-04	0.0	9.937800e-01	-9.486624e-04	0.0	9.910500e-01	-1.426401e-03	0.0	9.878400e-01	-2.055213e-03	0.0	9.841300e-01	-2.872446e-03	0.0	9.799500e-01	-3.890777e-03	0.0	9.752800e-01	-5.106851e-03	0.0	9.701500e-01	-6.471998e-03	0.0	9.645400e-01	-7.925203e-03	0.0	9.584700e-01	-9.388288e-03	0.0	9.519400e-01	-1.080379e-02	0.0	9.449600e-01	-1.214286e-02	0.0	9.375400e-01	-1.341036e-02	0.0	9.296900e-01	-1.463498e-02	0.0	9.214000e-01	-1.585675e-02	0.0	9.127000e-01	-1.710458e-02	0.0	9.035800e-01	-1.840062e-02	0.0	8.940600e-01	-1.974913e-02	0.0	8.841500e-01	-2.114574e-02	0.0	8.738500e-01	-2.258219e-02	0.0	8.631800e-01	-2.404637e-02	0.0	8.521600e-01	-2.552766e-02	0.0	8.407700e-01	-2.702306e-02	0.0	8.290500e-01	-2.852375e-02	0.0	8.170100e-01	-3.002640e-02	0.0	8.046400e-01	-3.153086e-02	0.0	7.919700e-01	-3.303226e-02	0.0	7.790100e-01	-3.452817e-02	0.0	7.657800e-01	-3.601485e-02	0.0	7.522800e-01	-3.749059e-02	0.0	7.385200e-01	-3.895237e-02	0.0	7.245300e-01	-4.039503e-02	0.0	7.103200e-01	-4.181559e-02	0.0	6.958900e-01	-4.321201e-02	0.0	6.812700e-01	-4.457940e-02	0.0	6.664700e-01	-4.591493e-02	0.0	6.515000e-01	-4.721585e-02	0.0	6.363800e-01	-4.847861e-02	0.0	6.211300e-01	-4.969986e-02	0.0	6.057600e-01	-5.087718e-02	0.0	5.902800e-01	-5.200821e-02	0.0	5.747100e-01	-5.308992e-02	0.0	5.590600e-01	-5.412012e-02	0.0	5.433600e-01	-5.509542e-02	0.0	5.276100e-01	-5.601445e-02	0.0	5.118400e-01	-5.687409e-02	0.0	4.960500e-01	-5.767300e-02	0.0	4.802700e-01	-5.840832e-02	0.0	4.645100e-01	-5.907830e-02	0.0	4.487800e-01	-5.968115e-02	0.0	4.331100e-01	-6.021439e-02	0.0	4.175000e-01	-6.067669e-02	0.0	4.019700e-01	-6.106601e-02	0.0	3.865400e-01	-6.138046e-02	0.0	3.712300e-01	-6.161827e-02	0.0	3.560400e-01	-6.177801e-02	0.0	3.409900e-01	-6.185793e-02	0.0	3.261100e-01	-6.185649e-02	0.0	3.114000e-01	-6.177232e-02	0.0	2.968700e-01	-6.160396e-02	0.0	2.825500e-01	-6.135034e-02	0.0	2.684500e-01	-6.101040e-02	0.0	2.545700e-01	-6.058274e-02	0.0	2.409400e-01	-6.006698e-02	0.0	2.275700e-01	-5.946242e-02	0.0	2.144700e-01	-5.876843e-02	0.0	2.016600e-01	-5.798512e-02	0.0	1.891400e-01	-5.711158e-02	0.0	1.769300e-01	-5.614837e-02	0.0	1.650400e-01	-5.509558e-02	0.0	1.534900e-01	-5.395453e-02	0.0	1.422900e-01	-5.272597e-02	0.0	1.314400e-01	-5.140961e-02	0.0	1.209500e-01	-5.000626e-02	0.0	1.108500e-01	-4.851998e-02	0.0	1.011300e-01	-4.694944e-02	0.0	9.181000e-02	-4.529793e-02	0.0	8.290000e-02	-4.356757e-02	0.0	7.440000e-02	-4.175861e-02	0.0	6.633000e-02	-3.987566e-02	0.0	5.869000e-02	-3.791922e-02	0.0	5.149000e-02	-3.589216e-02	0.0	4.474000e-02	-3.379782e-02	0.0	3.844000e-02	-3.163651e-02	0.0	3.260000e-02	-2.941175e-02	0.0	2.723000e-02	-2.712782e-02	0.0	2.232000e-02	-2.477998e-02	0.0	1.790000e-02	-2.238285e-02	0.0	1.395000e-02	-1.992560e-02	0.0	1.049000e-02	-1.741974e-02	0.0	7.520000e-03	-1.486605e-02	0.0	5.040000e-03	-1.226441e-02	0.0	3.050000e-03	-9.612702e-03	0.0	1.560000e-03	-6.925073e-03	0.0	5.600000e-04	-4.178658e-03	0.0	6.000000e-05	-1.376982e-03	0.0	0.000000e+00	0.000000e+00	0.0	6.000000e-05	1.269878e-03	0.0	5.600000e-04	3.619860e-03	0.0	1.560000e-03	5.723976e-03	0.0	3.050000e-03	7.628883e-03	0.0	5.040000e-03	9.376876e-03	0.0	7.520000e-03	1.097640e-02	0.0	1.049000e-02	1.244359e-02	0.0	1.395000e-02	1.379097e-02	0.0	1.790000e-02	1.502920e-02	0.0	2.232000e-02	1.616316e-02	0.0	2.723000e-02	1.720793e-02	0.0	3.260000e-02	1.816651e-02	0.0	3.844000e-02	1.905024e-02	0.0	4.474000e-02	1.986633e-02	0.0	5.149000e-02	2.062220e-02	0.0	5.869000e-02	2.132620e-02	0.0	6.633000e-02	2.198542e-02	0.0	7.440000e-02	2.260687e-02	0.0	8.290000e-02	2.319814e-02	0.0	9.181000e-02	2.376518e-02	0.0	1.011300e-01	2.431507e-02	0.0	1.108500e-01	2.485391e-02	0.0	1.209500e-01	2.538699e-02	0.0	1.314400e-01	2.592084e-02	0.0	1.422900e-01	2.645945e-02	0.0	1.534900e-01	2.700747e-02	0.0	1.650400e-01	2.756947e-02	0.0	1.769300e-01	2.814899e-02	0.0	1.891400e-01	2.874851e-02	0.0	2.016600e-01	2.937033e-02	0.0	2.144700e-01	3.001559e-02	0.0	2.275700e-01	3.068571e-02	0.0	2.409400e-01	3.138035e-02	0.0	2.545700e-01	3.209888e-02	0.0	2.684500e-01	3.283989e-02	0.0	2.825500e-01	3.360008e-02	0.0	2.968700e-01	3.437689e-02	0.0	3.114000e-01	3.516644e-02	0.0	3.261100e-01	3.596293e-02	0.0	3.409900e-01	3.676087e-02	0.0	3.560400e-01	3.755451e-02	0.0	3.712300e-01	3.833582e-02	0.0	3.865400e-01	3.909669e-02	0.0	4.019700e-01	3.982941e-02	0.0	4.175000e-01	4.052477e-02	0.0	4.331100e-01	4.117326e-02	0.0	4.487800e-01	4.176512e-02	0.0	4.645100e-01	4.229124e-02	0.0	4.802700e-01	4.274139e-02	0.0	4.960500e-01	4.310626e-02	0.0	5.118400e-01	4.337672e-02	0.0	5.276100e-01	4.354387e-02	0.0	5.433600e-01	4.359987e-02	0.0	5.590600e-01	4.353752e-02	0.0	5.747100e-01	4.335064e-02	0.0	5.902800e-01	4.303446e-02	0.0	6.057600e-01	4.258541e-02	0.0	6.211300e-01	4.200167e-02	0.0	6.363800e-01	4.128269e-02	0.0	6.515000e-01	4.042948e-02	0.0	6.664700e-01	3.944534e-02	0.0	6.812700e-01	3.833559e-02	0.0	6.958900e-01	3.710667e-02	0.0	7.103200e-01	3.576660e-02	0.0	7.245300e-01	3.432704e-02	0.0	7.385200e-01	3.279829e-02	0.0	7.522800e-01	3.119277e-02	0.0	7.657800e-01	2.952647e-02	0.0	7.790100e-01	2.781405e-02	0.0	7.919700e-01	2.606935e-02	0.0	8.046400e-01	2.430916e-02	0.0	8.170100e-01	2.254893e-02	0.0	8.290500e-01	2.080659e-02	0.0	8.407700e-01	1.909328e-02	0.0	8.521600e-01	1.742126e-02	0.0	8.631800e-01	1.580464e-02	0.0	8.738500e-01	1.424545e-02	0.0	8.841500e-01	1.274808e-02	0.0	8.940600e-01	1.131402e-02	0.0	9.035800e-01	9.941070e-03	0.0	9.127000e-01	8.631202e-03	0.0	9.214000e-01	7.394681e-03	0.0	9.296900e-01	6.247445e-03	0.0	9.375400e-01	5.220396e-03	0.0	9.449600e-01	4.342583e-03	0.0	9.519400e-01	3.638681e-03	0.0	9.584700e-01	3.113800e-03	0.0	9.645400e-01	2.745669e-03	0.0	9.701500e-01	2.486386e-03	0.0	9.752800e-01	2.276638e-03	0.0	9.799500e-01	2.061186e-03	0.0	9.841300e-01	1.808186e-03	0.0	9.878400e-01	1.510144e-03	0.0	9.910500e-01	1.185862e-03	0.0	9.937800e-01	8.614396e-04	0.0	9.960200e-01	5.661861e-04	0.0	9.977600e-01	3.231065e-04	0.0	9.990000e-01	1.450708e-04	0.0	9.997500e-01	3.632607e-05	0.0	1.000000e+00	0.000000e+00	0.0	1.984229e+01	2.506660e+00	0.0	1.937166e+01	4.973800e+00	0.0	1.859553e+01	7.362490e+00	0.0	1.752613e+01	9.635070e+00	0.0	1.618034e+01	1.175571e+01	0.0	1.457937e+01	1.369094e+01	0.0	1.274848e+01	1.541027e+01	0.0	1.071654e+01	1.688656e+01	0.0	8.515590e+00	1.809654e+01	0.0	6.180340e+00	1.902113e+01	0.0	3.747630e+00	1.964575e+01	0.0	1.255810e+00	1.996053e+01	0.0	-1.255810e+00	1.996053e+01	0.0	-3.747630e+00	1.964574e+01	0.0	-6.180340e+00	1.902113e+01	0.0	-8.515590e+00	1.809654e+01	0.0	-1.071654e+01	1.688656e+01	0.0	-1.274848e+01	1.541026e+01	0.0	-1.457937e+01	1.369094e+01	0.0	-1.618034e+01	1.175570e+01	0.0	-1.752613e+01	9.635070e+00	0.0	-1.859553e+01	7.362490e+00	0.0	-1.937166e+01	4.973800e+00	0.0	-1.984229e+01	2.506660e+00	0.0	-2.000000e+01	0.000000e+00	0.0	-1.984229e+01	-2.506670e+00	0.0	-1.937166e+01	-4.973800e+00	0.0	-1.859553e+01	-7.362490e+00	0.0	-1.752613e+01	-9.635080e+00	0.0	-1.618034e+01	-1.175571e+01	0.0	-1.457937e+01	-1.369094e+01	0.0	-1.274848e+01	-1.541027e+01	0.0	-1.071653e+01	-1.688656e+01	0.0	-8.515580e+00	-1.809654e+01	0.0	-6.180340e+00	-1.902113e+01	0.0	-3.747620e+00	-1.964575e+01	0.0	-1.255810e+00	-1.996053e+01	0.0	1.255810e+00	-1.996053e+01	0.0	3.747630e+00	-1.964574e+01	0.0	6.180340e+00	-1.902113e+01	0.0	8.515590e+00	-1.809654e+01	0.0	1.071654e+01	-1.688656e+01	0.0	1.274848e+01	-1.541026e+01	0.0	1.457937e+01	-1.369094e+01	0.0	1.618034e+01	-1.175570e+01	0.0	1.752614e+01	-9.635070e+00	0.0	1.859553e+01	-7.362490e+00	0.0	1.937166e+01	-4.973790e+00	0.0	1.984229e+01	-2.506660e+00	0.0	2.000000e+01	0.000000e+00	0.0	6.066873e-02	-4.580249e-02	0.0	6.602281e-01	-6.025063e-02	0.0	4.252029e-01	5.508237e-02	0.0	6.896619e-01	5.078200e-02	0.0	3.791408e-01	-7.552803e-02	0.0	9.994678e-01	-7.278284e-04	0.0	9.985549e-01	-1.332046e-03	0.0	7.738222e-01	-4.736051e-02	0.0	6.898911e-01	-5.726281e-02	0.0	-1.042090e-03	5.434544e-03	0.0	7.467952e-01	-5.079176e-02	0.0	5.830324e-01	5.712343e-02	0.0	9.928176e-01	-3.741284e-03	0.0	9.899383e-01	-4.753512e-03	0.0	5.986324e-01	5.664521e-02	0.0	7.187872e-01	-5.409767e-02	0.0	-1.437040e-03	5.961630e-04	0.0	9.865759e-01	-5.922632e-03	0.0	9.827374e-01	-7.252245e-03	0.0	-1.266878e-03	-6.415529e-03	0.0	6.451489e-01	-6.167080e-02	0.0	8.244835e-01	-4.026504e-02	0.0	7.997466e-01	-4.385103e-02	0.0	3.482483e-01	5.104171e-02	0.0	8.479020e-01	-3.665309e-02	0.0	2.474092e-01	4.447389e-02	0.0	8.699415e-01	-3.303544e-02	0.0	1.067359e-02	1.626742e-02	0.0	8.904956e-01	-2.946610e-02	0.0	7.693879e-02	-5.037481e-02	0.0	9.094921e-01	-2.599849e-02	0.0	-1.730363e-03	-3.168979e-03	0.0	9.424883e-01	-1.926238e-02	0.0	9.268507e-01	-2.263124e-02	0.0	1.792347e-02	-2.749779e-02	0.0	4.257760e-01	-7.473377e-02	0.0	8.591032e-01	-3.483970e-02	0.0	9.563430e-01	-1.575648e-02	0.0	9.784146e-01	-8.763706e-03	0.0	9.683375e-01	-1.214789e-02	0.0	1.581747e-01	-6.508727e-02	0.0	9.001955e-01	-2.771774e-02	0.0	7.604414e-01	-4.908904e-02	0.0	9.971366e-01	-2.088606e-03	0.0	5.991037e-01	-6.559808e-02	0.0	4.414831e-01	-7.429305e-02	0.0	5.363766e-01	-6.995064e-02	0.0	4.730628e-01	-7.316113e-02	0.0	5.047300e-01	-7.170853e-02	0.0	4.888847e-01	-7.247323e-02	0.0	1.248568e-01	-6.027085e-02	0.0	2.780328e-02	-3.307523e-02	0.0	3.945925e-01	-7.535386e-02	0.0	4.615668e-02	-4.093065e-02	0.0	4.101390e-01	-7.508916e-02	0.0	3.187037e-01	-7.529507e-02	0.0	3.486166e-01	-7.560454e-02	0.0	3.345932e-02	-3.575040e-02	0.0	2.894837e-01	-7.460005e-02	0.0	9.348894e-01	-2.095547e-02	0.0	1.467138e-01	-6.357578e-02	0.0	1.945672e-01	-6.901258e-02	0.0	8.570946e-02	-5.253530e-02	0.0	1.044959e-01	-5.659500e-02	0.0	5.678794e-01	-6.791440e-02	0.0	1.699804e-01	-6.650023e-02	0.0	6.145784e-01	-6.434437e-02	0.0	8.804128e-01	-3.124217e-02	0.0	2.263535e-02	-3.032266e-02	0.0	9.952229e-01	-2.872750e-03	0.0	6.738380e-03	-1.874503e-02	0.0	1.875454e-02	1.970004e-02	0.0	9.183797e-01	-2.430606e-02	0.0	9.49647
[...]
POINT_DATA 5233

SCALARS Conservative_1 float 1
LOOKUP_TABLE default
1.196836e+00	1.177847e+00	1.167984e+00	1.161989e+00	1.157829e+00	1.153654e+00	1.146902e+00	1.135912e+00	1.119420e+00	1.097512e+00	1.071448e+00	1.043906e+00	1.019501e+00	1.002554e+00	9.943094e-01	9.927872e-01	9.946186e-01	9.967890e-01	9.974456e-01	9.959670e-01	9.925995e-01	9.879403e-01	9.826138e-01	9.771212e-01	9.717618e-01	9.666552e-01	9.617956e-01	9.571320e-01	9.525915e-01	9.481296e-01	9.437169e-01	9.393019e-01	9.348454e-01	9.303484e-01	9.258457e-01	9.213696e-01	9.169336e-01	9.125211e-01	9.081040e-01	9.036540e-01	8.992051e-01	8.948925e-01	8.908197e-01	8.868572e-01	8.826760e-01	8.784852e-01	8.757953e-01	8.770921e-01	8.831489e-01	8.885490e-01	8.804002e-01	8.475386e-01	8.020070e-01	7.736955e-01	7.678803e-01	7.713716e-01	7.751389e-01	7.771896e-01	7.785174e-01	7.801876e-01	7.824545e-01	7.851915e-01	7.882732e-01	7.916531e-01	7.953418e-01	7.993620e-01	8.037563e-01	8.084835e-01	8.134576e-01	8.185863e-01	8.238996e-01	8.295805e-01	8.358781e-01	8.428697e-01	8.504680e-01	8.585140e-01	8.670523e-01	8.762586e-01	8.861955e-01	8.969047e-01	9.084993e-01	9.210355e-01	9.346589e-01	9.494848e-01	9.656919e-01	9.835386e-01	1.003238e+00	1.025138e+00	1.049691e+00	1.077167e+00	1.108044e+00	1.142741e+00	1.181040e+00	1.222439e+00	1.265232e+00	1.306182e+00	1.336705e+00	1.350892e+00	1.333645e+00	1.295145e+00	1.265931e+00	1.190880e+00	1.041814e+00	9.178440e-01	8.207044e-01	7.502136e-01	7.027751e-01	6.721171e-01	6.525403e-01	6.405452e-01	6.337560e-01	6.304312e-01	6.300571e-01	6.318429e-01	6.350531e-01	6.393077e-01	6.444245e-01	6.509982e-01	6.600234e-01	6.685144e-01	6.710631e-01	6.905931e-01	7.887225e-01	9.206892e-01	9.626622e-01	9.550905e-01	9.427937e-01	9.394848e-01	9.392122e-01	9.379171e-01	9.359646e-01	9.340003e-01	9.320897e-01	9.298974e-01	9.273474e-01	9.243424e-01	9.209052e-01	9.169713e-01	9.125319e-01	9.075848e-01	9.021009e-01	8.961381e-01	8.896776e-01	8.827831e-01	8.754110e-01	8.675944e-01	8.592888e-01	8.505514e-01	8.413125e-01	8.317306e-01	8.218647e-01	8.119868e-01	8.021844e-01	7.921916e-01	7.813470e-01	7.686905e-01	7.555086e-01	7.481286e-01	7.617446e-01	8.074732e-01	8.609963e-01	8.877102e-01	8.944178e-01	8.987798e-01	9.083519e-01	9.212650e-01	9.340789e-01	9.460969e-01	9.579880e-01	9.698900e-01	9.814923e-01	9.926068e-01	1.003163e+00	1.013081e+00	1.022340e+00	1.030913e+00	1.038884e+00	1.046439e+00	1.053861e+00	1.061540e+00	1.069790e+00	1.078732e+00	1.088029e+00	1.096904e+00	1.104190e+00	1.108634e+00	1.109210e+00	1.105572e+00	1.098440e+00	1.089868e+00	1.082799e+00	1.080081e+00	1.083497e+00	1.092963e+00	1.106620e+00	1.122810e+00	1.140213e+00	1.159345e+00	1.180820e+00	1.173410e+00	9.998761e-01	9.999827e-01	9.999986e-01	9.999912e-01	9.999897e-01	9.999872e-01	9.999768e-01	9.999570e-01	9.999320e-01	9.999095e-01	9.998967e-01	9.999075e-01	9.999432e-01	1.000003e+00	1.000052e+00	1.000085e+00	1.000100e+00	1.000104e+00	1.000102e+00	1.000099e+00	1.000095e+00	1.000091e+00	1.000087e+00	1.000086e+00	1.000086e+00	1.000086e+00	1.000089e+00	1.000093e+00	1.000099e+00	1.000107e+00	1.000114e+00	1.000124e+00	1.000129e+00	1.000130e+00	1.000120e+00	1.000090e+00	1.000044e+00	1.000003e+00	9.999765e-01	9.999751e-01	9.999856e-01	9.999986e-01	1.000007e+00	1.000012e+00	1.000012e+00	1.000006e+00	1.000003e+00	1.000013e+00	9.999153e-01	9.997953e-01	9.564280e-01	9.082409e-01	8.747679e-01	9.015394e-01	7.805460e-01	1.178959e+00	1.170134e+00	9.435124e-01	9.169864e-01	1.191291e+00	9.346705e-01	7.829919e-01	1.149363e+00	1.142815e+00	7.700324e-01	9.257626e-01	1.295683e+00	1.133883e+00	1.121379e+00	1.339739e+00	9.038189e-01	9.614026e-01	9.523179e-01	9.065781e-01	9.710369e-01	9.319261e-01	9.813608e-01	7.648302e-01	9.912650e-01	9.273827e-01	9.978711e-01	1.342346e+00	1.001090e+00	9.991387e-01	1.114216e+00	7.714742e-01	9.761381e-01	1.020279e+00	1.104804e+00	1.061810e+00	8.473888e-01	9.951916e-01	9.391140e-01	1.161107e+00	8.914088e-01	7.843902e-01	8.782462e-01	8.717511e-01	8.914488e-01	8.932688e-01	8.722308e-01	1.057316e+00	7.778978e-01	9.910114e-01	7.733471e-01	7.884830e-01	7.835755e-01	1.032934e+00	7.950363e-01	9.991303e-01	8.551423e-01	8.282153e-01	9.145686e-01	8.917283e-01	8.829210e-01	8.403354e-01	8.953337e-01	9.865141e-01	1.084332e+00	1.154998e+00	1.220215e+00	6.947841e-01	9.990900e-01	1.007525e+00	1.084533e+00	1.089544e+00	9.661314e-01	8.073430e-01	8.790620e-01	9.302020e-01	9.478960e-01	8.815997e-01	8.173333e-01	8.873537e-01	9.126319e-01	9.729394e-01	1.258210e+00	1.147036e+00	7.819987e-01	8.340174e-01	1.208184e+00	8.121881e-01	9.027148e-01	7.915997e-01	8.028746e-01	8.246100e-01	9.213535e-01	1.263799e+00	1.323647e+00	8.132381e-01	1.316507e+00	6.617836e-01	6.498117e-01	6.499270e-01	7.117698e-01	8.819865e-01	1.132612e+00	8.226727e-01	8.504080e-01	1.093403e+00	1.102029e+00	1.050128e+00	8.414537e-01	8.670899e-01	8.951503e-01	1.081399e+00	1.065212e+00	6.621696e-01	1.088661e+00	1.102921e+00	1.096019e+00	6.753601e-01	6.522394e-01	9.237167e-01	9.295902e-01	9.412077e-01	9.161040e-01	8.589831e-01	8.887904e-01	9.660354e-01	8.708165e-01	7.567402e-01	9.400134e-01	9.359371e-01	8.425498e-01	7.940216e-01	9.326402e-01	9.084573e-01	9.783325e-01	9.557850e-01	1.018440e+00	9.994962e-01	1.057552e+00	1.035097e+00	1.100813e+00	1.073220e+00	1.098479e+00	1.027033e+00	1.042725e+00	9.891647e-01	1.009253e+00	9.444933e-01	9.671296e-01	9.030432e-01	9.197648e-01	7.839021e-01	8.881034e-01	8.037957e-01	7.580500e-01	9.380948e-01	9.339916e-01	9.482186e-01	9.407546e-01	6.488361e-01	9.690042e-01	7.236821e-01	6.538888e-01	8.226914e-01	8.978281e-01	1.039201e+00	9.568088e-01	7.857573e-01	8.829543e-01	9.889085e-01	6.749274e-01	8.221899e-01	6.702657e-01	6.559665e-01	9.268423e-01	6.778582e-01	1.086351e+00	1.088068e+00	9.201380e-01	1.094458e+00	1.104700e+00	9.115948e-01	9.011048e-01	1.089258e+00	1.193882e+00	1.149274e+00	1.164961e+00	8.994603e-01	1.010927e+00	1.117778e+00	8.321068e-01	1.294165e+00	1.182660e+00	9.412871e-01	8.634526e-01	7.987840e-01	6.691844e-01	1.174071e+00	1.243793e+00	8.030586e-01	9.216752e-01	1.000400e+00	1.209476e+00	7.959468e-01	9.173678e-01	9.479324e-01	1.131060e+00	7.926139e-01	9.756597e-01	9.659906e-01	9.210219e-01	1.320188e+00	8.275214e-01	1.144522e+00	1.037345e+00	8.606167e-01	9.260041e-01	9.087274e-01	8.087290e-01	9.339645e-01	7.841567e-01	9.944681e-01	9.522988e-01	8.734548e-01	7.413434e-01	8.757059e-01	1.014730e+00	6.890506e-01	9.011116e-01	9.435404e-01	1.039003e+00	1.095933e+00	9.105762e-01	8.330185e-01	1.096451e+00	1.046375e+00	1.102973e+00	1.097526e+00	1.090754e+00	9.335555e-01	9.151415e-01	9.355504e-01	6.759164e-01	9.130729e-01	8.333481e-01	8.180580e-01	9.714203e-01	6.695934e-01	1.094502e+00	1.112860e+00	1.053585e+00	8.528044e-01	1.205178e+00	1.137816e+00	1.124556e+00	9.409345e-01	1.094336e+00	1.242682e+00	1.326952e+00	1.306908e+00	1.114559e+00	1.211593e+00	9.630351e-01	1.159843e+00	1.146009e+00	8.814535e-01	8.818062e-01	1.120701e+00	9.855809e-01	7.845776e-01	1.139288e+00	1.332415e+00	7.818730e-01	8.880630e-01	9.707569e-01	9.261140e-01	9.806397e-01	9.902804e-01	9.479225e-01	9.978815e-01	1.002215e+00	1.012821e+00	1.061465e+00	1.022870e+00	1.055035e+00	1.107510e+00	8.781336e-01	9.392205e-01	9.435962e-01	1.152557e+00	8.543189e-01	8.871567e-01	8.943497e-01	1.087002e+00	7.805303e-01	7.768523e-01	7.899607e-01	1.016861e+00	1.003988e+00	1.006976e+00	8.691117e-01	9.090211e-01	8.842561e-01	8.961238e-01	1.073775e+00	1.091691e+00	9.303597e-01	9.348012e-01	8.979659e-01	8.877035e-01	8.881994e-01	8.922047e-01	9.974132e-01	9.795236e-01	1.176227e+00	7.878948e-01	7.862384e-01	8.458193e-01	8.394072e-01	8.219537e-01	8.166795e-01	7.992295e-01	7.957405e-01	8.117660e-01	1.287487e+00	1.274601e+00	6.749784e-01	1.091745e+00	8.240151e-01	8.418940e-01	8.507008e-01	8.589948e-01	1.092081e+00	1.096680e+00	1.075324e+00	8.669221e-01	8.743774e-01	8.943204e-01	1.068082e+00	1.093336e+00	6.669056e-01	6.670473e-01	9.314444e-01	9.289161e-01	9.544242e-01	9.393615e-01	7.857099e-01	9.756252e-01	9.319195e-01	9.201936e-01	9.649300e-01	1.005677e+00	1.060789e+00	1.031341e+00	1.023243e+00	9.961896e-01	9.861562e-01	9.541302e-01	9.432727e-01	9.111214e-01	9.069722e-01	8.240406e-01	7.798057e-01	8.060131e-01	8.150873e-01	7.662538e-01	7.726773e-01	9.374913e-01	9.398033e-01	9.416333e-01	9.422065e-01	7.748346e-01	6.838125e-01	6.971072e-01	9.567570e-01	9.613275e-01	8.887406e-01	8.830179e-01	1.016421e+00	7.158890e-01	6.803875e-01	6.745848e-01	9.192313e-01	9.228585e-01	9.001288e-01	9.056052e-01	1.088454e+00	1.082268e+00	9.001477e-01	9.043892e-01	1.038106e+00	1.302760e+00	8.072256e-01	1.312626e+00	7.880210e-01	8.077778e-01	9.528543e-01	8.858781e-01	1.004418e+00	1.102214e+00	1.096771e+00	1.093446e+00	1.036767e+00	1.110159e+00	1.151480e+00	1.170849e+00	1.150211e+00	1.193178e+00	1.114748e+00	1.274442e+00	9.279360e-01	1.007412e+00	1.129165e+00	8.088536e-01	1.169491e+00	1.228497e+00	9.268499e-01	1.280965e+00	9.311126e-01	1.141637e+00	9.851787e-01	1.199394e+00	7.972787e-01	9.804033e-01	9.226054e-01	1.136936e+00	1.170307e+00	1.092307e+00	8.347115e-01	1.090508e+00	8.617860e-01	1.119261e+00	8.431638e-01	9.279318e-01	9.141428e-01	9.482703e-01	6.815585e-01	1.162215e+00	1.296530e+00	1.161492e+00	8.180701e-01	1.226322e+00	1.051497e+00	9.408836e-01	1.305406e+00	8.664415e-01	8.357652e-01	1.089221e+00	9.128515e-01	1.011727e+00	9.739421e-01	8.974381e-01	1.093515e+00	1.092668e+00	1.049698e+00	1.042684e+00	9.181923e-01	9.250344e-01	9.343527e-01	6.777586e-01	9.141281e-01	9.183738e-01	8.387331e-01	8.614987e-01	9.667765e-01	1.092499e+00	1.128780e+00	9.724630e-01	1.100579e+00	1.255940e+00	1.312575e+00	1.065094e+00	1.182282e+00	1.174273e+00	1.067084e+00	1.120362e+00	7.987538e-01	7.986416e-01	8.877245e-01	9.708230e-01	9.755901e-01	9.898256e-01	9.941686e-01	9.698412e-01	9.548542e-01	9.980578e-01	1.001451e+00	1.025521e+00	1.037219e+00	1.109780e+00	9.442079e-01	9.485410e-01	1.143256e+00	8.761028e-01	8.946617e-01	7.845509e-01	7.840545e-01	1.043069e+00	1.011227e+00	1.016950e+00	8.844547e-01	8.751276e-01	8.867030e-01	8.898620e-01	1.082628e+00	1.097015e+00	9.354495e-01	9.398743e-01	9.158930e-01	9.045575e-01	8.941368e-01	8.936592e-01	8.975438e-01	1.022844e+00	1.003815e+00	9.860842e-01	7.947003e-01	7.926598e-01	7.907226e-01	8.587931e-01	8.517560e-01	8.451037e-01	8.327051e-01	8.269903e-01	8.038948e-01	8.003735e-01	8.216360e-01	6.998999e-01	8.514139e-01	8.595393e-01	1.093161e+00	8.671697e-01	8.744498e-01	8.812508e-01	8.937105e-01	1.069968e+00	6.848265e-01	6.907613e-01	9.303260e-01	9.325538e-01	9.678113e-01	8.602975e-01	7.096236e-01	9.324446e-01	1.063386e+00	1.056570e+00	1.035402e+00	1.027930e+00	1.020092e+00	1.002883e+00	9.936513e-01	9.839969e-01	9.637936e-01	9.536234e-01	9.431811e-01	9.220456e-01	9.148661e-01	9.104126e-01	8.138216e-01	8.178929e-01	8.264450e-01	7.847857e-01	7.808702e-01	7.884337e-01	9.363103e-01	9.383061e-01	9.405929e-01	9.416756e-01	9.423302e-01	7.132861e-01	7.308958e-01	9.572186e-01	9.616958e-01	9.661958e-01	8.943934e-01	8.888705e-01	7.537819e-01	7.824248e-01	6.850682e-01	6.855204e-01	6.823811e-01	9.218724e-01	8.994267e-01	9.046794e-01	9.096805e-01	1.086908e+00	1.082069e+00	1.076332e+00	9.015085e-01	9.056159e-01	9.098599e-01	8.166388e-01	8.120291e-01	1.291516e+00	9.350042e-01	1.122376e+00	1.093847e+00	8.896719e-01	1.253206e+00	1.156268e+00	1.010142e+00	1.014760e+00	1.067449e+00	1.107139e+00	8.527436e-01	1.274527e+00	8.993642e-01	1.213095e+00	1.089609e+00	1.114347e+00	1.150335e+00	8.472984e-01	1.101260e+00	1.174591e+00	1.184224e+00	9.577480e-01	8.735667e-01	1.113561e+00	7.934778e-01	9.479880e-01	8.236292e-01	8.136235e-01	1.096743e+00	8.219337e-01	1.087735e+00	1.084933e+00	9.731939e-01	9.548650e-01	9.293817e-01	1.119736e+00	7.048632e-01	9.855470e-01	1.138586e+00	1.101144e+00	1.141280e+00	1.075787e+00	1.137347e+00	9.277707e-01	1.237301e+00	9.324384e-01	9.362061e-01	1.162744e+00	1.127491e+00	1.188288e+00	1.008985e+00	8.447684e-01	9.208660e-01	1.205159e+00	9.454109e-01	8.871102e-01	1.046252e+00	9.173694e-01	9.241554e-01	9.268201e-01	9.194368e-01	9.240939e-01	1.092217e+00	9.953858e-01	1.048897e+00	1.259338e+00	1.295859e+00	1.089841e+00	1.062594e+00	1.110706e+00	8.119339e-01	9.761518e-01	9.807769e-01	9.900935e-01	9.945042e-01	9.764282e-01	9.617263e-01	9.986005e-01	1.002525e+00	1.006307e+00	1.037948e+00	1.049721e+00	9.490717e-01	9.538010e-01	1.134647e+00	8.610700e-01	8.894064e-01	7.918543e-01	7.989769e-01	1.020469e+00	1.028047e+00	8.915340e-01	8.816698e-01	8.921253e-01	1.088476e+00	1.100278e+00	9.408372e-01	9.456246e-01	9.228909e-01	9.117154e-01	9.015450e-01	8.948427e-01	8.992284e-01	1.047470e+00	1.027933e+00	1.009212e+00	9.920577e-01	8.031199e-01	8.005323e-01	7.983680e-01	7.960352e-01	8.660191e-01	8.587807e-01	8.517884e-01	8.451990e-01	8.390121e-01	8.061583e-01	8.097136e-01	8.331953e-01	8.606061e-01	1.091380e+00	1.090683e+00	8.680398e-01	8.749262e-01	8.815597e-01	8.876837e-01	8.935849e-01	7.153547e-01	7.289857e-01	9.313328e-01	9.333366e-01	9.639749e-01	9.121626e-01	7.583854e-01	6.867132e-01	1.065369e+00	1.059193e+00	1.052937e+00	1.039500e+00	1.032492e+00	1.025437e+00	1.016729e+00	1.001507e+00	9.915977e-01	9.824103e-01	9.629429e-01	9.535339e-01	9.429231e-01	9.343621e-01	9.253229e-01	9.207650e-01	9.114202e-01	8.380761e-01	8.290694e-01	8.140693e-01	7.951022e-01	7.982272e-01	8.020232e-01	9.348822e-01	9.369085e-01	9.384772e-01	9.396464e-01	9.395745e-01	9.433834e-01	7.452246e-01	7.664059e-01	9.624829e-01	9.671946e-01	9.715633e-01	8.977459e-01	8.947895e-01	8.916907e-01	7.922275e-01	8.226837e-01	8.580073e-01	6.867890e-01	6.953184e-01	6.981428e-01	6.992842e-01	8.989577e-01	9.041269e-01	9.088339e-01	9.133784e-01	1.071167e+00	1.081097e+00	1.076543e+00	9.028223e-01	9.074556e-01	9.110837e-01	9.157820e-01	8.277453e-01	8.226426e-01	8.179626e-01	1.155257e+00	1.118658e+00	1.070985e+00	1.167381e+00	1.177839e+00	9.395002e-01	9.424694e-01	1.199358e+00	1.092891e+00	1.239495e+00	1.089540e+00	8.821840e-01	9.568331e-01	9.717312e-01	1.101683e+00	1.226210e+00	1.286010e+00	1.289062e+00	1.275564e+00	1.253901e+00	1.136052e+00	9.206353e-01	1.082012e+00	1.119143e+00	1.023441e+00	9.606891e-01	8.013430e-01	1.110027e+00	1.067043e+00	1.079907e+00	8.375814e-01	8.509937e-01	8.568922e-01	9.670773e-01	8.623862e-01	8.948790e-01	9.169272e-01	1.104407e+00	9.552941e-01	1.155867e+00	1.095708e+00	1.288719e+00	1.178682e+00	1.169709e+00	1.016746e+00	1.069951e+00	1.268520e+00	9.311114e-01	1.220198e+00	1.085533e+00	1.142604e+00	1.168539e+00	1.172613e+00	1.133204e+00	8.151522e-01	8.203335e-01	1.099483e+00	8.254384e-01	1.083113e+00	1.111135e+00	9.313714e-01	1.186631e+00	9.236216e-01	9.265474e-01	9.288368e-01	9.231926e-01	1.013909e+00	1.057902e+00	1.275304e+00	1.111847e+00	9.819219e-01	9.857554e-01	9.908137e-01	9.949383e-01	9.687293e-01	9.834342e-01	9.997658e-01	1.003456e+00	1.008123e+00	1.012893e+00	1.048971e+00	1.059806e+00	9.526795e-01	1.126098e+00	8.456199e-01	8.759525e-01	8.026190e-01	8.189495e-01	1.030767e+00	1.039007e+00	8.983963e-01	8.881178e-01	1.092601e+00	1.102372e+00	9.467925e-01	9.300863e-01	9.183378e-01	9.105514e-01	8.982366e-01	1.051129e+00	1.032514e+00	1.014568e+00	9.987646e-01	8.127966e-01	8.086042e-01	8.071096e-01	8.036554e-01	8.023131e-01	8.728468e-01	8.668802e-01	8.579599e-01	8.527061e-01	8.448877e-01	1.090797e+00	1.089145e+00	1.087495e+00	8.690932e-01	8.764323e-01	8.821685e-01	8.886998e-01	8.938043e-01	7.432026e-01	7.603118e-01	9.310412e-01	9.327941e-01	9.320674e-01	8.156558e-01	7.093953e-01	1.061067e+00	1.055616e+00	1.049268e+00	1.043161e+00	1.036396e+00	1.029932e+00	1.022172e+00	1.010737e+00	9.996629e-01	9.853159e-01	9.488286e-01	9.353236e-01	9.133418e-01	8.159015e-01	8.140029e-01	9.344110e-01	9.358467e-01	9.370379e-01	9.380167e-01	9.386550e-01	9.433661e-01	9.550202e-01	7.801300e-01	8.022160e-01	9.681776e-01	9.723005e-01	9.769955e-01	8.967393e-01	8.983486e-01	8.291489e-01	8.603596e-01	8.939180e-01	6.926846e-01	7.065862e-01	7.164495e-01	7.239909e-01	7.315656e-01	8.994948e-01	9.039000e-01	9.084052e-01	9.131737e-01	1.076328e+00	1.071086e+00	9.063694e-01	9.149766e-01	8.403295e-01	8.333618e-01	8.295058e-01	8.234645e-01	1.162598e+00	1.145841e+00	1.186165e+00	1.248941e+00	1.176798e+00	1.086271e+00	1.101591e+00	1.170545e+00	1.083914e+00	1.138289e+00	1.103672e+00	1.255772e+00	1.089069e+00	1.167139e+00	9.189673e-01	1.167779e+00	1.028075e+00	1.134977e+00	1.147547e+00	1.076993e+00	9.002430e-01	1.097345e+00	8.237975e-01	1.032341e+00	1.022089e+00	9.142991e-01	9.495872e-01	8.850796e-01	1.233965e+00	8.158157e-01	9.767099e-01	9.633157e-01	8.856563e-01	1.090827e+00	1.064344e+00	1.203878e+00	9.922523e-01	1.067514e+00	1.161104e+00	1.093708e+00	1.286168e+00	1.246700e+00	1.111444e+00	9.464219e-01	8.631834e-01	8.745645e-01	1.106530e+00	1.167093e+00	1.122492e+00	1.273169e+00	1.172963e+00	1.071757e+00	1.220572e+00	1.204158e+00	8.399565e-01	1.108479e+00	1.081700e+00	1.078199e+00	8.514042e-01	9.251120e-01	9.299741e-01	9.387610e-01	1.064574e+00	1.100676e+00	1.128749e+00	9.890981e-01	9.979345e-01	9.899637e-01	1.006986e+00	1.015061e+00	1.057955e+00	1.118620e+00	8.477816e-01	1.040524e+00	1.048733e+00	9.006843e-01	1.095173e+00	9.530876e-01	9.598969e-01	9.323731e-01	9.174003e-01	8.996829e-01	1.054252e+00	1.035711e+00	1.018928e+00	1.007037e+00	8.167787e-01	8.114527e-01	8.100966e-01	8.694802e-01	8.554144e-01	1.088413e+00	1.086226e+00	8.866043e-01	8.974373e-01	7.938600e-01	9.333585e-01	7.505545e-01	9.954102e-01	1.054332e+00	1.042585e+00	1.030078e+00	1.018148e+00	1.007364e+00	9.797687e-01	9.620619e-01	9.480888e-01	9.331036e-01	8.956652e-01	8.479222e-01	8.270685e-01	8.299897e-01	9.353980e-01	9.380563e-01	9.450635e-01	9.559092e-01	9.556052e-01	8.156303e-01	8.384900e-01	9.677398e-01	9.752370e-01	9.826552e-01	8.862216e-01	9.009009e-01	8.639704e-01	8.936876e-01	9.252274e-01	9.575308e-01	7.126362e-01	7.206909e-01	7.357858e-01	7.500510e-01	7.636027e-01	7.710459e-01	9.062069e-01	9.128936e-01	1.075948e+00	1.071538e+00	9.054788e-01	9.227762e-01	9.307693e-01	8.431436e-01	8.326228e-01	1.111333e+00	1.162498e+00	1.157894e+00	1.128872e+00	1.032048e+00	1.103048e+00	1.164411e+00	1.132975e+00	1.189276e+00	1.140312e+00	1.144682e+00	1.124313e+00	1.069295e+00	1.184804e+00	1.236187e+00	1.085516e+00	9.531323e-01	9.179194e-01	1.118330e+00	1.014961e+00	1.105305e+00	8.154762e-01	1.039155e+00	1.173784e+00	8.218010e-01	1.041034e+00	9.223313e-01	9.033880e-01	1.081320e+00	1.089275e+00	1.088300e+00	1.073276e+00	1.161741e+00	1.094588e+00	1.098361e+00	1.080537e+00	9.287244e-01	8.446100e-01	9.382433e-01	9.958363e-01	1.142131e+00	1.148522e+00	1.267962e+00	1.073095e+00	1.082898e+00	1.171467e+00	1.097027e+00	1.157139e+00	1.156966e+00	9.032967e-01	1.226418e+00	9.856180e-01	9.698422e-01	1.091230e+00	1.227539e+00	1.064867e+00	1.104367e+00	9.459624e-01	1.252955e+00	1.172301e+00	1.011505e+00	1.215445e+00	1.203197e+00	8.639010e-01	1.123113e+00	1.077220e+00	8.535328e-01	9.237032e-01	8.407792e-01	1.099204e+00	1.128032e+00	9.966793e-01	1.005782e+00	1.023004e+00	1.031796e+00	1.111997e+00	8.383789e-01	1.048756e+00	1.056580e+00	8.191900e-01	9.748181e-01	9.822609e-01	9.598784e-01	9.545778e-01	9.382549e-01	9.220615e-01	1.055484e+00	8.291233e-01	8.225676e-01	9.058132e-01	8.893518e-01	9.304377e-01	1.088239e+00	8.746189e-01	8.854223e-01	8.020951e-01	1.057850e+00	1.047624e+00	1.003677e+00	1.036307e+00	1.024978e+00	1.014355e+00	9.907920e-01	9.748683e-01	9.596836e-01	9.464676e-01	9.236561e-01	8.849293e-01	8.517583e-01	9.321532e-01	9.338531e-01	9.367222e-01	9.447529e-01	9.486246e-01	9.023431e-01	8.495780e-01	8.730707e-01	9.671111e-01	9.890773e-01	8.701219e-01	8.955082e-01	8.962250e-01	9.225661e-01	9.512674e-01	9.796901e-01	1.008981e+00	7.473499e-01	7.452293e-01	7.597879e-01	7.763606e-01	7.941446e-01	8.959345e-01	9.048469e-01	9.118637e-01	1.072712e+00	1.066172e+00	9.062013e-01	9.136145e-01	8.736800e-01	8.597347e-01	8.477056e-01	8.374993e-01	1.143820e+00	1.149942e+00	1.146779e+00	1.114794e+00	1.145109e+00	1.132632e+00	1.096983e+00	1.048233e+00	1.169382e+00	1.118328e+00	1.115627e+00	1.069625e+00	1.156769e+00	1.082092e+00	9.307676e-01	1.134899e+00	1.138795e+00	1.132511e+00	1.159556e+00	1.047994e+00	9.273920e-01	1.032446e+00	1.022802e+00	9.603540e-01	1.130236e+00	1.124711e+00	1.121214e+00	1.168047e+00	1.175193e+00	8.588314e-01	9.