# vtk DataFile Version 3.0
vtk output
ASCII
DATASET UNSTRUCTURED_GRID
POINTS 200 float
9.997500e-01	-3.633255e-05	0.0	9.990000e-01	-1.454797e-04	0.0	9.977600e-01	-3.275883e-04	0.0	9.960200e-01	-5.903629e-04	0.0	9.937800e-01	-9.486624e-04	0.0	9.910500e-01	-1.426401e-03	0.0	9.878400e-01	-2.055213e-03	0.0	9.841300e-01	-2.872446e-03	0.0	9.799500e-01	-3.890777e-03	0.0	9.752800e-01	-5.106851e-03	0.0	9.701500e-01	-6.471998e-03	0.0	9.645400e-01	-7.925203e-03	0.0	9.584700e-01	-9.388288e-03	0.0	9.519400e-01	-1.080379e-02	0.0	9.449600e-01	-1.214286e-02	0.0	9.375400e-01	-1.341036e-02	0.0	9.296900e-01	-1.463498e-02	0.0	9.214000e-01	-1.585675e-02	0.0	9.127000e-01	-1.710458e-02	0.0	9.035800e-01	-1.840062e-02	0.0	8.940600e-01	-1.974913e-02	0.0	8.841500e-01	-2.114574e-02	0.0	8.738500e-01	-2.258219e-02	0.0	8.631800e-01	-2.404637e-02	0.0	8.521600e-01	-2.552766e-02	0.0	8.407700e-01	-2.702306e-02	0.0	8.290500e-01	-2.852375e-02	0.0	8.170100e-01	-3.002640e-02	0.0	8.046400e-01	-3.153086e-02	0.0	7.919700e-01	-3.303226e-02	0.0	7.790100e-01	-3.452817e-02	0.0	7.657800e-01	-3.601485e-02	0.0	7.522800e-01	-3.749059e-02	0.0	7.385200e-01	-3.895237e-02	0.0	7.245300e-01	-4.039503e-02	0.0	7.103200e-01	-4.181559e-02	0.0	6.958900e-01	-4.321201e-02	0.0	6.812700e-01	-4.457940e-02	0.0	6.664700e-01	-4.591493e-02	0.0	6.515000e-01	-4.721585e-02	0.0	6.363800e-01	-4.847861e-02	0.0	6.211300e-01	-4.969986e-02	0.0	6.057600e-01	-5.087718e-02	0.0	5.902800e-01	-5.200821e-02	0.0	5.747100e-01	-5.308992e-02	0.0	5.590600e-01	-5.412012e-02	0.0	5.433600e-01	-5.509542e-02	0.0	5.276100e-01	-5.601445e-02	0.0	5.118400e-01	-5.687409e-02	0.0	4.960500e-01	-5.767300e-02	0.0	4.802700e-01	-5.840832e-02	0.0	4.645100e-01	-5.907830e-02	0.0	4.487800e-01	-5.968115e-02	0.0	4.331100e-01	-6.021439e-02	0.0	4.175000e-01	-6.067669e-02	0.0	4.019700e-01	-6.106601e-02	0.0	3.865400e-01	-6.138046e-02	0.0	3.712300e-01	-6.161827e-02	0.0	3.560400e-01	-6.177801e-02	0.0	3.409900e-01	-6.185793e-02	0.0	3.261100e-01	-6.185649e-02	0.0	3.114000e-01	-6.177232e-02	0.0	2.968700e-01	-6.160396e-02	0.0	2.825500e-01	-6.135034e-02	0.0	2.684500e-01	-6.101040e-02	0.0	2.545700e-01	-6.058274e-02	0.0	2.409400e-01	-6.006698e-02	0.0	2.275700e-01	-5.946242e-02	0.0	2.144700e-01	-5.876843e-02	0.0	2.016600e-01	-5.798512e-02	0.0	1.891400e-01	-5.711158e-02	0.0	1.769300e-01	-5.614837e-02	0.0	1.650400e-01	-5.509558e-02	0.0	1.534900e-01	-5.395453e-02	0.0	1.422900e-01	-5.272597e-02	0.0	1.314400e-01	-5.140961e-02	0.0	1.209500e-01	-5.000626e-02	0.0	1.108500e-01	-4.851998e-02	0.0	1.011300e-01	-4.694944e-02	0.0	9.181000e-02	-4.529793e-02	0.0	8.290000e-02	-4.356757e-02	0.0	7.440000e-02	-4.175861e-02	0.0	6.633000e-02	-3.987566e-02	0.0	5.869000e-02	-3.791922e-02	0.0	5.149000e-02	-3.589216e-02	0.0	4.474000e-02	-3.379782e-02	0.0	3.844000e-02	-3.163651e-02	0.0	3.260000e-02	-2.941175e-02	0.0	2.723000e-02	-2.712782e-02	0.0	2.232000e-02	-2.477998e-02	0.0	1.790000e-02	-2.238285e-02	0.0	1.395000e-02	-1.992560e-02	0.0	1.049000e-02	-1.741974e-02	0.0	7.520000e-03	-1.486605e-02	0.0	5.040000e-03	-1.226441e-02	0.0	3.050000e-03	-9.612702e-03	0.0	1.560000e-03	-6.925073e-03	0.0	5.600000e-04	-4.178658e-03	0.0	6.000000e-05	-1.376982e-03	0.0	0.000000e+00	0.000000e+00	0.0	6.000000e-05	1.269878e-03	0.0	5.600000e-04	3.619860e-03	0.0	1.560000e-03	5.723976e-03	0.0	3.050000e-03	7.628883e-03	0.0	5.040000e-03	9.376876e-03	0.0	7.520000e-03	1.097640e-02	0.0	1.049000e-02	1.244359e-02	0.0	1.395000e-02	1.379097e-02	0.0	1.790000e-02	1.502920e-02	0.0	2.232000e-02	1.616316e-02	0.0	2.723000e-02	1.720793e-02	0.0	3.260000e-02	1.816651e-02	0.0	3.844000e-02	1.905024e-02	0.0	4.474000e-02	1.986633e-02	0.0	5.149000e-02	2.062220e-02	0.0	5.869000e-02	2.132620e-02	0.0	6.633000e-02	2.198542e-02	0.0	7.440000e-02	2.260687e-02	0.0	8.290000e-02	2.319814e-02	0.0	9.181000e-02	2.376518e-02	0.0	1.011300e-01	2.431507e-02	0.0	1.108500e-01	2.485391e-02	0.0	1.209500e-01	2.538699e-02	0.0	1.314400e-01	2.592084e-02	0.0	1.422900e-01	2.645945e-02	0.0	1.534900e-01	2.700747e-02	0.0	1.650400e-01	2.756947e-02	0.0	1.769300e-01	2.814899e-02	0.0	1.891400e-01	2.874851e-02	0.0	2.016600e-01	2.937033e-02	0.0	2.144700e-01	3.001559e-02	0.0	2.275700e-01	3.068571e-02	0.0	2.409400e-01	3.138035e-02	0.0	2.545700e-01	3.209888e-02	0.0	2.684500e-01	3.283989e-02	0.0	2.825500e-01	3.360008e-02	0.0	2.968700e-01	3.437689e-02	0.0	3.114000e-01	3.516644e-02	0.0	3.261100e-01	3.596293e-02	0.0	3.409900e-01	3.676087e-02	0.0	3.560400e-01	3.755451e-02	0.0	3.712300e-01	3.833582e-02	0.0	3.865400e-01	3.909669e-02	0.0	4.019700e-01	3.982941e-02	0.0	4.175000e-01	4.052477e-02	0.0	4.331100e-01	4.117326e-02	0.0	4.487800e-01	4.176512e-02	0.0	4.645100e-01	4.229124e-02	0.0	4.802700e-01	4.274139e-02	0.0	4.960500e-01	4.310626e-02	0.0	5.118400e-01	4.337672e-02	0.0	5.276100e-01	4.354387e-02	0.0	5.433600e-01	4.359987e-02	0.0	5.590600e-01	4.353752e-02	0.0	5.747100e-01	4.335064e-02	0.0	5.902800e-01	4.303446e-02	0.0	6.057600e-01	4.258541e-02	0.0	6.211300e-01	4.200167e-02	0.0	6.363800e-01	4.128269e-02	0.0	6.515000e-01	4.042948e-02	0.0	6.664700e-01	3.944534e-02	0.0	6.812700e-01	3.833559e-02	0.0	6.958900e-01	3.710667e-02	0.0	7.103200e-01	3.576660e-02	0.0	7.245300e-01	3.432704e-02	0.0	7.385200e-01	3.279829e-02	0.0	7.522800e-01	3.119277e-02	0.0	7.657800e-01	2.952647e-02	0.0	7.790100e-01	2.781405e-02	0.0	7.919700e-01	2.606935e-02	0.0	8.046400e-01	2.430916e-02	0.0	8.170100e-01	2.254893e-02	0.0	8.290500e-01	2.080659e-02	0.0	8.407700e-01	1.909328e-02	0.0	8.521600e-01	1.742126e-02	0.0	8.631800e-01	1.580464e-02	0.0	8.738500e-01	1.424545e-02	0.0	8.841500e-01	1.274808e-02	0.0	8.940600e-01	1.131402e-02	0.0	9.035800e-01	9.941070e-03	0.0	9.127000e-01	8.631202e-03	0.0	9.214000e-01	7.394681e-03	0.0	9.296900e-01	6.247445e-03	0.0	9.375400e-01	5.220396e-03	0.0	9.449600e-01	4.342583e-03	0.0	9.519400e-01	3.638681e-03	0.0	9.584700e-01	3.113800e-03	0.0	9.645400e-01	2.745669e-03	0.0	9.701500e-01	2.486386e-03	0.0	9.752800e-01	2.276638e-03	0.0	9.799500e-01	2.061186e-03	0.0	9.841300e-01	1.808186e-03	0.0	9.878400e-01	1.510144e-03	0.0	9.910500e-01	1.185862e-03	0.0	9.937800e-01	8.614396e-04	0.0	9.960200e-01	5.661861e-04	0.0	9.977600e-01	3.231065e-04	0.0	9.990000e-01	1.450708e-04	0.0	9.997500e-01	3.632607e-05	0.0	1.000000e+00	0.000000e+00	0.0	
CELLS 200	600
2	199	0	2	0	1	2	1	2	2	2	3	2	3	4	2	4	5	2	5	6	2	6	7	2	7	8	2	8	9	2	9	10	2	10	11	2	11	12	2	12	13	2	13	14	2	14	15	2	15	16	2	16	17	2	17	18	2	18	19	2	19	20	2	20	21	2	21	22	2	22	23	2	23	24	2	24	25	2	25	26	2	26	27	2	27	28	2	28	29	2	29	30	2	30	31	2	31	32	2	32	33	2	33	34	2	34	35	2	35	36	2	36	37	2	37	38	2	38	39	2	39	40	2	40	41	2	41	42	2	42	43	2	43	44	2	44	45	2	45	46	2	46	47	2	47	48	2	48	49	2	49	50	2	50	51	2	51	52	2	52	53	2	53	54	2	54	55	2	55	56	2	56	57	2	57	58	2	58	59	2	59	60	2	60	61	2	61	62	2	62	63	2	63	64	2	64	65	2	65	66	2	66	67	2	67	68	2	68	69	2	69	70	2	70	71	2	71	72	2	72	73	2	73	74	2	74	75	2	75	76	2	76	77	2	77	78	2	78	79	2	79	80	2	80	81	2	81	82	2	82	83	2	83	84	2	84	85	2	85	86	2	86	87	2	87	88	2	88	89	2	89	90	2	90	91	2	91	92	2	92	93	2	93	94	2	94	95	2	95	96	2	96	97	2	97	98	2	98	99	2	99	100	2	100	101	2	101	102	2	102	103	2	103	104	2	104	105	2	105	106	2	106	107	2	107	108	2	108	109	2	109	110	2	110	111	2	111	112	2	112	113	2	113	114	2	114	115	2	115	116	2	116	117	2	117	118	2	118	119	2	119	120	2	120	121	2	121	122	2	122	123	2	123	124	2	124	125	2	125	126	2	126	127	2	127	128	2	128	129	2	129	130	2	130	131	2	131	132	2	132	133	2	133	134	2	134	135	2	135	136	2	136	137	2	137	138	2	138	139	2	139	140	2	140	141	2	141	142	2	142	143	2	143	144	2	144	145	2	145	146	2	146	147	2	147	148	2	148	149	2	149	150	2	150	151	2	151	152	2	152	153	2	153	154	2	154	155	2	155	156	2	156	157	2	157	158	2	158	159	2	159	160	2	160	161	2	161	162	2	162	163	2	163	164	2	164	165	2	165	166	2	166	167	2	167	168	2	168	169	2	169	170	2	170	171	2	171	172	2	172	173	2	173	174	2	174	175	2	175	176	2	176	177	2	177	178	2	178	179	2	179	180	2	180	181	2	181	182	2	182	183	2	183	184	2	184	185	2	185	186	2	186	187	2	187	188	2	188	189	2	189	190	2	190	191	2	191	192	2	192	193	2	193	194	2	194	195	2	195	196	2	196	197	2	197	198	2	198	199	
CELL_TYPES 200
3	3	3	3	3	3	3	3	3	3	3	3	3	3	3	3	3	3	3	3	3	3	3	3	3	3	3	3	3	3	3	3	3	3	3	3	3	3	3	3	3	3	3	3	3	3	3	3	3	3	3	3	3	3	3	3	3	3	3	3	3	3	3	3	3	3	3	3	3	3	3	3	3	3	3	3	3	3	3	3	3	3	3	3	3	3	3	3	3	3	3	3	3	3	3	3	3	3	3	3	3	3	3	3	3	3	3	3	3	3	3	3	3	3	3	3	3	3	3	3	3	3	3	3	3	3	3	3	3	3	3	3	3	3	3	3	3	3	3	3	3	3	3	3	3	3	3	3	3	3	3	3	3	3	3	3	3	3	3	3	3	3	3	3	3	3	3	3	3	3	3	3	3	3	3	3	3	3	3	3	3	3	3	3	3	3	3	3	3	3	3	3	3	3	3	3	3	3	3	3	
POINT_DATA 200

SCALARS Conservative_1 float 1
LOOKUP_TABLE default
1.196836e+00	1.177847e+00	1.167984e+00	1.161989e+00	1.157829e+00	1.153654e+00	1.146902e+00	1.135912e+00	1.119420e+00	1.097512e+00	1.071448e+00	1.043906e+00	1.019501e+00	1.002554e+00	9.943094e-01	9.927872e-01	9.946186e-01	9.967890e-01	9.974456e-01	9.959670e-01	9.925995e-01	9.879403e-01	9.826138e-01	9.771212e-01	9.717618e-01	9.666552e-01	9.617956e-01	9.571320e-01	9.525915e-01	9.481296e-01	9.437169e-01	9.393019e-01	9.348454e-01	9.303484e-01	9.258457e-01	9.213696e-01	9.169336e-01	9.125211e-01	9.081040e-01	9.036540e-01	8.992051e-01	8.948925e-01	8.908197e-01	8.868572e-01	8.826760e-01	8.784852e-01	8.757953e-01	8.770921e-01	8.831489e-01	8.885490e-01	8.804002e-01	8.475386e-01	8.020070e-01	7.736955e-01	7.678803e-01	7.713716e-01	7.751389e-01	7.771896e-01	7.785174e-01	7.801876e-01	7.824545e-01	7.851915e-01	7.882732e-01	7.916531e-01	7.953418e-01	7.993620e-01	8.037563e-01	8.084835e-01	8.134576e-01	8.185863e-01	8.238996e-01	8.295805e-01	8.358781e-01	8.428697e-01	8.504680e-01	8.585140e-01	8.670523e-01	8.762586e-01	8.861955e-01	8.969047e-01	9.084993e-01	9.210355e-01	9.346589e-01	9.494848e-01	9.656919e-01	9.835386e-01	1.003238e+00	1.025138e+00	1.049691e+00	1.077167e+00	1.108044e+00	1.142741e+00	1.181040e+00	1.222439e+00	1.265232e+00	1.306182e+00	1.336705e+00	1.350892e+00	1.333645e+00	1.295145e+00	1.265931e+00	1.190880e+00	1.041814e+00	9.178440e-01	8.207044e-01	7.502136e-01	7.027751e-01	6.721171e-01	6.525403e-01	6.405452e-01	6.337560e-01	6.304312e-01	6.300571e-01	6.318429e-01	6.350531e-01	6.393077e-01	6.444245e-01	6.509982e-01	6.600234e-01	6.685144e-01	6.710631e-01	6.905931e-01	7.887225e-01	9.206892e-01	9.626622e-01	9.550905e-01	9.427937e-01	9.394848e-01	9.392122e-01	9.379171e-01	9.359646e-01	9.340003e-01	9.320897e-01	9.298974e-01	9.273474e-01	9.243424e-01	9.209052e-01	9.169713e-01	9.125319e-01	9.075848e-01	9.021009e-01	8.961381e-01	8.896776e-01	8.827831e-01	8.754110e-01	8.675944e-01	8.592888e-01	8.505514e-01	8.413125e-01	8.317306e-01	8.218647e-01	8.119868e-01	8.021844e-01	7.921916e-01	7.813470e-01	7.686905e-01	7.555086e-01	7.481286e-01	7.617446e-01	8.074732e-01	8.609963e-01	8.877102e-01	8.944178e-01	8.987798e-01	9.083519e-01	9.212650e-01	9.340789e-01	9.460969e-01	9.579880e-01	9.698900e-01	9.814923e-01	9.926068e-01	1.003163e+00	1.013081e+00	1.022340e+00	1.030913e+00	1.038884e+00	1.046439e+00	1.053861e+00	1.061540e+00	1.069790e+00	1.078732e+00	1.088029e+00	1.096904e+00	1.104190e+00	1.108634e+00	1.109210e+00	1.105572e+00	1.098440e+00	1.089868e+00	1.082799e+00	1.080081e+00	1.083497e+00	1.092963e+00	1.106620e+00	1.122810e+00	1.140213e+00	1.159345e+00	1.180820e+00	1.173410e+00	
SCALARS Conservative_2 float 1
LOOKUP_TABLE default
7.264276e-01	7.495539e-01	7.664412e-01	7.764062e-01	7.815828e-01	7.857711e-01	7.911806e-01	8.006596e-01	8.157268e-01	8.364220e-01	8.609711e-01	8.859176e-01	9.074605e-01	9.231391e-01	9.323487e-01	9.361079e-01	9.365404e-01	9.358216e-01	9.354652e-01	9.361060e-01	9.378018e-01	9.402448e-01	9.430447e-01	9.458950e-01	9.486028e-01	9.510961e-01	9.533707e-01	9.554701e-01	9.574106e-01	9.592295e-01	9.609656e-01	9.626166e-01	9.642013e-01	9.657186e-01	9.671643e-01	9.685220e-01	9.698109e-01	9.710129e-01	9.721468e-01	9.732234e-01	9.742131e-01	9.751183e-01	9.759341e-01	9.767156e-01	9.774567e-01	9.780510e-01	9.782161e-01	9.778290e-01	9.769418e-01	9.764260e-01	9.775437e-01	9.799883e-01	9.784682e-01	9.727115e-01	9.707295e-01	9.710734e-01	9.718124e-01	9.725696e-01	9.730234e-01	9.734460e-01	9.739318e-01	9.744658e-01	9.750220e-01	9.755675e-01	9.760879e-01	9.765556e-01	9.769768e-01	9.773097e-01	9.775371e-01	9.776116e-01	9.775277e-01	9.772505e-01	9.767631e-01	9.759915e-01	9.749012e-01	9.733551e-01	9.713628e-01	9.688318e-01	9.655260e-01	9.612785e-01	9.559975e-01	9.493892e-01	9.411815e-01	9.309639e-01	9.182256e-01	9.022340e-01	8.820684e-01	8.566772e-01	8.245309e-01	7.835167e-01	7.312426e-01	6.647528e-01	5.805448e-01	4.765361e-01	3.530209e-01	2.178715e-01	9.080829e-02	-1.403027e-03	-2.812632e-02	4.715912e-03	8.035461e-02	2.286257e-01	4.457403e-01	6.285237e-01	7.448842e-01	8.111621e-01	8.465344e-01	8.653407e-01	8.755725e-01	8.817688e-01	8.862389e-01	8.896445e-01	8.930231e-01	8.965099e-01	9.000690e-01	9.037994e-01	9.077160e-01	9.119294e-01	9.171517e-01	9.225916e-01	9.216620e-01	9.308666e-01	9.476674e-01	9.292915e-01	9.286219e-01	9.348993e-01	9.397632e-01	9.413816e-01	9.421785e-01	9.430467e-01	9.441958e-01	9.452320e-01	9.463130e-01	9.473339e-01	9.484783e-01	9.496331e-01	9.509000e-01	9.522103e-01	9.535676e-01	9.550068e-01	9.564082e-01	9.578493e-01	9.591924e-01	9.605034e-01	9.616594e-01	9.627114e-01	9.635329e-01	9.642046e-01	9.645061e-01	9.646314e-01	9.643471e-01	9.637665e-01	9.628761e-01	9.614668e-01	9.594867e-01	9.568456e-01	9.543609e-01	9.526482e-01	9.564870e-01	9.620743e-01	9.596631e-01	9.556415e-01	9.536856e-01	9.523460e-01	9.499054e-01	9.459917e-01	9.413016e-01	9.361989e-01	9.305835e-01	9.245490e-01	9.181523e-01	9.115262e-01	9.048512e-01	8.981862e-01	8.916733e-01	8.853160e-01	8.791063e-01	8.728840e-01	8.663653e-01	8.592230e-01	8.511049e-01	8.420022e-01	8.323499e-01	8.232669e-01	8.163195e-01	8.130913e-01	8.146050e-01	8.207551e-01	8.300479e-01	8.397283e-01	8.463742e-01	8.471880e-01	8.407932e-01	8.279538e-01	8.094692e-01	7.870357e-01	7.604143e-01	7.284281e-01	6.881649e-01	6.504628e-01	
SCALARS Conservative_3 float 1
LOOKUP_TABLE default
1.003435e-01	1.075107e-01	1.134090e-01	1.203172e-01	1.309257e-01	1.459060e-01	1.648729e-01	1.858354e-01	2.055375e-01	2.199250e-01	2.257002e-01	2.212209e-01	2.074550e-01	1.883561e-01	1.688718e-01	1.528362e-01	1.419554e-01	1.359761e-01	1.334841e-01	1.327692e-01	1.324774e-01	1.318118e-01	1.304750e-01	1.284957e-01	1.260532e-01	1.233601e-01	1.205628e-01	1.177602e-01	1.149855e-01	1.122315e-01	1.094880e-01	1.067331e-01	1.039511e-01	1.011307e-01	9.825217e-02	9.532053e-02	9.232091e-02	8.926038e-02	8.614210e-02	8.297562e-02	7.976094e-02	7.645959e-02	7.305582e-02	6.958658e-02	6.619863e-02	6.296191e-02	5.967908e-02	5.586368e-02	5.091267e-02	4.515336e-02	4.018681e-02	3.876399e-02	3.869693e-02	3.347168e-02	2.739212e-02	2.203446e-02	1.731209e-02	1.271577e-02	7.882148e-03	2.735249e-03	-2.651679e-03	-8.263744e-03	-1.411301e-02	-2.022202e-02	-2.661581e-02	-3.332880e-02	-4.038821e-02	-4.781026e-02	-5.560797e-02	-6.380587e-02	-7.243573e-02	-8.156316e-02	-9.124471e-02	-1.015091e-01	-1.123862e-01	-1.239213e-01	-1.362132e-01	-1.493190e-01	-1.633025e-01	-1.782717e-01	-1.943297e-01	-2.115690e-01	-2.301211e-01	-2.500957e-01	-2.715743e-01	-2.946321e-01	-3.192927e-01	-3.454487e-01	-3.726367e-01	-4.000574e-01	-4.261479e-01	-4.477574e-01	-4.597570e-01	-4.537744e-01	-4.169217e-01	-3.337791e-01	-1.923344e-01	8.191154e-03	2.395722e-01	4.095941e-01	5.540080e-01	7.156439e-01	7.592445e-01	6.893084e-01	5.761243e-01	4.643263e-01	3.717486e-01	2.995896e-01	2.443416e-01	2.017579e-01	1.688650e-01	1.429880e-01	1.224424e-01	1.059620e-01	9.267226e-02	8.187926e-02	7.310196e-02	6.575532e-02	6.035171e-02	5.710127e-02	5.356963e-02	4.631272e-02	4.011908e-02	5.726500e-02	4.900979e-02	4.601532e-02	4.503625e-02	4.557378e-02	4.650463e-02	4.721325e-02	4.790101e-02	4.866469e-02	4.949287e-02	5.024612e-02	5.089419e-02	5.137182e-02	5.165196e-02	5.168941e-02	5.142215e-02	5.083950e-02	4.986607e-02	4.849502e-02	4.666833e-02	4.437545e-02	4.157549e-02	3.825834e-02	3.439218e-02	2.998831e-02	2.500818e-02	1.949072e-02	1.341256e-02	6.836951e-03	-1.677449e-04	-7.533499e-03	-1.520785e-02	-2.336855e-02	-3.243558e-02	-4.237926e-02	-5.357747e-02	-6.140337e-02	-6.427207e-02	-7.271231e-02	-8.347556e-02	-9.313299e-02	-1.007058e-01	-1.070600e-01	-1.129405e-01	-1.183569e-01	-1.229135e-01	-1.264781e-01	-1.290973e-01	-1.307962e-01	-1.315911e-01	-1.315601e-01	-1.308262e-01	-1.295958e-01	-1.280968e-01	-1.265585e-01	-1.250951e-01	-1.235764e-01	-1.215006e-01	-1.179916e-01	-1.119572e-01	-1.025312e-01	-8.952857e-02	-7.386840e-02	-5.769758e-02	-4.408826e-02	-3.628403e-02	-3.651572e-02	-4.491172e-02	-5.923406e-02	-7.564160e-02	-9.033110e-02	-1.005431e-01	-1.053569e-01	-1.057976e-01	-1.015435e-01	-9.746725e-02	5.984616e-03	
SCALARS Conservative_4 float 1
LOOKUP_TABLE default
3.439287e+00	3.391093e+00	3.367158e+00	3.352718e+00	3.342584e+00	3.332417e+00	3.315640e+00	3.288256e+00	3.247093e+00	3.192361e+00	3.127127e+00	3.057935e+00	2.996431e+00	2.953706e+00	2.932959e+00	2.929133e+00	2.933715e+00	2.939124e+00	2.940699e+00	2.936864e+00	2.928249e+00	2.916357e+00	2.902758e+00	2.888722e+00	2.875006e+00	2.861917e+00	2.849442e+00	2.837457e+00	2.825772e+00	2.814277e+00	2.802902e+00	2.791510e+00	2.780000e+00	2.768374e+00	2.756723e+00	2.745128e+00	2.733630e+00	2.722180e+00	2.710708e+00	2.699144e+00	2.687567e+00	2.676336e+00	2.665723e+00	2.655401e+00	2.644501e+00	2.633545e+00	2.626426e+00	2.629657e+00	2.645299e+00	2.659336e+00	2.638064e+00	2.552203e+00	2.432477e+00	2.356744e+00	2.340884e+00	2.350010e+00	2.360015e+00	2.365584e+00	2.369176e+00	2.373655e+00	2.379717e+00	2.387032e+00	2.395268e+00	2.404293e+00	2.414135e+00	2.424846e+00	2.436543e+00	2.449111e+00	2.462323e+00	2.475928e+00	2.490007e+00	2.505035e+00	2.521670e+00	2.540102e+00	2.560105e+00	2.581231e+00	2.603620e+00	2.627726e+00	2.653665e+00	2.681530e+00	2.711633e+00	2.744081e+00	2.779241e+00	2.817375e+00	2.858905e+00	2.904440e+00	2.954455e+00	3.009807e+00	3.071569e+00	3.140272e+00	3.217055e+00	3.302855e+00	3.396889e+00	3.497901e+00	3.601675e+00	3.700831e+00	3.774367e+00	3.809546e+00	3.767135e+00	3.670840e+00	3.605312e+00	3.426009e+00	3.044223e+00	2.723776e+00	2.468758e+00	2.281964e+00	2.155601e+00	2.073618e+00	2.021079e+00	1.988832e+00	1.970675e+00	1.961808e+00	1.960991e+00	1.966066e+00	1.975032e+00	1.986888e+00	2.001127e+00	2.019267e+00	2.044130e+00	2.067809e+00	2.073855e+00	2.127176e+00	2.387166e+00	2.730864e+00	2.843050e+00	2.824422e+00	2.792822e+00	2.784433e+00	2.783945e+00	2.780739e+00	2.775858e+00	2.770916e+00	2.766135e+00	2.760585e+00	2.754119e+00	2.746443e+00	2.737650e+00	2.727549e+00	2.716119e+00	2.703369e+00	2.689189e+00	2.673758e+00	2.656990e+00	2.639077e+00	2.619871e+00	2.599480e+00	2.577752e+00	2.554870e+00	2.530585e+00	2.505384e+00	2.479351e+00	2.453242e+00	2.427282e+00	2.400706e+00	2.371774e+00	2.337973e+00	2.302968e+00	2.283375e+00	2.320245e+00	2.441509e+00	2.581515e+00	2.651176e+00	2.668655e+00	2.680111e+00	2.705071e+00	2.738529e+00	2.771581e+00	2.802468e+00	2.832933e+00	2.863366e+00	2.892951e+00	2.921211e+00	2.947999e+00	2.973108e+00	2.996508e+00	3.018131e+00	3.038198e+00	3.057180e+00	3.075775e+00	3.094968e+00	3.115528e+00	3.137774e+00	3.160871e+00	3.182928e+00	3.201086e+00	3.212261e+00	3.213884e+00	3.205027e+00	3.187395e+00	3.166049e+00	3.148288e+00	3.141240e+00	3.149441e+00	3.172840e+00	3.206578e+00	3.246565e+00	3.289269e+00	3.336025e+00	3.388376e+00	3.360552e+00	
SCALARS Pressure float 1
LOOKUP_TABLE default
1.285850e+00	1.259075e+00	1.244072e+00	1.234841e+00	1.228553e+00	1.222236e+00	1.212358e+00	1.196351e+00	1.172405e+00	1.140642e+00	1.102974e+00	1.063430e+00	1.028583e+00	1.004402e+00	9.925978e-01	9.904146e-01	9.930631e-01	9.962231e-01	9.972397e-01	9.952373e-01	9.905575e-01	9.840551e-01	9.766245e-01	9.689758e-01	9.615329e-01	9.544608e-01	9.477502e-01	9.413229e-01	9.350820e-01	9.289618e-01	9.229145e-01	9.168764e-01	9.107923e-01	9.046642e-01	8.985383e-01	8.924614e-01	8.864456e-01	8.804750e-01	8.745079e-01	8.685039e-01	8.625162e-01	8.567207e-01	8.512547e-01	8.459326e-01	8.403246e-01	8.347354e-01	8.312344e-01	8.331239e-01	8.413937e-01	8.486767e-01	8.377773e-01	7.938994e-01	7.338661e-01	6.978240e-01	6.907253e-01	6.953830e-01	7.002513e-01	7.027788e-01	7.044293e-01	7.065447e-01	7.094319e-01	7.129224e-01	7.168539e-01	7.211722e-01	7.258938e-01	7.310548e-01	7.367057e-01	7.428010e-01	7.492265e-01	7.558704e-01	7.627686e-01	7.701688e-01	7.783970e-01	7.875679e-01	7.975635e-01	8.082032e-01	8.195235e-01	8.317643e-01	8.450560e-01	8.594709e-01	8.751439e-01	8.921893e-01	9.108148e-01	9.312139e-01	9.536691e-01	9.785938e-01	1.006352e+00	1.037461e+00	1.072637e+00	1.112409e+00	1.157528e+00	1.208714e+00	1.265887e+00	1.328319e+00	1.393493e+00	1.456005e+00	1.502978e+00	1.523808e+00	1.498128e+00	1.442425e+00	1.392615e+00	1.275614e+00	1.068884e+00	8.998945e-01	7.714029e-01	6.798967e-01	6.189713e-01	5.799166e-01	5.551659e-01	5.400559e-01	5.314093e-01	5.271494e-01	5.264891e-01	5.284644e-01	5.321724e-01	5.371146e-01	5.430762e-01	5.508893e-01	5.616581e-01	5.715014e-01	5.755180e-01	5.993019e-01	7.267296e-01	9.040386e-01	9.575637e-01	9.462983e-01	9.293501e-01	9.246748e-01	9.240868e-01	9.221796e-01	9.193529e-01	9.165395e-01	9.137776e-01	9.106717e-01	9.070708e-01	9.028830e-01	8.981061e-01	8.926760e-01	8.865785e-01	8.797969e-01	8.723272e-01	8.642164e-01	8.554786e-01	8.461715e-01	8.362725e-01	8.258033e-01	8.147408e-01	8.031275e-01	7.909374e-01	7.783085e-01	7.653904e-01	7.525016e-01	7.397613e-01	7.268855e-01	7.130024e-01	6.968358e-01	6.797982e-01	6.702543e-01	6.871411e-01	7.464145e-01	8.177191e-01	8.535251e-01	8.625277e-01	8.682933e-01	8.811236e-01	8.986470e-01	9.161851e-01	9.327451e-01	9.492266e-01	9.657823e-01	9.820043e-01	9.976238e-01	1.012513e+00	1.026562e+00	1.039713e+00	1.051938e+00	1.063340e+00	1.074188e+00	1.084895e+00	1.096017e+00	1.108027e+00	1.121084e+00	1.134694e+00	1.147676e+00	1.158283e+00	1.164653e+00	1.165304e+00	1.159797e+00	1.149271e+00	1.136775e+00	1.126628e+00	1.122944e+00	1.128229e+00	1.142202e+00	1.162382e+00	1.186314e+00	1.212319e+00	1.241095e+00	1.273531e+00	1.272100e+00	
SCALARS Temperature float 1
LOOKUP_TABLE default
1.074375e+00	1.068963e+00	1.065144e+00	1.062696e+00	1.061083e+00	1.059448e+00	1.057072e+00	1.053208e+00	1.047332e+00	1.039298e+00	1.029424e+00	1.018703e+00	1.008908e+00	1.001843e+00	9.982786e-01	9.976101e-01	9.984361e-01	9.994322e-01	9.997936e-01	9.992674e-01	9.979428e-01	9.960673e-01	9.939047e-01	9.916639e-01	9.894739e-01	9.873850e-01	9.853967e-01	9.834828e-01	9.816191e-01	9.797835e-01	9.779569e-01	9.761253e-01	9.742705e-01	9.723928e-01	9.705055e-01	9.686247e-01	9.667500e-01	9.648818e-01	9.630041e-01	9.611023e-01	9.591986e-01	9.573448e-01	9.555858e-01	9.538543e-01	9.520193e-01	9.501985e-01	9.491194e-01	9.498705e-01	9.527200e-01	9.551265e-01	9.515870e-01	9.367118e-01	9.150371e-01	9.019363e-01	8.995221e-01	9.014890e-01	9.033882e-01	9.042565e-01	9.048344e-01	9.056087e-01	9.066749e-01	9.079599e-01	9.093977e-01	9.109700e-01	9.126815e-01	9.145478e-01	9.165784e-01	9.187584e-01	9.210395e-01	9.233851e-01	9.258028e-01	9.283834e-01	9.312327e-01	9.343888e-01	9.377936e-01	9.413978e-01	9.451835e-01	9.492224e-01	9.535774e-01	9.582633e-01	9.632851e-01	9.686807e-01	9.744890e-01	9.807571e-01	9.875501e-01	9.949724e-01	1.003104e+00	1.012021e+00	1.021860e+00	1.032717e+00	1.044659e+00	1.057732e+00	1.071840e+00	1.086613e+00	1.101373e+00	1.114704e+00	1.124390e+00	1.128001e+00	1.123333e+00	1.113717e+00	1.100071e+00	1.071152e+00	1.025983e+00	9.804439e-01	9.399278e-01	9.062708e-01	8.807532e-01	8.628208e-01	8.507764e-01	8.431191e-01	8.385076e-01	8.361728e-01	8.356212e-01	8.363857e-01	8.379967e-01	8.401503e-01	8.427306e-01	8.462224e-01	8.509670e-01	8.548827e-01	8.576214e-01	8.678075e-01	9.214008e-01	9.819150e-01	9.947038e-01	9.907944e-01	9.857406e-01	9.842361e-01	9.838956e-01	9.832208e-01	9.822518e-01	9.813054e-01	9.803537e-01	9.793249e-01	9.781348e-01	9.767841e-01	9.752427e-01	9.735048e-01	9.715589e-01	9.693826e-01	9.669952e-01	9.643786e-01	9.615602e-01	9.585271e-01	9.552912e-01	9.518311e-01	9.481571e-01	9.442434e-01	9.401231e-01	9.357700e-01	9.312852e-01	9.267412e-01	9.221836e-01	9.175627e-01	9.125298e-01	9.065232e-01	8.997889e-01	8.959079e-01	9.020623e-01	9.243830e-01	9.497359e-01	9.614906e-01	9.643454e-01	9.660801e-01	9.700245e-01	9.754489e-01	9.808434e-01	9.858874e-01	9.908543e-01	9.957649e-01	1.000522e+00	1.005054e+00	1.009320e+00	1.013306e+00	1.016994e+00	1.020394e+00	1.023541e+00	1.026517e+00	1.029447e+00	1.032478e+00	1.035743e+00	1.039261e+00	1.042889e+00	1.046286e+00	1.048989e+00	1.050530e+00	1.050571e+00	1.049047e+00	1.046276e+00	1.043039e+00	1.040478e+00	1.039685e+00	1.041285e+00	1.045052e+00	1.050390e+00	1.056558e+00	1.063239e+00	1.070515e+00	1.078514e+00	1.084105e+00	
SCALARS Pressure_Coefficient float 1
LOOKUP_TABLE default
6.380586e-01	5.782919e-01	5.448034e-01	5.241996e-01	5.101620e-01	4.960628e-01	4.740132e-01	4.382840e-01	3.848320e-01	3.139325e-01	2.298526e-01	1.415851e-01	6.380099e-02	9.825770e-03	-1.652282e-02	-2.139600e-02	-1.548415e-02	-8.430676e-03	-6.161318e-03	-1.063092e-02	-2.107703e-02	-3.559131e-02	-5.217744e-02	-6.925043e-02	-8.586398e-02	-1.016499e-01	-1.166290e-01	-1.309757e-01	-1.449062e-01	-1.585675e-01	-1.720659e-01	-1.855438e-01	-1.991243e-01	-2.128032e-01	-2.264769e-01	-2.400416e-01	-2.534697e-01	-2.667970e-01	-2.801163e-01	-2.935181e-01	-3.068834e-01	-3.198199e-01	-3.320208e-01	-3.439004e-01	-3.564183e-01	-3.688942e-01	-3.767090e-01	-3.724913e-01	-3.540320e-01	-3.377753e-01	-3.621042e-01	-4.600460e-01	-5.940488e-01	-6.745000e-01	-6.903453e-01	-6.799487e-01	-6.690819e-01	-6.634401e-01	-6.597560e-01	-6.550341e-01	-6.485896e-01	-6.407981e-01	-6.320226e-01	-6.223835e-01	-6.118443e-01	-6.003241e-01	-5.877105e-01	-5.741049e-01	-5.597622e-01	-5.449322e-01	-5.295345e-01	-5.130161e-01	-4.946496e-01	-4.741787e-01	-4.518672e-01	-4.281179e-01	-4.028492e-01	-3.755262e-01	-3.458572e-01	-3.136811e-01	-2.786968e-01	-2.406489e-01	-1.990740e-01	-1.535403e-01	-1.034171e-01	-4.778170e-02	1.417778e-02	8.361825e-02	1.621359e-01	2.509121e-01	3.516248e-01	4.658789e-01	5.934969e-01	7.328547e-01	8.783330e-01	1.017869e+00	1.122719e+00	1.169214e+00	1.111893e+00	9.875565e-01	8.763725e-01	6.152091e-01	1.537592e-01	-2.234497e-01	-5.102614e-01	-7.145164e-01	-8.505104e-01	-9.376861e-01	-9.929334e-01	-1.026661e+00	-1.045961e+00	-1.055470e+00	-1.056944e+00	-1.052535e+00	-1.044258e+00	-1.033226e+00	-1.019919e+00	-1.002479e+00	-9.784417e-01	-9.564701e-01	-9.475044e-01	-8.944155e-01	-6.099786e-01	-2.141996e-01	-9.472380e-02	-1.198700e-01	-1.577008e-01	-1.681367e-01	-1.694491e-01	-1.737063e-01	-1.800158e-01	-1.862957e-01	-1.924606e-01	-1.993936e-01	-2.074313e-01	-2.167790e-01	-2.274418e-01	-2.395626e-01	-2.531731e-01	-2.683106e-01	-2.849840e-01	-3.030884e-01	-3.225924e-01	-3.433672e-01	-3.654632e-01	-3.888319e-01	-4.135250e-01	-4.394476e-01	-4.666577e-01	-4.948470e-01	-5.236820e-01	-5.524519e-01	-5.808900e-01	-6.096305e-01	-6.406196e-01	-6.767059e-01	-7.147361e-01	-7.360395e-01	-6.983458e-01	-5.660390e-01	-4.068771e-01	-3.269530e-01	-3.068579e-01	-2.939882e-01	-2.653490e-01	-2.262344e-01	-1.870868e-01	-1.501226e-01	-1.133335e-01	-7.637870e-02	-4.016905e-02	-5.303976e-03	2.792993e-02	5.928999e-02	8.864551e-02	1.159328e-01	1.413833e-01	1.655984e-01	1.894972e-01	2.143236e-01	2.411308e-01	2.702765e-01	3.006555e-01	3.296341e-01	3.533099e-01	3.675289e-01	3.689821e-01	3.566893e-01	3.331948e-01	3.053016e-01	2.826521e-01	2.744279e-01	2.862263e-01	3.174162e-01	3.624608e-01	4.158792e-01	4.739274e-01	5.381592e-01	6.105601e-01	6.073657e-01	
SCALARS Mach float 1
LOOKUP_TABLE default
4.995973e-01	5.255218e-01	5.432211e-01	5.543340e-01	5.615666e-01	5.688235e-01	5.792469e-01	5.959038e-01	6.205999e-01	6.532787e-01	6.919720e-01	7.324514e-01	7.682674e-01	7.935102e-01	8.060767e-01	8.084215e-01	8.055236e-01	8.020213e-01	8.007486e-01	8.026015e-01	8.072550e-01	8.138194e-01	8.213540e-01	8.291230e-01	8.366798e-01	8.438557e-01	8.506573e-01	8.571791e-01	8.635069e-01	8.697174e-01	8.758767e-01	8.820326e-01	8.882465e-01	8.945167e-01	9.007995e-01	9.070412e-01	9.132443e-01	9.194080e-01	9.255854e-01	9.318249e-01	9.380535e-01	9.441027e-01	9.498286e-01	9.554518e-01	9.613976e-01	9.672837e-01	9.707657e-01	9.683427e-01	9.591290e-01	9.513216e-01	9.627965e-01	1.010494e+00	1.078759e+00	1.119487e+00	1.126958e+00	1.120872e+00	1.114989e+00	1.112297e+00	1.110505e+00	1.108103e+00	1.104794e+00	1.100802e+00	1.096332e+00	1.091439e+00	1.086108e+00	1.080287e+00	1.073944e+00	1.067125e+00	1.059978e+00	1.052615e+00	1.045010e+00	1.036877e+00	1.027874e+00	1.017874e+00	1.007052e+00	9.955539e-01	9.834283e-01	9.704337e-01	9.563502e-01	9.411075e-01	9.246618e-01	9.068555e-01	8.875154e-01	8.664262e-01	8.432894e-01	8.176388e-01	7.890393e-01	7.569937e-01	7.206821e-01	6.792305e-01	6.316037e-01	5.763647e-01	5.118685e-01	4.364294e-01	3.477221e-01	2.442769e-01	1.268226e-01	4.895362e-03	1.442282e-01	2.532868e-01	3.563299e-01	5.151599e-01	7.051227e-01	8.674856e-01	1.000248e+00	1.106048e+00	1.184757e+00	1.239653e+00	1.276432e+00	1.299803e+00	1.313878e+00	1.321007e+00	1.322691e+00	1.320356e+00	1.315438e+00	1.308864e+00	1.300988e+00	1.290331e+00	1.275850e+00	1.263897e+00	1.255535e+00	1.224408e+00	1.058845e+00	8.625037e-01	8.185743e-01	8.321277e-01	8.494827e-01	8.546153e-01	8.557744e-01	8.580701e-01	8.613613e-01	8.645699e-01	8.677904e-01	8.712658e-01	8.752777e-01	8.798207e-01	8.849919e-01	8.908057e-01	8.972953e-01	9.045283e-01	9.124341e-01	9.210651e-01	9.303240e-01	9.402465e-01	9.507862e-01	9.620067e-01	9.738671e-01	9.864444e-01	9.996251e-01	1.013488e+00	1.027708e+00	1.042055e+00	1.056388e+00	1.070867e+00	1.086581e+00	1.105265e+00	1.126133e+00	1.138125e+00	1.119097e+00	1.049478e+00	9.687772e-01	9.305522e-01	9.211743e-01	9.154564e-01	9.023974e-01	8.843008e-01	8.661341e-01	8.489810e-01	8.319207e-01	8.148755e-01	7.981815e-01	7.820936e-01	7.667818e-01	7.523105e-01	7.387751e-01	7.261597e-01	7.143650e-01	7.030930e-01	6.918822e-01	6.801598e-01	6.673838e-01	6.534257e-01	6.388162e-01	6.249206e-01	6.137100e-01	6.072504e-01	6.070762e-01	6.134664e-01	6.249630e-01	6.382059e-01	6.485520e-01	6.517299e-01	6.453021e-01	6.299954e-01	6.078370e-01	5.814794e-01	5.518842e-01	5.181948e-01	4.790101e-01	4.499780e-01	