# vtk DataFile Version 3.0
vtk output
ASCII
DATASET UNSTRUCTURED_GRID
POINTS 5233 float
9.997500e-01	-3.633623e-05	0.0	9.990000e-01	-1.457123e-04	0.0	9.977600e-01	-3.301309e-04	0.0	9.960200e-01	-6.040203e-04	0.0	9.937800e-01	-9.976133e-04	0.0	9.910500e-01	-1.560110e-03	0.0	9.878400e-01	-2.354109e-03	0.0	9.841300e-01	-3.445030e-03	0.0	9.799500e-01	-4.849717e-03	0.0	9.752800e-01	-6.538158e-03	0.0	9.701500e-01	-8.392536e-03	0.0	9.645400e-01	-1.026304e-02	0.0	9.584700e-01	-1.198184e-02	0.0	9.519400e-01	-1.343625e-02	0.0	9.449600e-01	-1.459385e-02	0.0	9.375400e-01	-1.550837e-02	0.0	9.296900e-01	-1.629172e-02	0.0	9.214000e-01	-1.707371e-02	0.0	9.127000e-01	-1.795852e-02	0.0	9.035800e-01	-1.900987e-02	0.0	8.940600e-01	-2.023906e-02	0.0	8.841500e-01	-2.161761e-02	0.0	8.738500e-01	-2.309312e-02	0.0	8.631800e-01	-2.460052e-02	0.0	8.521600e-01	-2.607776e-02	0.0	8.407700e-01	-2.747898e-02	0.0	8.290500e-01	-2.876540e-02	0.0	8.170100e-01	-2.991790e-02	0.0	8.046400e-01	-3.093251e-02	0.0	7.919700e-01	-3.181244e-02	0.0	7.790100e-01	-3.257024e-02	0.0	7.657800e-01	-3.322200e-02	0.0	7.522800e-01	-3.378603e-02	0.0	7.385200e-01	-3.427912e-02	0.0	7.245300e-01	-3.471514e-02	0.0	7.103200e-01	-3.510581e-02	0.0	6.958900e-01	-3.545994e-02	0.0	6.812700e-01	-3.578289e-02	0.0	6.664700e-01	-3.607854e-02	0.0	6.515000e-01	-3.634949e-02	0.0	6.363800e-01	-3.659765e-02	0.0	6.211300e-01	-3.682517e-02	0.0	6.057600e-01	-3.703503e-02	0.0	5.902800e-01	-3.723105e-02	0.0	5.747100e-01	-3.741792e-02	0.0	5.590600e-01	-3.760126e-02	0.0	5.433600e-01	-3.778698e-02	0.0	5.276100e-01	-3.798150e-02	0.0	5.118400e-01	-3.819057e-02	0.0	4.960500e-01	-3.841963e-02	0.0	4.802700e-01	-3.867260e-02	0.0	4.645100e-01	-3.895228e-02	0.0	4.487800e-01	-3.925989e-02	0.0	4.331100e-01	-3.959452e-02	0.0	4.175000e-01	-3.995414e-02	0.0	4.019700e-01	-4.033463e-02	0.0	3.865400e-01	-4.073032e-02	0.0	3.712300e-01	-4.113423e-02	0.0	3.560400e-01	-4.153883e-02	0.0	3.409900e-01	-4.193527e-02	0.0	3.261100e-01	-4.231396e-02	0.0	3.114000e-01	-4.266578e-02	0.0	2.968700e-01	-4.298132e-02	0.0	2.825500e-01	-4.325094e-02	0.0	2.684500e-01	-4.346584e-02	0.0	2.545700e-01	-4.361774e-02	0.0	2.409400e-01	-4.369862e-02	0.0	2.275700e-01	-4.370141e-02	0.0	2.144700e-01	-4.361968e-02	0.0	2.016600e-01	-4.344784e-02	0.0	1.891400e-01	-4.318078e-02	0.0	1.769300e-01	-4.281440e-02	0.0	1.650400e-01	-4.234518e-02	0.0	1.534900e-01	-4.177081e-02	0.0	1.422900e-01	-4.108949e-02	0.0	1.314400e-01	-4.029935e-02	0.0	1.209500e-01	-3.939971e-02	0.0	1.108500e-01	-3.839279e-02	0.0	1.011300e-01	-3.727800e-02	0.0	9.181000e-02	-3.605858e-02	0.0	8.290000e-02	-3.473791e-02	0.0	7.440000e-02	-3.331870e-02	0.0	6.633000e-02	-3.180795e-02	0.0	5.869000e-02	-3.021034e-02	0.0	5.149000e-02	-2.853334e-02	0.0	4.474000e-02	-2.678569e-02	0.0	3.844000e-02	-2.497443e-02	0.0	3.260000e-02	-2.310994e-02	0.0	2.723000e-02	-2.120379e-02	0.0	2.232000e-02	-1.926031e-02	0.0	1.790000e-02	-1.729977e-02	0.0	1.395000e-02	-1.532100e-02	0.0	1.049000e-02	-1.333980e-02	0.0	7.520000e-03	-1.136106e-02	0.0	5.040000e-03	-9.385473e-03	0.0	3.050000e-03	-7.406595e-03	0.0	1.560000e-03	-5.420181e-03	0.0	5.600000e-04	-3.375718e-03	0.0	6.000000e-05	-1.192711e-03	0.0	0.000000e+00	0.000000e+00	0.0	6.000000e-05	1.149995e-03	0.0	5.600000e-04	3.155040e-03	0.0	1.560000e-03	4.940641e-03	0.0	3.050000e-03	6.604490e-03	0.0	5.040000e-03	8.205409e-03	0.0	7.520000e-03	9.759381e-03	0.0	1.049000e-02	1.128238e-02	0.0	1.395000e-02	1.278341e-02	0.0	1.790000e-02	1.426737e-02	0.0	2.232000e-02	1.573033e-02	0.0	2.723000e-02	1.718044e-02	0.0	3.260000e-02	1.860927e-02	0.0	3.844000e-02	2.001970e-02	0.0	4.474000e-02	2.140864e-02	0.0	5.149000e-02	2.277324e-02	0.0	5.869000e-02	2.411262e-02	0.0	6.633000e-02	2.542398e-02	0.0	7.440000e-02	2.670480e-02	0.0	8.290000e-02	2.795431e-02	0.0	9.181000e-02	2.916897e-02	0.0	1.011300e-01	3.034839e-02	0.0	1.108500e-01	3.149096e-02	0.0	1.209500e-01	3.259430e-02	0.0	1.314400e-01	3.365952e-02	0.0	1.422900e-01	3.468375e-02	0.0	1.534900e-01	3.566653e-02	0.0	1.650400e-01	3.660837e-02	0.0	1.769300e-01	3.750893e-02	0.0	1.891400e-01	3.836731e-02	0.0	2.016600e-01	3.918349e-02	0.0	2.144700e-01	3.995687e-02	0.0	2.275700e-01	4.068806e-02	0.0	2.409400e-01	4.137639e-02	0.0	2.545700e-01	4.202167e-02	0.0	2.684500e-01	4.262347e-02	0.0	2.825500e-01	4.318036e-02	0.0	2.968700e-01	4.369188e-02	0.0	3.114000e-01	4.415680e-02	0.0	3.261100e-01	4.457294e-02	0.0	3.409900e-01	4.493850e-02	0.0	3.560400e-01	4.525145e-02	0.0	3.712300e-01	4.550878e-02	0.0	3.865400e-01	4.570756e-02	0.0	4.019700e-01	4.584481e-02	0.0	4.175000e-01	4.591711e-02	0.0	4.331100e-01	4.592096e-02	0.0	4.487800e-01	4.585289e-02	0.0	4.645100e-01	4.570927e-02	0.0	4.802700e-01	4.548668e-02	0.0	4.960500e-01	4.518163e-02	0.0	5.118400e-01	4.479061e-02	0.0	5.276100e-01	4.431078e-02	0.0	5.433600e-01	4.373869e-02	0.0	5.590600e-01	4.307217e-02	0.0	5.747100e-01	4.230827e-02	0.0	5.902800e-01	4.144610e-02	0.0	6.057600e-01	4.048471e-02	0.0	6.211300e-01	3.942499e-02	0.0	6.363800e-01	3.826877e-02	0.0	6.515000e-01	3.701967e-02	0.0	6.664700e-01	3.568437e-02	0.0	6.812700e-01	3.427208e-02	0.0	6.958900e-01	3.279352e-02	0.0	7.103200e-01	3.126138e-02	0.0	7.245300e-01	2.969207e-02	0.0	7.385200e-01	2.809937e-02	0.0	7.522800e-01	2.649770e-02	0.0	7.657800e-01	2.490221e-02	0.0	7.790100e-01	2.332307e-02	0.0	7.919700e-01	2.176575e-02	0.0	8.046400e-01	2.023426e-02	0.0	8.170100e-01	1.872770e-02	0.0	8.290500e-01	1.724454e-02	0.0	8.407700e-01	1.577619e-02	0.0	8.521600e-01	1.431507e-02	0.0	8.631800e-01	1.285699e-02	0.0	8.738500e-01	1.138986e-02	0.0	8.841500e-01	9.907696e-03	0.0	8.940600e-01	8.407782e-03	0.0	9.035800e-01	6.891843e-03	0.0	9.127000e-01	5.377076e-03	0.0	9.214000e-01	3.903917e-03	0.0	9.296900e-01	2.533618e-03	0.0	9.375400e-01	1.355847e-03	0.0	9.449600e-01	4.595527e-04	0.0	9.519400e-01	-8.430395e-05	0.0	9.584700e-01	-2.562578e-04	0.0	9.645400e-01	-1.068244e-04	0.0	9.701500e-01	2.500386e-04	0.0	9.752800e-01	6.665757e-04	0.0	9.799500e-01	1.009759e-03	0.0	9.841300e-01	1.192053e-03	0.0	9.878400e-01	1.192894e-03	0.0	9.910500e-01	1.045326e-03	0.0	9.937800e-01	8.103430e-04	0.0	9.960200e-01	5.519970e-04	0.0	9.977600e-01	3.204730e-04	0.0	9.990000e-01	1.448304e-04	0.0	9.997500e-01	3.632226e-05	0.0	1.000000e+00	0.000000e+00	0.0	1.984229e+01	2.506660e+00	0.0	1.937166e+01	4.973800e+00	0.0	1.859553e+01	7.362490e+00	0.0	1.752613e+01	9.635070e+00	0.0	1.618034e+01	1.175571e+01	0.0	1.457937e+01	1.369094e+01	0.0	1.274848e+01	1.541027e+01	0.0	1.071654e+01	1.688656e+01	0.0	8.515590e+00	1.809654e+01	0.0	6.180340e+00	1.902113e+01	0.0	3.747630e+00	1.964575e+01	0.0	1.255810e+00	1.996053e+01	0.0	-1.255810e+00	1.996053e+01	0.0	-3.747630e+00	1.964574e+01	0.0	-6.180340e+00	1.902113e+01	0.0	-8.515590e+00	1.809654e+01	0.0	-1.071654e+01	1.688656e+01	0.0	-1.274848e+01	1.541026e+01	0.0	-1.457937e+01	1.369094e+01	0.0	-1.618034e+01	1.175570e+01	0.0	-1.752613e+01	9.635070e+00	0.0	-1.859553e+01	7.362490e+00	0.0	-1.937166e+01	4.973800e+00	0.0	-1.984229e+01	2.506660e+00	0.0	-2.000000e+01	0.000000e+00	0.0	-1.984229e+01	-2.506670e+00	0.0	-1.937166e+01	-4.973800e+00	0.0	-1.859553e+01	-7.362490e+00	0.0	-1.752613e+01	-9.635080e+00	0.0	-1.618034e+01	-1.175571e+01	0.0	-1.457937e+01	-1.369094e+01	0.0	-1.274848e+01	-1.541027e+01	0.0	-1.071653e+01	-1.688656e+01	0.0	-8.515580e+00	-1.809654e+01	0.0	-6.180340e+00	-1.902113e+01	0.0	-3.747620e+00	-1.964575e+01	0.0	-1.255810e+00	-1.996053e+01	0.0	1.255810e+00	-1.996053e+01	0.0	3.747630e+00	-1.964574e+01	0.0	6.180340e+00	-1.902113e+01	0.0	8.515590e+00	-1.809654e+01	0.0	1.071654e+01	-1.688656e+01	0.0	1.274848e+01	-1.541026e+01	0.0	1.457937e+01	-1.369094e+01	0.0	1.618034e+01	-1.175570e+01	0.0	1.752614e+01	-9.635070e+00	0.0	1.859553e+01	-7.362490e+00	0.0	1.937166e+01	-4.973790e+00	0.0	1.984229e+01	-2.506660e+00	0.0	2.000000e+01	0.000000e+00	0.0	6.108581e-02	-3.788879e-02	0.0	6.595930e-01	-4.999016e-02	0.0	4.255308e-01	6.011711e-02	0.0	6.897953e-01	4.674824e-02	0.0	3.792149e-01	-5.520973e-02	0.0	9.994688e-01	-7.269087e-04	0.0	9.985583e-01	-1.335996e-03	0.0	7.733892e-01	-4.482718e-02	0.0	6.892697e-01	-4.904628e-02	0.0	-8.069671e-04	4.869101e-03	0.0	7.462793e-01	-4.653142e-02	0.0	5.833497e-01	5.591072e-02	0.0	9.928489e-01	-3.867155e-03	0.0	9.899895e-01	-5.005748e-03	0.0	5.989309e-01	5.491122e-02	0.0	7.182070e-01	-4.790806e-02	0.0	-1.242138e-03	5.754319e-04	0.0	9.866531e-01	-6.375864e-03	0.0	9.828437e-01	-7.987025e-03	0.0	-8.965331e-04	-5.259011e-03	0.0	6.445173e-01	-5.040120e-02	0.0	8.242407e-01	-4.008131e-02	0.0	7.994091e-01	-4.271203e-02	0.0	3.484535e-01	5.885796e-02	0.0	8.477358e-01	-3.696789e-02	0.0	2.473336e-01	5.422855e-02	0.0	8.698282e-01	-3.351872e-02	0.0	1.068947e-02	1.527335e-02	0.0	8.904156e-01	-3.004383e-02	0.0	7.735476e-02	-4.169029e-02	0.0	9.094420e-01	-2.687000e-02	0.0	-1.453389e-03	-2.632310e-03	0.0	9.425586e-01	-2.131063e-02	0.0	9.268490e-01	-2.407766e-02	0.0	1.837338e-02	-2.230484e-02	0.0	4.257029e-01	-5.434911e-02	0.0	8.589665e-01	-3.526642e-02	0.0	9.564824e-01	-1.799839e-02	0.0	9.785491e-01	-9.850402e-03	0.0	9.685024e-01	-1.397863e-02	0.0	1.586129e-01	-5.257594e-02	0.0	9.001294e-01	-2.840526e-02	0.0	7.599648e-01	-4.572560e-02	0.0	9.971452e-01	-2.107925e-03	0.0	5.985225e-01	-5.143086e-02	0.0	4.413597e-01	-5.406187e-02	0.0	5.359481e-01	-5.248952e-02	0.0	4.728374e-01	-5.350885e-02	0.0	5.044016e-01	-5.298825e-02	0.0	4.886080e-01	-5.324370e-02	0.0	1.252862e-01	-4.934996e-02	0.0	2.824414e-02	-2.703347e-02	0.0	3.946185e-01	-5.492866e-02	0.0	4.658080e-02	-3.375379e-02	0.0	4.101158e-01	-5.464065e-02	0.0	3.189499e-01	-5.613052e-02	0.0	3.487819e-01	-5.573073e-02	0.0	3.389325e-02	-2.931845e-02	0.0	2.897977e-01	-5.635281e-02	0.0	9.349217e-01	-2.272687e-02	0.0	1.471497e-01	-5.161379e-02	0.0	1.950009e-01	-5.476612e-02	0.0	8.612664e-02	-4.344340e-02	0.0	1.049185e-01	-4.663069e-02	0.0	5.673634e-01	-5.199242e-02	0.0	1.704194e-01	-5.342289e-02	0.0	6.139740e-01	-5.111537e-02	0.0	8.803177e-01	-3.176305e-02	0.0	2.308129e-02	-2.469097e-02	0.0	9.952403e-01	-2.927507e-03	0.0	7.186273e-03	-1.507640e-02	0.0	1.867268e-02	1.915026e-02	0.0	9.183505e-01	-2.543768e-02	0.0	9.49
[...]
POINT_DATA 5233

SCALARS Conservative_1 float 1
LOOKUP_TABLE default
-2.934388e-01	-2.647249e-01	-2.623885e-01	-2.613314e-01	-2.606912e-01	-2.573044e-01	-2.463691e-01	-2.235161e-01	-1.843515e-01	-1.247149e-01	-4.288467e-02	5.915665e-02	1.709936e-01	2.573963e-01	2.643374e-01	1.883794e-01	9.759171e-02	4.224159e-02	1.952039e-02	1.611927e-02	2.743771e-02	5.143144e-02	8.498309e-02	1.245794e-01	1.669737e-01	2.103174e-01	2.540937e-01	2.950578e-01	3.240500e-01	3.292970e-01	3.073450e-01	2.696134e-01	2.329686e-01	2.062186e-01	1.882107e-01	1.744603e-01	1.622474e-01	1.512010e-01	1.415051e-01	1.329770e-01	1.250871e-01	1.175150e-01	1.101237e-01	1.029709e-01	9.611390e-02	8.970622e-02	8.389422e-02	7.885630e-02	7.475977e-02	7.175868e-02	6.998235e-02	6.952136e-02	7.043170e-02	7.274210e-02	7.649302e-02	8.165897e-02	8.824640e-02	9.619627e-02	1.054935e-01	1.160682e-01	1.278985e-01	1.408760e-01	1.549919e-01	1.701790e-01	1.863996e-01	2.033137e-01	2.204430e-01	2.372555e-01	2.541177e-01	2.723940e-01	2.945395e-01	3.224904e-01	3.550320e-01	3.844044e-01	3.973520e-01	3.842340e-01	3.484242e-01	3.052622e-01	2.695393e-01	2.444969e-01	2.231208e-01	1.981788e-01	1.684988e-01	1.364487e-01	1.034248e-01	6.923402e-02	3.342570e-02	-3.916584e-03	-4.287183e-02	-8.349504e-02	-1.262111e-01	-1.712667e-01	-2.197440e-01	-2.714800e-01	-3.281930e-01	-3.869764e-01	-4.409447e-01	-4.827677e-01	-5.034684e-01	-4.845385e-01	-4.399823e-01	-3.414194e-01	-1.892293e-01	-4.773715e-02	5.849832e-02	1.312449e-01	1.782674e-01	2.099858e-01	2.327200e-01	2.501181e-01	2.645833e-01	2.775928e-01	2.900876e-01	3.016267e-01	3.107203e-01	3.166494e-01	3.207607e-01	3.261641e-01	3.357226e-01	3.498317e-01	3.658467e-01	3.794182e-01	3.869797e-01	3.875935e-01	3.827394e-01	3.749337e-01	3.662648e-01	3.578261e-01	3.500470e-01	3.430527e-01	3.369506e-01	3.317972e-01	3.275809e-01	3.243638e-01	3.221905e-01	3.212459e-01	3.216885e-01	3.237470e-01	3.273893e-01	3.322170e-01	3.372505e-01	3.412800e-01	3.432599e-01	3.426111e-01	3.392183e-01	3.333130e-01	3.254557e-01	3.165533e-01	3.076348e-01	2.991786e-01	2.908449e-01	2.818373e-01	2.713464e-01	2.591218e-01	2.453762e-01	2.303345e-01	2.141310e-01	1.968695e-01	1.786711e-01	1.596502e-01	1.401135e-01	1.203163e-01	1.006239e-01	8.137127e-02	6.292797e-02	4.558862e-02	2.964003e-02	1.523636e-02	2.449220e-03	-8.838016e-03	-1.883254e-02	-2.788652e-02	-3.637839e-02	-4.478326e-02	-5.361242e-02	-6.327967e-02	-7.452009e-02	-8.800893e-02	-1.045558e-01	-1.247237e-01	-1.484356e-01	-1.745549e-01	-2.008505e-01	-2.242525e-01	-2.415976e-01	-2.500074e-01	-2.471417e-01	-2.313316e-01	-2.021837e-01	-1.617567e-01	-1.172316e-01	-8.261111e-02	-7.129108e-02	-8.567079e-02	-1.168740e-01	-1.531634e-01	-1.876777e-01	-2.176375e-01	-2.487317e-01	-2.843207e-01	-1.261661e-04	-1.254607e-04	-1.239040e-04	-1.226120e-04	-1.201959e-04	-1.155435e-04	-1.047241e-04	-8.849805e-05	-5.891526e-05	-1.771403e-05	5.451666e-05	1.529154e-04	2.540914e-04	3.011920e-04	2.990813e-04	2.773922e-04	2.449265e-04	2.102947e-04	1.736575e-04	1.381937e-04	1.059899e-04	8.214590e-05	9.174974e-05	4.447678e-05	-4.710375e-05	1.814823e-05	3.947065e-05	8.488191e-06	-2.650794e-05	-3.326617e-05	-3.805464e-05	-3.763916e-05	-3.263666e-05	-2.264107e-05	-9.165190e-06	5.740806e-06	1.244226e-05	-3.342457e-06	-3.885621e-05	-7.096850e-05	-9.813803e-05	-1.169765e-04	-1.271796e-04	-1.322989e-04	-1.333247e-04	-1.323577e-04	-1.313592e-04	-1.302779e-04	-1.273580e-04	-1.272857e-04	1.249908e-01	1.371537e-01	3.265942e-01	1.033480e-01	9.508560e-02	-2.918850e-01	-2.725418e-01	2.767654e-01	1.557406e-01	-3.096449e-01	2.120681e-01	2.264958e-01	-2.491738e-01	-2.391070e-01	2.111279e-01	1.786423e-01	-4.461618e-01	-2.215924e-01	-1.935926e-01	-4.496243e-01	1.293339e-01	2.556112e-01	3.117142e-01	3.262413e-01	1.749493e-01	3.171338e-01	1.003825e-01	1.172032e-01	4.423984e-02	1.849360e-01	2.671051e-02	-4.788408e-01	1.892449e-01	6.511165e-02	-1.298083e-01	7.860617e-02	1.365698e-01	1.513130e-01	-1.519048e-01	-2.222347e-02	3.544599e-01	2.977028e-02	2.411955e-01	-2.621004e-01	1.079423e-01	7.575159e-02	8.450279e-02	7.395498e-02	7.708293e-02	7.493376e-02	3.431291e-01	-4.989452e-02	8.829069e-02	5.889249e-02	8.278379e-02	1.344850e-01	1.124261e-01	-1.215762e-02	1.608320e-01	1.230524e-01	3.745320e-01	2.720841e-01	2.083608e-01	2.599047e-01	9.517699e-02	3.241520e-01	1.148207e-01	6.863591e-02	-8.904569e-02	-2.555662e-01	-2.642068e-01	1.856675e-01	3.619303e-02	2.061548e-01	-9.468873e-02	-1.996625e-01	2.148812e-01	2.068762e-01	8.950736e-02	1.924530e-01	3.054659e-01	3.003028e-01	2.380183e-01	1.013600e-01	1.458193e-01	9.233393e-02	-3.134766e-01	-1.724705e-01	1.031465e-01	2.951986e-01	-3.064440e-01	2.226084e-01	2.305338e-01	1.471494e-01	1.909794e-01	7.421270e-02	1.667923e-01	-3.955829e-01	-4.111910e-01	2.654036e-01	-4.771539e-01	2.288422e-01	2.868055e-01	2.624902e-01	3.669969e-01	3.315907e-01	-1.880350e-01	2.751695e-01	3.012396e-01	-1.783178e-01	-2.218825e-01	-1.002858e-01	2.922665e-01	3.193498e-01	3.335426e-01	-1.813679e-01	-1.375149e-01	3.087031e-01	-1.473852e-01	-2.295767e-01	-2.179396e-01	3.382949e-01	2.939652e-01	3.132121e-01	3.147402e-01	3.500759e-01	3.172301e-01	3.105722e-01	3.339397e-01	3.654385e-01	3.723376e-01	1.774434e-01	3.358578e-01	3.247049e-01	1.409099e-01	2.408096e-01	3.438341e-02	6.708554e-02	-1.564065e-02	6.782589e-03	-5.241513e-02	-3.446127e-02	-1.176170e-01	-7.303019e-02	-2.278390e-01	-1.592680e-01	-2.043978e-01	-6.216778e-02	-8.556083e-02	-2.534444e-02	-4.335010e-02	1.990258e-02	-5.007267e-03	8.490622e-02	5.017548e-02	1.594368e-01	1.221240e-01	2.539186e-01	1.947425e-01	3.298454e-01	3.204771e-01	3.578929e-01	3.426472e-01	2.763730e-01	3.710823e-01	1.559635e-01	2.463801e-01	2.538406e-01	-4.062076e-03	6.321670e-02	2.917937e-01	1.228990e-01	8.031231e-02	-9.283956e-02	2.091568e-01	6.541087e-02	3.217311e-01	3.001458e-01	3.133713e-01	3.548000e-01	-1.194820e-01	-1.047473e-01	3.144512e-01	-1.085182e-01	-1.280201e-01	3.213712e-01	3.307043e-01	-2.017167e-01	-2.710126e-01	-2.202851e-01	-2.518287e-01	1.219523e-01	2.412010e-02	-1.564077e-01	2.838172e-01	-3.635249e-01	-2.173122e-01	1.565765e-01	3.716878e-01	1.755051e-01	2.816921e-01	-2.872760e-01	-3.566459e-01	1.656564e-01	1.599887e-01	3.884095e-02	-2.558795e-01	2.221023e-01	1.500339e-01	2.793297e-01	-2.157731e-01	1.289543e-01	1.445862e-01	2.161027e-01	1.944126e-01	-4.145709e-01	2.373695e-01	-1.719967e-01	5.852355e-02	3.466651e-01	1.706583e-01	1.333400e-01	7.894962e-02	1.713127e-01	9.455111e-02	4.320834e-02	2.930413e-01	1.989861e-02	1.480048e-01	1.228898e-01	-5.073198e-02	3.433020e-01	1.050703e-01	3.412332e-01	-8.299523e-02	-1.282923e-01	3.154817e-01	2.682413e-01	-2.107140e-01	-9.640623e-02	-1.379166e-01	-2.081815e-01	-1.431815e-01	3.096213e-01	3.110568e-01	3.129648e-01	3.275849e-01	1.411963e-01	2.526947e-01	7.249813e-02	3.539952e-01	2.528710e-01	-1.827478e-01	-1.554873e-01	-1.115871e-01	3.230401e-01	-2.807997e-01	-2.057507e-01	-1.790438e-01	-4.559923e-02	-2.052106e-01	-2.993634e-01	-4.588793e-01	-4.451243e-01	-1.319370e-01	-2.886190e-01	1.143702e-01	-2.570231e-01	-2.404180e-01	3.194469e-01	8.983341e-02	-1.940347e-01	8.293865e-02	2.073653e-01	-2.304161e-01	-4.455014e-01	8.101778e-02	3.235580e-01	1.793140e-01	3.048966e-01	1.120774e-01	5.926921e-02	1.447178e-01	3.610536e-02	5.446137e-02	1.524092e-01	-5.564002e-02	1.222758e-01	-9.674288e-03	-1.636338e-01	3.349852e-01	2.203694e-01	2.504767e-01	-2.488527e-01	7.807694e-02	7.837251e-02	7.978396e-02	-9.326471e-02	8.882763e-02	8.429897e-02	1.187122e-01	1.571420e-02	8.831150e-02	1.323403e-01	3.532515e-01	2.198799e-01	9.475558e-02	1.125415e-01	-7.074640e-02	-1.225162e-01	1.822509e-01	1.975240e-01	2.546895e-01	2.972478e-01	1.002588e-01	1.062112e-01	4.945964e-02	8.232448e-02	-2.135356e-01	1.095192e-01	1.014667e-01	2.951945e-01	2.712585e-01	2.232029e-01	2.088494e-01	1.524726e-01	1.402378e-01	1.942130e-01	-4.087050e-01	-3.415708e-01	2.377429e-01	-1.300628e-01	2.590402e-01	2.768587e-01	2.858619e-01	2.953905e-01	-1.628195e-01	-1.986150e-01	-1.650842e-01	3.046908e-01	3.129586e-01	3.249333e-01	-1.466816e-01	-2.065263e-01	2.728446e-01	2.642122e-01	3.070894e-01	3.054896e-01	3.481693e-01	3.566085e-01	3.534571e-01	-1.208625e-02	3.860069e-02	5.403400e-02	-1.040428e-03	-4.134401e-02	-1.285300e-01	-7.115273e-02	-6.048462e-02	-3.194610e-02	-2.231370e-02	1.102814e-02	2.421623e-02	7.039452e-02	8.747540e-02	1.407106e-01	1.582705e-01	2.360048e-01	2.484609e-01	1.753917e-01	1.917858e-01	3.171776e-01	3.222069e-01	3.279974e-01	3.343945e-01	1.145081e-01	2.194394e-01	1.986557e-01	2.826858e-01	2.531454e-01	8.222607e-02	8.561080e-02	-1.222401e-01	1.752589e-01	3.097672e-01	2.937371e-01	3.076128e-01	3.055600e-01	3.236013e-01	3.200787e-01	-1.966015e-01	-1.822510e-01	1.191676e-01	1.260846e-01	-1.924791e-02	-3.817631e-01	1.796365e-01	-4.131314e-01	9.427555e-02	1.564489e-01	2.690325e-01	9.041304e-02	5.235698e-02	-1.450413e-01	-1.407011e-01	-1.886957e-01	-1.389146e-01	-1.558013e-01	-2.322015e-01	-2.559149e-01	-2.428893e-01	-2.687961e-01	-1.331360e-01	-3.847432e-01	1.815821e-01	7.104592e-02	-2.090569e-01	2.177649e-01	-2.708832e-01	-2.857045e-01	1.637946e-01	-3.576637e-01	1.743107e-01	-1.702769e-01	9.396950e-02	-2.470876e-01	1.239368e-01	1.200146e-01	1.539904e-01	-2.216355e-01	-2.085548e-01	-1.545049e-01	2.522111e-01	-1.923523e-01	1.229223e-01	-1.748732e-01	2.614723e-01	2.967046e-01	3.050091e-01	3.309072e-01	2.526667e-01	-2.501067e-01	-3.858288e-01	-2.739344e-01	7.934813e-02	-3.328664e-01	-2.410430e-03	1.572150e-01	-4.262146e-01	3.150855e-01	8.202354e-02	-9.646046e-02	-1.361466e-02	-4.832493e-02	-8.386349e-03	1.059333e-01	-1.443963e-01	-1.930309e-01	-1.055014e-01	-9.208468e-02	3.011921e-01	2.969283e-01	3.017018e-01	3.147870e-01	1.370680e-01	1.450413e-01	2.350813e-01	3.679461e-02	3.362139e-01	-1.675214e-01	-1.934917e-01	-7.278305e-02	-2.075744e-01	-3.228800e-01	-4.315993e-01	-6.059463e-02	-2.746394e-01	-2.776463e-01	-5.349223e-02	-1.913669e-01	2.033765e-01	8.341341e-02	3.116630e-01	1.805314e-01	1.489991e-01	7.211078e-02	5.589125e-02	1.030332e-01	1.317215e-01	4.655098e-02	4.493560e-02	9.378401e-02	5.055089e-02	-1.679068e-01	2.296737e-01	2.538629e-01	-2.329055e-01	8.169351e-02	8.245613e-02	8.952763e-02	8.588964e-02	-2.604782e-02	9.646348e-02	1.100759e-01	3.177933e-01	3.268350e-01	9.460749e-02	9.943888e-02	-9.884352e-02	-1.373290e-01	1.868529e-01	2.051109e-01	2.109053e-01	2.485965e-01	2.884281e-01	1.047549e-01	1.105114e-01	7.440297e-03	4.029341e-02	7.229392e-02	1.149876e-01	1.070234e-01	1.001229e-01	2.924035e-01	2.693258e-01	2.502250e-01	2.217130e-01	2.087350e-01	1.447139e-01	1.338782e-01	1.954298e-01	2.129611e-01	2.706773e-01	2.803965e-01	-1.797434e-01	2.897854e-01	2.984853e-01	3.060051e-01	3.148226e-01	-1.504635e-01	2.420044e-01	2.292913e-01	2.974956e-01	2.992198e-01	3.392196e-01	3.374643e-01	3.290799e-01	4.229057e-02	-1.352119e-01	-1.199663e-01	-7.982381e-02	-6.856879e-02	-5.823240e-02	-3.858194e-02	-2.874469e-02	-1.879618e-02	2.961224e-03	1.504234e-02	2.825874e-02	5.732786e-02	7.293338e-02	8.932659e-02	1.397130e-01	2.311204e-01	2.422919e-01	1.564320e-01	1.725556e-01	1.882779e-01	3.049989e-01	3.089995e-01	3.137495e-01	3.190495e-01	3.248213e-01	1.932354e-01	1.704187e-01	2.662576e-01	2.448607e-01	2.138280e-01	8.423124e-02	8.690855e-02	1.442359e-01	1.144133e-01	2.970787e-01	2.794071e-01	2.644491e-01	2.984231e-01	3.152578e-01	3.131284e-01	3.092836e-01	-1.869701e-01	-1.775247e-01	-1.650399e-01	1.166087e-01	1.230422e-01	1.298197e-01	1.820620e-01	1.689364e-01	-3.796396e-01	1.690680e-01	-1.845122e-01	-1.520608e-01	9.407081e-02	-3.496242e-01	-2.474697e-01	6.012105e-02	7.180635e-02	-6.499765e-02	-1.582958e-01	2.544086e-01	-3.575308e-01	8.577765e-03	-2.703840e-01	-1.773654e-01	-1.706839e-01	-2.563234e-01	1.235316e-01	-2.020461e-01	-2.583603e-01	-2.659257e-01	2.498657e-01	2.833655e-01	-1.328323e-01	9.392413e-02	1.434192e-01	8.547525e-02	1.477045e-01	-1.490547e-01	2.139388e-01	-1.783985e-01	-1.759114e-01	-4.792682e-03	3.183008e-01	2.883797e-01	-1.890386e-01	2.203277e-01	1.002564e-01	-2.070910e-01	-1.509756e-01	-2.262775e-01	-8.312520e-02	-1.671238e-01	1.567739e-01	-3.028284e-01	1.657346e-01	1.771798e-01	-2.015321e-01	-2.043321e-01	-2.365029e-01	-4.504194e-02	2.471615e-01	2.915877e-01	-3.062405e-01	-3.820115e-02	1.062846e-01	-9.946180e-02	2.948562e-01	2.893806e-01	2.883739e-01	1.400170e-01	1.475780e-01	-1.585431e-01	-8.977771e-02	-1.454479e-01	-3.329635e-01	-4.006864e-01	-9.820132e-02	-4.453954e-02	-1.701053e-01	1.986638e-01	1.496749e-01	1.235358e-01	8.011666e-02	6.480087e-02	9.096279e-02	1.183209e-01	5.455905e-02	5.031629e-02	5.217943e-02	3.685542e-02	-3.122329e-03	2.350214e-01	2.452802e-01	-2.156792e-01	8.461334e-02	8.470095e-02	9.002326e-02	8.723006e-02	7.771169e-02	6.662311e-02	2.929734e-01	2.964173e-01	9.838355e-02	-1.174634e-01	-1.466546e-01	1.905195e-01	2.131680e-01	2.004215e-01	2.377277e-01	2.717206e-01	1.030259e-01	1.081928e-01	-3.275251e-02	-6.012977e-04	3.126874e-02	6.171005e-02	1.191464e-01	1.114480e-01	1.046037e-01	9.879784e-02	2.642765e-01	2.464213e-01	2.311935e-01	2.184625e-01	2.064161e-01	1.278420e-01	1.373065e-01	1.945134e-01	2.648970e-01	-1.662665e-01	-1.730356e-01	2.743716e-01	2.831108e-01	2.911979e-01	2.980079e-01	3.028631e-01	2.060463e-01	1.881267e-01	2.893259e-01	2.909924e-01	3.208279e-01	3.197056e-01	3.124058e-01	2.994636e-01	-1.379643e-01	-1.250524e-01	-1.121548e-01	-8.747245e-02	-7.597677e-02	-6.532645e-02	-5.463265e-02	-3.576999e-02	-2.465809e-02	-1.524336e-02	6.930170e-03	1.890058e-02	3.227098e-02	4.555757e-02	6.056516e-02	7.491219e-02	9.137565e-02	2.354358e-01	2.268458e-01	1.382080e-01	1.555266e-01	1.696137e-01	1.865301e-01	2.934001e-01	2.964133e-01	3.001585e-01	3.044903e-01	3.090145e-01	3.141083e-01	1.670203e-01	1.432011e-01	2.316427e-01	2.058332e-01	1.780175e-01	8.591109e-02	8.761091e-02	9.070804e-02	1.158303e-01	8.436981e-02	4.925660e-02	2.824709e-01	2.643263e-01	2.475174e-01	2.331645e-01	3.051862e-01	3.050412e-01	3.022907e-01	2.986591e-01	-1.502455e-01	-1.698865e-01	-1.612803e-01	1.138161e-01	1.196051e-01	1.260562e-01	1.325128e-01	1.823342e-01	1.704222e-01	1.587075e-01	-1.940370e-01	-1.793076e-01	-7.435687e-02	-2.595656e-01	-2.252631e-01	1.713629e-01	1.554963e-01	-2.553667e-01	-1.544520e-01	-3.101384e-01	-9.956225e-02	2.537333e-01	3.023386e-01	-5.689500e-02	-1.950634e-01	-3.223316e-01	-4.038072e-01	-4.154053e-01	-3.783193e-01	-3.325826e-01	-2.160620e-01	2.843384e-01	-1.036825e-01	-1.871610e-01	5.343417e-02	2.214950e-01	9.297429e-02	-1.671183e-01	-1.391372e-01	-1.612134e-01	2.144359e-01	2.332210e-01	1.141207e-01	4.491870e-03	2.472934e-01	9.491088e-02	2.892039e-01	-1.594143e-01	1.294132e-01	-2.351160e-01	-1.530921e-01	-3.978575e-01	-2.776750e-01	-2.622750e-01	5.660365e-02	-6.961196e-02	-3.512046e-01	-1.473555e-02	-2.836330e-01	-1.660486e-01	-2.402455e-01	-2.618529e-01	-2.662317e-01	-1.634578e-01	1.305946e-01	1.393108e-01	-1.545812e-01	1.942494e-01	-1.650364e-01	-1.710768e-01	1.522641e-01	-2.830394e-01	2.828777e-01	2.799687e-01	2.806318e-01	1.371441e-01	-1.017571e-01	-1.479813e-01	-3.696568e-01	-1.313872e-01	1.222147e-01	1.033597e-01	8.354610e-02	6.888082e-02	1.047460e-01	7.824627e-02	5.807320e-02	5.227353e-02	5.064033e-02	5.177687e-02	-9.744229e-03	-4.248928e-02	2.194780e-01	-1.995031e-01	8.664799e-02	8.636141e-02	8.990162e-02	8.800063e-02	4.210258e-02	2.032223e-02	2.659348e-01	2.701198e-01	-1.298597e-01	-1.523805e-01	1.944601e-01	1.898988e-01	2.276496e-01	2.489206e-01	1.029694e-01	-3.941373e-02	-8.542286e-03	2.160984e-02	5.035518e-02	1.219367e-01	1.145720e-01	1.077773e-01	1.020287e-01	9.746486e-02	2.417997e-01	2.256279e-01	2.151571e-01	2.024816e-01	1.929455e-01	-1.578142e-01	-1.616780e-01	-1.647590e-01	2.595578e-01	2.666604e-01	2.770007e-01	2.827408e-01	2.909661e-01	1.828657e-01	1.633901e-01	2.796173e-01	2.819656e-01	3.043435e-01	2.950145e-01	2.823435e-01	-1.275949e-01	-1.167521e-01	-1.049093e-01	-9.360723e-02	-8.244734e-02	-7.158430e-02	-6.126883e-02	-4.652306e-02	-3.183890e-02	-1.627896e-02	2.882369e-02	5.536540e-02	8.406267e-02	1.445247e-01	1.732916e-01	2.822103e-01	2.859262e-01	2.873004e-01	2.924002e-01	2.937781e-01	2.978397e-01	3.013069e-01	1.409157e-01	1.163767e-01	1.939412e-01	1.733631e-01	1.480267e-01	8.686855e-02	8.928970e-02	8.922387e-02	5.756521e-02	2.273142e-02	2.661200e-01	2.480503e-01	2.302122e-01	2.136086e-01	1.986922e-01	2.932356e-01	2.969266e-01	2.942347e-01	2.910479e-01	-1.553310e-01	-1.474112e-01	1.128198e-01	1.241886e-01	1.807359e-01	1.709013e-01	1.593082e-01	1.496636e-01	-2.572980e-01	-2.205749e-01	-2.404449e-01	-3.461346e-01	-2.651451e-01	-1.174957e-01	-1.589526e-01	-2.609133e-01	-1.560042e-01	-2.191847e-01	-1.557963e-01	-3.403392e-01	-1.008871e-01	-2.136840e-01	2.782801e-01	-2.550799e-01	-1.097102e-01	-2.250241e-01	-1.864865e-01	-9.488991e-02	9.180997e-02	-1.549236e-01	1.278704e-01	2.378843e-02	3.937364e-02	1.156453e-01	1.429740e-01	2.242013e-01	-3.086715e-01	9.059961e-02	9.035472e-02	1.136110e-01	2.810270e-01	-1.530593e-01	-1.318825e-01	-2.949907e-01	-7.088820e-02	-7.014613e-02	-2.467286e-01	-1.530350e-01	-3.988516e-01	-3.249844e-01	-1.718852e-01	1.745473e-01	2.268269e-01	2.459404e-01	-1.648988e-01	-2.570071e-01	-1.863379e-01	-3.768571e-01	-2.680645e-01	-7.367909e-02	-2.883544e-01	-2.652489e-01	1.910493e-01	-1.290884e-01	-1.553132e-01	-1.527875e-01	2.095082e-01	2.728869e-01	2.705602e-01	1.548115e-01	-1.484849e-01	-1.874930e-01	-1.588329e-01	9.227055e-02	6.488639e-02	6.506746e-02	4.996915e-02	4.403697e-02	-4.419577e-02	-1.857473e-01	8.770935e-02	4.745049e-03	-1.829573e-02	2.385778e-01	-1.377577e-01	1.946871e-01	2.006769e-01	1.914911e-01	2.244305e-01	9.788672e-02	-4.521250e-02	-1.485556e-02	1.502981e-02	3.765167e-02	1.132503e-01	1.022646e-01	9.543648e-02	2.031568e-01	1.833726e-01	-1.541769e-01	-1.554467e-01	2.632399e-01	2.772077e-01	1.403115e-01	2.714369e-01	2.647035e-01	-2.619450e-02	-1.134630e-01	-9.276663e-02	-7.263054e-02	-5.560259e-02	-4.079227e-02	-8.909022e-03	1.255635e-02	3.656398e-02	6.233966e-02	8.976312e-02	1.182123e-01	1.461688e-01	1.705788e-01	2.746360e-01	2.791188e-01	2.814426e-01	2.868849e-01	2.844220e-01	1.158290e-01	9.097141e-02	1.820357e-01	1.523839e-01	1.199516e-01	8.722438e-02	8.834982e-02	6.449898e-02	3.433215e-02	4.090159e-04	-3.411064e-02	2.477803e-01	2.297928e-01	2.116752e-01	1.939105e-01	1.760329e-01	1.644803e-01	2.839050e-01	2.817121e-01	-1.497462e-01	-1.428112e-01	1.059841e-01	1.266951e-01	1.393251e-01	1.638784e-01	1.450621e-01	-1.706920e-01	-2.540553e-01	-2.493669e-01	-1.931595e-01	-7.819358e-03	-1.625240e-01	-2.501300e-01	-2.102745e-01	-2.478484e-01	-1.788007e-01	-2.268035e-01	-1.943098e-01	-1.475487e-01	-2.700643e-01	-3.134581e-01	-1.489173e-01	1.733681e-01	2.676182e-01	-1.808740e-01	3.836580e-02	-1.263751e-01	1.296160e-01	-1.146703e-01	-2.259663e-01	9.256040e-02	-6.868489e-03	1.180895e-01	9.404109e-02	-1.084228e-01	-1.266458e-01	-1.018896e-01	-7.676317e-02	-2.454710e-01	-1.529426e-01	-1.568464e-01	-1.471292e-01	2.590481e-01	1.679222e-01	1.417996e-01	5.483439e-02	-2.158639e-01	-2.256200e-01	-3.640519e-01	-8.877815e-02	-1.483394e-01	-2.553266e-01	-1.432426e-01	-2.410460e-01	-2.024392e-01	8.976929e-02	-3.008874e-01	7.329400e-02	9.816177e-02	-1.506543e-01	-3.162086e-01	-6.820239e-02	-1.588803e-01	1.575360e-01	-3.498129e-01	-2.607336e-01	2.619744e-02	-2.858442e-01	-2.678179e-01	2.050270e-01	-1.532098e-01	-1.449536e-01	1.871595e-01	2.629434e-01	1.461639e-01	-1.799853e-01	-2.111131e-01	6.837159e-02	4.990520e-02	2.764370e-02	1.206210e-02	-1.743381e-01	8.899393e-02	-2.618265e-02	-4.702907e-02	9.796154e-02	1.436308e-01	1.172600e-01	1.799580e-01	1.330073e-01	1.731607e-01	2.006108e-01	-4.816550e-02	1.171435e-01	1.057728e-01	2.072807e-01	1.964845e-01	1.289008e-01	-1.494897e-01	2.227991e-01	2.403521e-01	2.470708e-01	-1.172059e-01	-1.003066e-01	-3.526409e-02	-8.200320e-02	-6.484762e-02	-4.954324e-02	-1.989439e-02	-1.406932e-03	2.008775e-02	4.352520e-02	6.843598e-02	9.466480e-02	1.212954e-01	2.579766e-01	2.593061e-01	2.618039e-01	2.643166e-01	2.672018e-01	2.602197e-01	9.349055e-02	6.722053e-02	1.683105e-01	9.212912e-02	8.758296e-02	8.780463e-02	4.202844e-02	1.439308e-02	-1.720065e-02	-4.943190e-02	-8.141906e-02	2.280578e-01	2.091244e-01	1.908620e-01	1.725129e-01	1.534634e