# vtk DataFile Version 3.0
vtk output
ASCII
DATASET UNSTRUCTURED_GRID
POINTS 200 float
9.997500e-01	-3.633623e-05	0.0	9.990000e-01	-1.457123e-04	0.0	9.977600e-01	-3.301309e-04	0.0	9.960200e-01	-6.040203e-04	0.0	9.937800e-01	-9.976133e-04	0.0	9.910500e-01	-1.560110e-03	0.0	9.878400e-01	-2.354109e-03	0.0	9.841300e-01	-3.445030e-03	0.0	9.799500e-01	-4.849717e-03	0.0	9.752800e-01	-6.538158e-03	0.0	9.701500e-01	-8.392536e-03	0.0	9.645400e-01	-1.026304e-02	0.0	9.584700e-01	-1.198184e-02	0.0	9.519400e-01	-1.343625e-02	0.0	9.449600e-01	-1.459385e-02	0.0	9.375400e-01	-1.550837e-02	0.0	9.296900e-01	-1.629172e-02	0.0	9.214000e-01	-1.707371e-02	0.0	9.127000e-01	-1.795852e-02	0.0	9.035800e-01	-1.900987e-02	0.0	8.940600e-01	-2.023906e-02	0.0	8.841500e-01	-2.161761e-02	0.0	8.738500e-01	-2.309312e-02	0.0	8.631800e-01	-2.460052e-02	0.0	8.521600e-01	-2.607776e-02	0.0	8.407700e-01	-2.747898e-02	0.0	8.290500e-01	-2.876540e-02	0.0	8.170100e-01	-2.991790e-02	0.0	8.046400e-01	-3.093251e-02	0.0	7.919700e-01	-3.181244e-02	0.0	7.790100e-01	-3.257024e-02	0.0	7.657800e-01	-3.322200e-02	0.0	7.522800e-01	-3.378603e-02	0.0	7.385200e-01	-3.427912e-02	0.0	7.245300e-01	-3.471514e-02	0.0	7.103200e-01	-3.510581e-02	0.0	6.958900e-01	-3.545994e-02	0.0	6.812700e-01	-3.578289e-02	0.0	6.664700e-01	-3.607854e-02	0.0	6.515000e-01	-3.634949e-02	0.0	6.363800e-01	-3.659765e-02	0.0	6.211300e-01	-3.682517e-02	0.0	6.057600e-01	-3.703503e-02	0.0	5.902800e-01	-3.723105e-02	0.0	5.747100e-01	-3.741792e-02	0.0	5.590600e-01	-3.760126e-02	0.0	5.433600e-01	-3.778698e-02	0.0	5.276100e-01	-3.798150e-02	0.0	5.118400e-01	-3.819057e-02	0.0	4.960500e-01	-3.841963e-02	0.0	4.802700e-01	-3.867260e-02	0.0	4.645100e-01	-3.895228e-02	0.0	4.487800e-01	-3.925989e-02	0.0	4.331100e-01	-3.959452e-02	0.0	4.175000e-01	-3.995414e-02	0.0	4.019700e-01	-4.033463e-02	0.0	3.865400e-01	-4.073032e-02	0.0	3.712300e-01	-4.113423e-02	0.0	3.560400e-01	-4.153883e-02	0.0	3.409900e-01	-4.193527e-02	0.0	3.261100e-01	-4.231396e-02	0.0	3.114000e-01	-4.266578e-02	0.0	2.968700e-01	-4.298132e-02	0.0	2.825500e-01	-4.325094e-02	0.0	2.684500e-01	-4.346584e-02	0.0	2.545700e-01	-4.361774e-02	0.0	2.409400e-01	-4.369862e-02	0.0	2.275700e-01	-4.370141e-02	0.0	2.144700e-01	-4.361968e-02	0.0	2.016600e-01	-4.344784e-02	0.0	1.891400e-01	-4.318078e-02	0.0	1.769300e-01	-4.281440e-02	0.0	1.650400e-01	-4.234518e-02	0.0	1.534900e-01	-4.177081e-02	0.0	1.422900e-01	-4.108949e-02	0.0	1.314400e-01	-4.029935e-02	0.0	1.209500e-01	-3.939971e-02	0.0	1.108500e-01	-3.839279e-02	0.0	1.011300e-01	-3.727800e-02	0.0	9.181000e-02	-3.605858e-02	0.0	8.290000e-02	-3.473791e-02	0.0	7.440000e-02	-3.331870e-02	0.0	6.633000e-02	-3.180795e-02	0.0	5.869000e-02	-3.021034e-02	0.0	5.149000e-02	-2.853334e-02	0.0	4.474000e-02	-2.678569e-02	0.0	3.844000e-02	-2.497443e-02	0.0	3.260000e-02	-2.310994e-02	0.0	2.723000e-02	-2.120379e-02	0.0	2.232000e-02	-1.926031e-02	0.0	1.790000e-02	-1.729977e-02	0.0	1.395000e-02	-1.532100e-02	0.0	1.049000e-02	-1.333980e-02	0.0	7.520000e-03	-1.136106e-02	0.0	5.040000e-03	-9.385473e-03	0.0	3.050000e-03	-7.406595e-03	0.0	1.560000e-03	-5.420181e-03	0.0	5.600000e-04	-3.375718e-03	0.0	6.000000e-05	-1.192711e-03	0.0	0.000000e+00	0.000000e+00	0.0	6.000000e-05	1.149995e-03	0.0	5.600000e-04	3.155040e-03	0.0	1.560000e-03	4.940641e-03	0.0	3.050000e-03	6.604490e-03	0.0	5.040000e-03	8.205409e-03	0.0	7.520000e-03	9.759381e-03	0.0	1.049000e-02	1.128238e-02	0.0	1.395000e-02	1.278341e-02	0.0	1.790000e-02	1.426737e-02	0.0	2.232000e-02	1.573033e-02	0.0	2.723000e-02	1.718044e-02	0.0	3.260000e-02	1.860927e-02	0.0	3.844000e-02	2.001970e-02	0.0	4.474000e-02	2.140864e-02	0.0	5.149000e-02	2.277324e-02	0.0	5.869000e-02	2.411262e-02	0.0	6.633000e-02	2.542398e-02	0.0	7.440000e-02	2.670480e-02	0.0	8.290000e-02	2.795431e-02	0.0	9.181000e-02	2.916897e-02	0.0	1.011300e-01	3.034839e-02	0.0	1.108500e-01	3.149096e-02	0.0	1.209500e-01	3.259430e-02	0.0	1.314400e-01	3.365952e-02	0.0	1.422900e-01	3.468375e-02	0.0	1.534900e-01	3.566653e-02	0.0	1.650400e-01	3.660837e-02	0.0	1.769300e-01	3.750893e-02	0.0	1.891400e-01	3.836731e-02	0.0	2.016600e-01	3.918349e-02	0.0	2.144700e-01	3.995687e-02	0.0	2.275700e-01	4.068806e-02	0.0	2.409400e-01	4.137639e-02	0.0	2.545700e-01	4.202167e-02	0.0	2.684500e-01	4.262347e-02	0.0	2.825500e-01	4.318036e-02	0.0	2.968700e-01	4.369188e-02	0.0	3.114000e-01	4.415680e-02	0.0	3.261100e-01	4.457294e-02	0.0	3.409900e-01	4.493850e-02	0.0	3.560400e-01	4.525145e-02	0.0	3.712300e-01	4.550878e-02	0.0	3.865400e-01	4.570756e-02	0.0	4.019700e-01	4.584481e-02	0.0	4.175000e-01	4.591711e-02	0.0	4.331100e-01	4.592096e-02	0.0	4.487800e-01	4.585289e-02	0.0	4.645100e-01	4.570927e-02	0.0	4.802700e-01	4.548668e-02	0.0	4.960500e-01	4.518163e-02	0.0	5.118400e-01	4.479061e-02	0.0	5.276100e-01	4.431078e-02	0.0	5.433600e-01	4.373869e-02	0.0	5.590600e-01	4.307217e-02	0.0	5.747100e-01	4.230827e-02	0.0	5.902800e-01	4.144610e-02	0.0	6.057600e-01	4.048471e-02	0.0	6.211300e-01	3.942499e-02	0.0	6.363800e-01	3.826877e-02	0.0	6.515000e-01	3.701967e-02	0.0	6.664700e-01	3.568437e-02	0.0	6.812700e-01	3.427208e-02	0.0	6.958900e-01	3.279352e-02	0.0	7.103200e-01	3.126138e-02	0.0	7.245300e-01	2.969207e-02	0.0	7.385200e-01	2.809937e-02	0.0	7.522800e-01	2.649770e-02	0.0	7.657800e-01	2.490221e-02	0.0	7.790100e-01	2.332307e-02	0.0	7.919700e-01	2.176575e-02	0.0	8.046400e-01	2.023426e-02	0.0	8.170100e-01	1.872770e-02	0.0	8.290500e-01	1.724454e-02	0.0	8.407700e-01	1.577619e-02	0.0	8.521600e-01	1.431507e-02	0.0	8.631800e-01	1.285699e-02	0.0	8.738500e-01	1.138986e-02	0.0	8.841500e-01	9.907696e-03	0.0	8.940600e-01	8.407782e-03	0.0	9.035800e-01	6.891843e-03	0.0	9.127000e-01	5.377076e-03	0.0	9.214000e-01	3.903917e-03	0.0	9.296900e-01	2.533618e-03	0.0	9.375400e-01	1.355847e-03	0.0	9.449600e-01	4.595527e-04	0.0	9.519400e-01	-8.430395e-05	0.0	9.584700e-01	-2.562578e-04	0.0	9.645400e-01	-1.068244e-04	0.0	9.701500e-01	2.500386e-04	0.0	9.752800e-01	6.665757e-04	0.0	9.799500e-01	1.009759e-03	0.0	9.841300e-01	1.192053e-03	0.0	9.878400e-01	1.192894e-03	0.0	9.910500e-01	1.045326e-03	0.0	9.937800e-01	8.103430e-04	0.0	9.960200e-01	5.519970e-04	0.0	9.977600e-01	3.204730e-04	0.0	9.990000e-01	1.448304e-04	0.0	9.997500e-01	3.632226e-05	0.0	1.000000e+00	0.000000e+00	0.0	
CELLS 200	600
2	199	0	2	0	1	2	1	2	2	2	3	2	3	4	2	4	5	2	5	6	2	6	7	2	7	8	2	8	9	2	9	10	2	10	11	2	11	12	2	12	13	2	13	14	2	14	15	2	15	16	2	16	17	2	17	18	2	18	19	2	19	20	2	20	21	2	21	22	2	22	23	2	23	24	2	24	25	2	25	26	2	26	27	2	27	28	2	28	29	2	29	30	2	30	31	2	31	32	2	32	33	2	33	34	2	34	35	2	35	36	2	36	37	2	37	38	2	38	39	2	39	40	2	40	41	2	41	42	2	42	43	2	43	44	2	44	45	2	45	46	2	46	47	2	47	48	2	48	49	2	49	50	2	50	51	2	51	52	2	52	53	2	53	54	2	54	55	2	55	56	2	56	57	2	57	58	2	58	59	2	59	60	2	60	61	2	61	62	2	62	63	2	63	64	2	64	65	2	65	66	2	66	67	2	67	68	2	68	69	2	69	70	2	70	71	2	71	72	2	72	73	2	73	74	2	74	75	2	75	76	2	76	77	2	77	78	2	78	79	2	79	80	2	80	81	2	81	82	2	82	83	2	83	84	2	84	85	2	85	86	2	86	87	2	87	88	2	88	89	2	89	90	2	90	91	2	91	92	2	92	93	2	93	94	2	94	95	2	95	96	2	96	97	2	97	98	2	98	99	2	99	100	2	100	101	2	101	102	2	102	103	2	103	104	2	104	105	2	105	106	2	106	107	2	107	108	2	108	109	2	109	110	2	110	111	2	111	112	2	112	113	2	113	114	2	114	115	2	115	116	2	116	117	2	117	118	2	118	119	2	119	120	2	120	121	2	121	122	2	122	123	2	123	124	2	124	125	2	125	126	2	126	127	2	127	128	2	128	129	2	129	130	2	130	131	2	131	132	2	132	133	2	133	134	2	134	135	2	135	136	2	136	137	2	137	138	2	138	139	2	139	140	2	140	141	2	141	142	2	142	143	2	143	144	2	144	145	2	145	146	2	146	147	2	147	148	2	148	149	2	149	150	2	150	151	2	151	152	2	152	153	2	153	154	2	154	155	2	155	156	2	156	157	2	157	158	2	158	159	2	159	160	2	160	161	2	161	162	2	162	163	2	163	164	2	164	165	2	165	166	2	166	167	2	167	168	2	168	169	2	169	170	2	170	171	2	171	172	2	172	173	2	173	174	2	174	175	2	175	176	2	176	177	2	177	178	2	178	179	2	179	180	2	180	181	2	181	182	2	182	183	2	183	184	2	184	185	2	185	186	2	186	187	2	187	188	2	188	189	2	189	190	2	190	191	2	191	192	2	192	193	2	193	194	2	194	195	2	195	196	2	196	197	2	197	198	2	198	199	
CELL_TYPES 200
3	3	3	3	3	3	3	3	3	3	3	3	3	3	3	3	3	3	3	3	3	3	3	3	3	3	3	3	3	3	3	3	3	3	3	3	3	3	3	3	3	3	3	3	3	3	3	3	3	3	3	3	3	3	3	3	3	3	3	3	3	3	3	3	3	3	3	3	3	3	3	3	3	3	3	3	3	3	3	3	3	3	3	3	3	3	3	3	3	3	3	3	3	3	3	3	3	3	3	3	3	3	3	3	3	3	3	3	3	3	3	3	3	3	3	3	3	3	3	3	3	3	3	3	3	3	3	3	3	3	3	3	3	3	3	3	3	3	3	3	3	3	3	3	3	3	3	3	3	3	3	3	3	3	3	3	3	3	3	3	3	3	3	3	3	3	3	3	3	3	3	3	3	3	3	3	3	3	3	3	3	3	3	3	3	3	3	3	3	3	3	3	3	3	3	3	3	3	3	3	
POINT_DATA 200

SCALARS Conservative_1 float 1
LOOKUP_TABLE default
-2.934388e-01	-2.647249e-01	-2.623885e-01	-2.613314e-01	-2.606912e-01	-2.573044e-01	-2.463691e-01	-2.235161e-01	-1.843515e-01	-1.247149e-01	-4.288467e-02	5.915665e-02	1.709936e-01	2.573963e-01	2.643374e-01	1.883794e-01	9.759171e-02	4.224159e-02	1.952039e-02	1.611927e-02	2.743771e-02	5.143144e-02	8.498309e-02	1.245794e-01	1.669737e-01	2.103174e-01	2.540937e-01	2.950578e-01	3.240500e-01	3.292970e-01	3.073450e-01	2.696134e-01	2.329686e-01	2.062186e-01	1.882107e-01	1.744603e-01	1.622474e-01	1.512010e-01	1.415051e-01	1.329770e-01	1.250871e-01	1.175150e-01	1.101237e-01	1.029709e-01	9.611390e-02	8.970622e-02	8.389422e-02	7.885630e-02	7.475977e-02	7.175868e-02	6.998235e-02	6.952136e-02	7.043170e-02	7.274210e-02	7.649302e-02	8.165897e-02	8.824640e-02	9.619627e-02	1.054935e-01	1.160682e-01	1.278985e-01	1.408760e-01	1.549919e-01	1.701790e-01	1.863996e-01	2.033137e-01	2.204430e-01	2.372555e-01	2.541177e-01	2.723940e-01	2.945395e-01	3.224904e-01	3.550320e-01	3.844044e-01	3.973520e-01	3.842340e-01	3.484242e-01	3.052622e-01	2.695393e-01	2.444969e-01	2.231208e-01	1.981788e-01	1.684988e-01	1.364487e-01	1.034248e-01	6.923402e-02	3.342570e-02	-3.916584e-03	-4.287183e-02	-8.349504e-02	-1.262111e-01	-1.712667e-01	-2.197440e-01	-2.714800e-01	-3.281930e-01	-3.869764e-01	-4.409447e-01	-4.827677e-01	-5.034684e-01	-4.845385e-01	-4.399823e-01	-3.414194e-01	-1.892293e-01	-4.773715e-02	5.849832e-02	1.312449e-01	1.782674e-01	2.099858e-01	2.327200e-01	2.501181e-01	2.645833e-01	2.775928e-01	2.900876e-01	3.016267e-01	3.107203e-01	3.166494e-01	3.207607e-01	3.261641e-01	3.357226e-01	3.498317e-01	3.658467e-01	3.794182e-01	3.869797e-01	3.875935e-01	3.827394e-01	3.749337e-01	3.662648e-01	3.578261e-01	3.500470e-01	3.430527e-01	3.369506e-01	3.317972e-01	3.275809e-01	3.243638e-01	3.221905e-01	3.212459e-01	3.216885e-01	3.237470e-01	3.273893e-01	3.322170e-01	3.372505e-01	3.412800e-01	3.432599e-01	3.426111e-01	3.392183e-01	3.333130e-01	3.254557e-01	3.165533e-01	3.076348e-01	2.991786e-01	2.908449e-01	2.818373e-01	2.713464e-01	2.591218e-01	2.453762e-01	2.303345e-01	2.141310e-01	1.968695e-01	1.786711e-01	1.596502e-01	1.401135e-01	1.203163e-01	1.006239e-01	8.137127e-02	6.292797e-02	4.558862e-02	2.964003e-02	1.523636e-02	2.449220e-03	-8.838016e-03	-1.883254e-02	-2.788652e-02	-3.637839e-02	-4.478326e-02	-5.361242e-02	-6.327967e-02	-7.452009e-02	-8.800893e-02	-1.045558e-01	-1.247237e-01	-1.484356e-01	-1.745549e-01	-2.008505e-01	-2.242525e-01	-2.415976e-01	-2.500074e-01	-2.471417e-01	-2.313316e-01	-2.021837e-01	-1.617567e-01	-1.172316e-01	-8.261111e-02	-7.129108e-02	-8.567079e-02	-1.168740e-01	-1.531634e-01	-1.876777e-01	-2.176375e-01	-2.487317e-01	-2.843207e-01	
SCALARS Conservative_2 float 1
LOOKUP_TABLE default
3.584424e-01	3.368034e-01	3.467402e-01	3.525106e-01	3.569586e-01	3.576460e-01	3.480643e-01	3.221123e-01	2.740969e-01	1.993088e-01	9.698709e-02	-2.677487e-02	-1.569326e-01	-2.580807e-01	-2.758427e-01	-2.007712e-01	-1.022955e-01	-3.938275e-02	-1.199650e-02	-6.209097e-03	-1.744131e-02	-4.343467e-02	-8.034756e-02	-1.238724e-01	-1.700881e-01	-2.165725e-01	-2.625084e-01	-3.048212e-01	-3.348554e-01	-3.411436e-01	-3.199456e-01	-2.822816e-01	-2.451513e-01	-2.177836e-01	-1.991935e-01	-1.848706e-01	-1.720389e-01	-1.603622e-01	-1.500608e-01	-1.409614e-01	-1.325028e-01	-1.243476e-01	-1.163484e-01	-1.085730e-01	-1.010839e-01	-9.405777e-02	-8.765635e-02	-8.209083e-02	-7.754893e-02	-7.421256e-02	-7.223083e-02	-7.171288e-02	-7.272149e-02	-7.529032e-02	-7.945668e-02	-8.518855e-02	-9.247645e-02	-1.012452e-01	-1.114562e-01	-1.230175e-01	-1.358775e-01	-1.499039e-01	-1.650493e-01	-1.812200e-01	-1.983383e-01	-2.160492e-01	-2.338352e-01	-2.511368e-01	-2.682467e-01	-2.864737e-01	-3.081349e-01	-3.350715e-01	-3.660959e-01	-3.937688e-01	-4.052791e-01	-3.911925e-01	-3.546176e-01	-3.102898e-01	-2.725898e-01	-2.447401e-01	-2.198465e-01	-1.906262e-01	-1.556921e-01	-1.172305e-01	-7.650531e-02	-3.313496e-02	1.358865e-02	6.387759e-02	1.182157e-01	1.771814e-01	2.419606e-01	3.137052e-01	3.952418e-01	4.877343e-01	5.957335e-01	7.163188e-01	8.442192e-01	9.513048e-01	9.990672e-01	9.914832e-01	9.306654e-01	7.792090e-01	5.182952e-01	2.887516e-01	1.126124e-01	-8.642289e-03	-8.964589e-02	-1.457167e-01	-1.861250e-01	-2.167002e-01	-2.412203e-01	-2.620315e-01	-2.806931e-01	-2.971942e-01	-3.103930e-01	-3.197971e-01	-3.268597e-01	-3.347005e-01	-3.461807e-01	-3.617661e-01	-3.789518e-01	-3.935679e-01	-4.021753e-01	-4.038660e-01	-4.000786e-01	-3.932724e-01	-3.854966e-01	-3.778455e-01	-3.707481e-01	-3.643431e-01	-3.587450e-01	-3.540127e-01	-3.501530e-01	-3.472271e-01	-3.453018e-01	-3.445618e-01	-3.451832e-01	-3.473918e-01	-3.511647e-01	-3.560992e-01	-3.612228e-01	-3.653294e-01	-3.673755e-01	-3.667919e-01	-3.634662e-01	-3.576305e-01	-3.498290e-01	-3.409478e-01	-3.319860e-01	-3.234064e-01	-3.148761e-01	-3.055762e-01	-2.946835e-01	-2.819226e-01	-2.674913e-01	-2.515943e-01	-2.343425e-01	-2.158214e-01	-1.961245e-01	-1.753800e-01	-1.538787e-01	-1.319125e-01	-1.098702e-01	-8.815182e-02	-6.717936e-02	-4.732612e-02	-2.893690e-02	-1.222922e-02	2.702409e-03	1.596940e-02	2.781622e-02	3.865570e-02	4.895417e-02	5.930153e-02	7.032603e-02	8.259768e-02	9.704536e-02	1.146004e-01	1.363605e-01	1.631418e-01	1.949078e-01	2.302019e-01	2.659836e-01	2.979152e-01	3.213404e-01	3.319227e-01	3.261860e-01	3.018811e-01	2.589697e-01	2.011816e-01	1.393217e-01	9.237074e-02	7.686094e-02	9.481733e-02	1.346670e-01	1.810995e-01	2.230942e-01	2.519796e-01	2.701110e-01	2.692301e-01	
SCALARS Conservative_3 float 1
LOOKUP_TABLE default
-9.796232e-02	-9.223482e-02	-8.521700e-02	-9.023188e-02	-1.035173e-01	-1.258387e-01	-1.566986e-01	-1.938889e-01	-2.337511e-01	-2.704240e-01	-2.956899e-01	-3.006322e-01	-2.770843e-01	-2.229010e-01	-1.564114e-01	-1.075848e-01	-8.592719e-02	-8.205899e-02	-8.892906e-02	-1.017895e-01	-1.155150e-01	-1.265252e-01	-1.329131e-01	-1.338778e-01	-1.295259e-01	-1.207702e-01	-1.086509e-01	-9.387690e-02	-7.749989e-02	-6.138532e-02	-4.740345e-02	-3.618086e-02	-2.708631e-02	-1.956821e-02	-1.352684e-02	-8.944057e-03	-5.436102e-03	-2.586496e-03	-8.524908e-05	2.135605e-03	4.108543e-03	5.785487e-03	7.162020e-03	8.166325e-03	8.777295e-03	8.940338e-03	8.659417e-03	7.939321e-03	6.823086e-03	5.368589e-03	3.654285e-03	1.766845e-03	-1.960436e-04	-2.125704e-03	-3.926060e-03	-5.480634e-03	-6.700094e-03	-7.478383e-03	-7.738746e-03	-7.382688e-03	-6.350955e-03	-4.559079e-03	-1.959568e-03	1.520445e-03	5.943586e-03	1.140342e-02	1.791277e-02	2.545798e-02	3.393954e-02	4.347751e-02	5.440538e-02	6.723016e-02	8.242180e-02	9.969684e-02	1.175420e-01	1.338796e-01	1.479537e-01	1.613801e-01	1.765808e-01	1.944546e-01	2.136484e-01	2.323817e-01	2.502828e-01	2.679114e-01	2.855546e-01	3.029367e-01	3.197161e-01	3.357173e-01	3.507532e-01	3.644886e-01	3.764370e-01	3.854795e-01	3.900448e-01	3.866220e-01	3.690206e-01	3.267946e-01	2.415602e-01	1.128278e-01	-3.660555e-02	-1.387950e-01	-2.499610e-01	-4.480462e-01	-5.938421e-01	-6.228798e-01	-5.927862e-01	-5.414938e-01	-4.870424e-01	-4.372719e-01	-3.940709e-01	-3.568186e-01	-3.247683e-01	-2.970830e-01	-2.729991e-01	-2.516463e-01	-2.320725e-01	-2.137295e-01	-1.966880e-01	-1.813915e-01	-1.681656e-01	-1.567729e-01	-1.465075e-01	-1.365366e-01	-1.263521e-01	-1.159756e-01	-1.057476e-01	-9.602557e-02	-8.698853e-02	-7.862357e-02	-7.086567e-02	-6.366108e-02	-5.694628e-02	-5.067189e-02	-4.476455e-02	-3.915967e-02	-3.380888e-02	-2.863599e-02	-2.361086e-02	-1.868013e-02	-1.381684e-02	-8.943589e-03	-3.973906e-03	1.200164e-03	6.625121e-03	1.231163e-02	1.824962e-02	2.443817e-02	3.085332e-02	3.744181e-02	4.415702e-02	5.099263e-02	5.800965e-02	6.525285e-02	7.269099e-02	8.023910e-02	8.779474e-02	9.530915e-02	1.026990e-01	1.098607e-01	1.166505e-01	1.229013e-01	1.284754e-01	1.332322e-01	1.370481e-01	1.398716e-01	1.416900e-01	1.425803e-01	1.426776e-01	1.421980e-01	1.413844e-01	1.405158e-01	1.398485e-01	1.396160e-01	1.399951e-01	1.410914e-01	1.429450e-01	1.455993e-01	1.489030e-01	1.526277e-01	1.561526e-01	1.583187e-01	1.573934e-01	1.513347e-01	1.384199e-01	1.178707e-01	9.029703e-02	5.768385e-02	2.333166e-02	-8.245660e-03	-3.133189e-02	-3.973601e-02	-2.852574e-02	2.391095e-03	4.418907e-02	8.386127e-02	1.123515e-01	1.287107e-01	1.366764e-01	1.440227e-01	1.507495e-01	6.080060e-02	
SCALARS Conservative_4 float 1
LOOKUP_TABLE default
-8.038966e-02	-6.604294e-02	-6.603019e-02	-6.606943e-02	-6.578989e-02	-6.497239e-02	-6.222047e-02	-5.643165e-02	-4.653483e-02	-3.146936e-02	-1.070772e-02	1.529083e-02	4.378427e-02	6.575735e-02	6.753013e-02	4.789628e-02	2.446982e-02	1.047317e-02	4.790208e-03	3.876735e-03	6.713173e-03	1.280518e-02	2.134570e-02	3.141703e-02	4.220526e-02	5.322951e-02	6.428068e-02	7.450020e-02	8.155600e-02	8.260982e-02	7.697866e-02	6.755474e-02	5.846037e-02	5.183794e-02	4.734182e-02	4.388113e-02	4.080136e-02	3.802256e-02	3.558797e-02	3.344440e-02	3.146229e-02	2.955734e-02	2.770065e-02	2.590247e-02	2.418131e-02	2.257235e-02	2.111348e-02	1.985181e-02	1.882659e-02	1.807914e-02	1.763794e-02	1.752916e-02	1.776597e-02	1.835901e-02	1.931270e-02	2.062962e-02	2.230084e-02	2.432167e-02	2.667808e-02	2.936331e-02	3.235925e-02	3.565411e-02	3.922746e-02	4.308016e-02	4.717943e-02	5.146088e-02	5.578294e-02	6.005163e-02	6.433785e-02	6.903243e-02	7.470299e-02	8.180953e-02	8.993818e-02	9.709895e-02	1.000486e-01	9.652136e-02	8.749778e-02	7.675906e-02	6.788408e-02	6.160466e-02	5.617492e-02	4.983792e-02	4.233114e-02	3.424979e-02	2.594700e-02	1.735481e-02	8.378858e-03	-9.661605e-04	-1.067045e-02	-2.077817e-02	-3.127649e-02	-4.234927e-02	-5.396386e-02	-6.631755e-02	-7.921751e-02	-9.225908e-02	-1.046853e-01	-1.114773e-01	-1.093203e-01	-1.064653e-01	-1.005784e-01	-7.283989e-02	-3.597162e-02	-5.032238e-03	1.844228e-02	3.455626e-02	4.543215e-02	5.295797e-02	5.853313e-02	6.281493e-02	6.644737e-02	6.971243e-02	7.286684e-02	7.579795e-02	7.813872e-02	7.969222e-02	8.078017e-02	8.215706e-02	8.453862e-02	8.805416e-02	9.207161e-02	9.552312e-02	9.750357e-02	9.774642e-02	9.659569e-02	9.467533e-02	9.251084e-02	9.039492e-02	8.843048e-02	8.666141e-02	8.511734e-02	8.380769e-02	8.274297e-02	8.192203e-02	8.137371e-02	8.112589e-02	8.123223e-02	8.173477e-02	8.263846e-02	8.383633e-02	8.509540e-02	8.611112e-02	8.661624e-02	8.646716e-02	8.562900e-02	8.415955e-02	8.218689e-02	7.993943e-02	7.767320e-02	7.551510e-02	7.340871e-02	7.113150e-02	6.848282e-02	6.539661e-02	6.192540e-02	5.813667e-02	5.405681e-02	4.970719e-02	4.510141e-02	4.030409e-02	3.535930e-02	3.035826e-02	2.536990e-02	2.050158e-02	1.582752e-02	1.144275e-02	7.402064e-03	3.764778e-03	5.272026e-04	-2.321236e-03	-4.847425e-03	-7.125748e-03	-9.258020e-03	-1.137081e-02	-1.356244e-02	-1.599086e-02	-1.879891e-02	-2.218878e-02	-2.636386e-02	-3.148974e-02	-3.753616e-02	-4.421201e-02	-5.091333e-02	-5.685914e-02	-6.123875e-02	-6.332900e-02	-6.252819e-02	-5.839427e-02	-5.081074e-02	-4.028800e-02	-2.876992e-02	-2.007339e-02	-1.749149e-02	-2.136967e-02	-2.915368e-02	-3.809753e-02	-4.637835e-02	-5.268765e-02	-6.074793e-02	-7.608588e-02	
SCALARS Surface_Sensitivity float 1
LOOKUP_TABLE default
-2.409319e+01	-6.074960e+01	-2.352355e+00	-1.199084e+00	-2.404890e-01	4.312340e-01	6.135047e-01	8.348530e-01	8.195671e-01	6.740533e-01	3.213540e+00	4.965001e+00	-3.419143e+00	-1.093921e+01	-4.624390e+00	3.538824e+00	3.782214e+00	9.146868e-01	-7.020607e-02	1.515992e-01	2.239863e-01	3.065435e-02	-1.683177e-01	1.638252e-01	1.297873e+00	1.789712e+00	3.593903e-02	-2.540618e+00	-3.291032e+00	-1.656932e+00	5.911054e-01	1.583305e+00	1.162909e+00	3.615541e-01	-5.798419e-02	-6.638319e-02	3.803085e-02	7.066266e-02	4.456030e-02	1.751251e-02	1.321897e-02	1.596121e-02	1.875200e-02	1.856959e-02	2.010889e-02	2.085587e-02	2.165805e-02	2.071266e-02	1.888842e-02	1.609536e-02	1.410274e-02	1.205312e-02	1.091639e-02	1.012663e-02	9.787888e-03	1.152376e-02	1.465815e-02	1.768734e-02	1.425755e-02	5.732679e-03	7.296004e-03	4.587633e-02	9.603669e-02	5.178814e-02	-1.563653e-01	-3.080613e-01	7.670713e-02	1.290501e+00	2.623916e+00	2.468946e+00	1.595297e-01	-3.008032e+00	-5.152345e+00	-4.906568e+00	-2.192052e+00	1.419727e+00	3.619086e+00	3.243118e+00	1.223217e+00	-4.784492e-01	-8.000186e-01	-2.562662e-01	1.627781e-01	1.807467e-01	7.899231e-02	8.008712e-02	1.596087e-01	2.367986e-01	3.401498e-01	5.442015e-01	8.647110e-01	1.393981e+00	2.419534e+00	3.998673e+00	6.103520e+00	8.546528e+00	6.758964e+00	1.739045e+01	1.180940e+01	-1.051822e+01	4.100466e+01	4.554018e+01	2.924051e+01	1.678331e+01	6.553763e+00	3.309493e+00	2.035784e+00	9.601091e-01	2.789875e-01	-1.684650e-02	1.605667e-03	1.763368e-01	2.870341e-01	6.574079e-02	-4.243106e-01	-8.291608e-01	-7.547742e-01	-6.677882e-02	9.261976e-01	1.682301e+00	1.766696e+00	1.110449e+00	5.207110e-02	-9.119444e-01	-1.450127e+00	-1.540816e+00	-1.375079e+00	-1.109167e+00	-7.852510e-01	-3.972254e-01	2.300963e-02	4.069259e-01	6.859559e-01	8.166986e-01	7.995312e-01	6.848733e-01	5.532743e-01	4.612858e-01	4.093738e-01	3.361713e-01	1.728661e-01	-9.638035e-02	-4.125955e-01	-6.884444e-01	-8.539041e-01	-8.551060e-01	-6.488253e-01	-2.441307e-01	2.290464e-01	5.379969e-01	5.364735e-01	3.022194e-01	5.416977e-02	-6.090163e-02	-6.466305e-02	-4.771938e-02	-4.236765e-02	-3.195350e-02	-1.357998e-02	4.804976e-03	9.914599e-03	7.280277e-03	2.280716e-03	-1.333823e-03	-3.098328e-03	-1.205153e-03	2.687892e-03	7.605373e-03	1.369240e-02	1.681725e-02	1.747636e-02	1.721638e-02	1.303035e-02	1.023699e-02	1.050769e-02	2.556037e-03	-1.136292e-02	-4.471666e-02	-9.521291e-02	-1.536498e-01	-1.995142e-01	-2.194894e-01	-1.913011e-01	-1.129339e-01	9.145099e-03	1.660520e-01	3.657986e-01	5.971724e-01	8.745284e-01	1.161748e+00	7.756198e-01	-7.787919e-01	-2.085858e+00	-1.628140e+00	-3.142044e-01	-1.978471e-02	-7.905707e-01	-2.081718e+01	-1.578271e+02	4.316905e+02	