TITLE = "Visualization of the volumetric solution"
VARIABLES = "x""y""Conservative_1""Conservative_2""Conservative_3""Conservative_4""Pressure""Temperature""C<sub>p</sub>""Mach"
ZONE NODES= 5233, ELEMENTS= 10216, DATAPACKING=POINT, ZONETYPE=FEQUADRILATERAL
9.997500e-01	-3.633243e-05	1.199830e+00	7.195712e-01	1.010184e-01	3.446404e+00	1.290551e+00	1.075612e+00	6.485520e-01	4.935149e-01	
9.990000e-01	-1.454724e-04	1.181607e+00	7.459441e-01	1.066664e-01	3.400798e+00	1.264211e+00	1.069908e+00	5.897569e-01	5.210643e-01	
9.977600e-01	-3.275083e-04	1.171185e+00	7.640316e-01	1.128619e-01	3.375516e+00	1.248347e+00	1.065884e+00	5.543452e-01	5.398268e-01	
9.960200e-01	-5.899321e-04	1.164748e+00	7.748371e-01	1.197590e-01	3.360002e+00	1.238448e+00	1.063275e+00	5.322491e-01	5.517191e-01	
9.937800e-01	-9.471126e-04	1.160177e+00	7.807248e-01	1.301745e-01	3.348859e+00	1.231547e+00	1.061516e+00	5.168455e-01	5.596297e-01	
9.910500e-01	-1.422146e-03	1.155714e+00	7.854945e-01	1.447932e-01	3.337991e+00	1.224794e+00	1.059772e+00	5.017733e-01	5.673853e-01	
9.878400e-01	-2.045631e-03	1.148831e+00	7.912975e-01	1.632687e-01	3.320898e+00	1.214712e+00	1.057346e+00	4.792678e-01	5.780482e-01	
9.841300e-01	-2.853899e-03	1.137914e+00	8.009612e-01	1.836875e-01	3.293711e+00	1.198797e+00	1.053504e+00	4.437430e-01	5.946350e-01	
9.799500e-01	-3.859275e-03	1.121731e+00	8.159712e-01	2.029006e-01	3.253335e+00	1.175283e+00	1.047740e+00	3.912564e-01	6.189040e-01	
9.752800e-01	-5.058922e-03	1.100373e+00	8.363810e-01	2.169851e-01	3.199999e+00	1.144297e+00	1.039918e+00	3.220921e-01	6.507964e-01	
9.701500e-01	-6.406013e-03	1.075079e+00	8.604744e-01	2.227578e-01	3.136721e+00	1.107716e+00	1.030357e+00	2.404364e-01	6.883755e-01	
9.645400e-01	-7.842055e-03	1.048462e+00	8.849235e-01	2.186411e-01	3.069891e+00	1.069459e+00	1.020026e+00	1.550418e-01	7.275291e-01	
9.584700e-01	-9.291690e-03	1.024887e+00	9.060840e-01	2.056009e-01	3.010526e+00	1.035751e+00	1.010600e+00	7.980098e-02	7.621511e-01	
9.519400e-01	-1.069954e-02	1.008346e+00	9.215740e-01	1.874322e-01	2.968854e+00	1.012120e+00	1.003742e+00	2.705319e-02	7.867681e-01	
9.449600e-01	-1.203765e-02	9.999689e-01	9.308040e-01	1.688613e-01	2.947776e+00	1.000123e+00	1.000154e+00	2.741031e-04	7.994767e-01	
9.375400e-01	-1.331042e-02	9.979088e-01	9.347690e-01	1.535572e-01	2.942583e+00	9.971825e-01	9.992722e-01	-6.288997e-03	8.025825e-01	
9.296900e-01	-1.454515e-02	9.990175e-01	9.355243e-01	1.431587e-01	2.945328e+00	9.988149e-01	9.997972e-01	-2.645340e-03	8.007340e-01	
9.214000e-01	-1.578014e-02	1.000460e+00	9.351643e-01	1.374253e-01	2.948885e+00	1.000952e+00	1.000492e+00	2.125849e-03	7.982829e-01	
9.127000e-01	-1.704265e-02	1.000486e+00	9.351484e-01	1.350050e-01	2.948858e+00	1.001084e+00	1.000597e+00	2.420003e-03	7.979118e-01	
9.035800e-01	-1.835370e-02	9.984969e-01	9.360884e-01	1.342654e-01	2.943725e+00	9.983629e-01	9.998657e-01	-3.654340e-03	8.004925e-01	
8.940600e-01	-1.971694e-02	9.947119e-01	9.380377e-01	1.339105e-01	2.934049e+00	9.930955e-01	9.983750e-01	-1.541189e-02	8.057363e-01	
8.841500e-01	-2.112776e-02	9.896887e-01	9.406955e-01	1.331765e-01	2.921230e+00	9.860824e-01	9.963561e-01	-3.106609e-02	8.128086e-01	
8.738500e-01	-2.257794e-02	9.840129e-01	9.436858e-01	1.317781e-01	2.906740e+00	9.781642e-01	9.940563e-01	-4.874071e-02	8.208253e-01	
8.631800e-01	-2.405539e-02	9.781561e-01	9.467184e-01	1.297429e-01	2.891772e+00	9.700089e-01	9.916709e-01	-6.694436e-02	8.290970e-01	
8.521600e-01	-2.554944e-02	9.723961e-01	9.496065e-01	1.272393e-01	2.877029e+00	9.620116e-01	9.893207e-01	-8.479557e-02	8.372052e-01	
8.407700e-01	-2.705694e-02	9.668437e-01	9.522844e-01	1.244668e-01	2.862795e+00	9.543246e-01	9.870515e-01	-1.019541e-01	8.449962e-01	
8.290500e-01	-2.856865e-02	9.614902e-01	9.547472e-01	1.215591e-01	2.849049e+00	9.469355e-01	9.848623e-01	-1.184476e-01	8.524788e-01	
8.170100e-01	-3.008071e-02	9.562890e-01	9.570370e-01	1.186053e-01	2.835678e+00	9.397719e-01	9.827280e-01	-1.344376e-01	8.597429e-01	
8.046400e-01	-3.159231e-02	9.511754e-01	9.591641e-01	1.156313e-01	2.822512e+00	9.327493e-01	9.806281e-01	-1.501132e-01	8.668607e-01	
7.919700e-01	-3.309780e-02	9.461179e-01	9.611609e-01	1.126246e-01	2.809474e+00	9.258197e-01	9.785458e-01	-1.655811e-01	8.738914e-01	
7.790100e-01	-3.459392e-02	9.411004e-01	9.630625e-01	1.095740e-01	2.796531e+00	9.189536e-01	9.764670e-01	-1.809072e-01	8.808838e-01	
7.657800e-01	-3.607604e-02	9.360793e-01	9.648610e-01	1.064589e-01	2.783563e+00	9.120983e-01	9.743814e-01	-1.962092e-01	8.878737e-01	
7.522800e-01	-3.754161e-02	9.310205e-01	9.665708e-01	1.032678e-01	2.770483e+00	9.052065e-01	9.722734e-01	-2.115927e-01	8.949131e-01	
7.385200e-01	-3.898678e-02	9.259404e-01	9.681896e-01	9.999347e-02	2.757333e+00	8.983001e-01	9.701489e-01	-2.270088e-01	9.019825e-01	
7.245300e-01	-4.040568e-02	9.208904e-01	9.697048e-01	9.662170e-02	2.744246e+00	8.914494e-01	9.680299e-01	-2.423005e-01	9.090096e-01	
7.103200e-01	-4.179468e-02	9.159188e-01	9.711042e-01	9.316744e-02	2.731347e+00	8.847204e-01	9.659376e-01	-2.573205e-01	9.159249e-01	
6.958900e-01	-4.315123e-02	9.110444e-01	9.724023e-01	8.962713e-02	2.718689e+00	8.781337e-01	9.638759e-01	-2.720230e-01	9.227177e-01	
6.812700e-01	-4.447011e-02	9.062717e-01	9.735804e-01	8.601927e-02	2.706279e+00	8.717011e-01	9.618541e-01	-2.863815e-01	9.293587e-01	
6.664700e-01	-4.574834e-02	9.016121e-01	9.746485e-01	8.235024e-02	2.694149e+00	8.654350e-01	9.598751e-01	-3.003683e-01	9.358400e-01	
6.515000e-01	-4.698313e-02	8.970821e-01	9.756220e-01	7.863202e-02	2.682347e+00	8.593526e-01	9.579420e-01	-3.139450e-01	9.421537e-01	
6.363800e-01	-4.817118e-02	8.926815e-01	9.764818e-01	7.487784e-02	2.670866e+00	8.534603e-01	9.560636e-01	-3.270976e-01	9.482728e-01	
6.211300e-01	-4.930957e-02	8.884209e-01	9.772629e-01	7.109457e-02	2.659743e+00	8.477616e-01	9.542342e-01	-3.398178e-01	9.542174e-01	
6.057600e-01	-5.039646e-02	8.842827e-01	9.779388e-01	6.730073e-02	2.648925e+00	8.422426e-01	9.524585e-01	-3.521371e-01	9.599740e-01	
5.902800e-01	-5.143020e-02	8.802837e-01	9.785467e-01	6.349785e-02	2.638465e+00	8.369141e-01	9.507323e-01	-3.640310e-01	9.655576e-01	
5.747100e-01	-5.240875e-02	8.764386e-01	9.790540e-01	5.969347e-02	2.628392e+00	8.318068e-01	9.490760e-01	-3.754312e-01	9.709042e-01	
5.590600e-01	-5.333095e-02	8.727993e-01	9.795016e-01	5.587898e-02	2.618854e+00	8.269764e-01	9.474989e-01	-3.862134e-01	9.759846e-01	
5.433600e-01	-5.419470e-02	8.693550e-01	9.798668e-01	5.205816e-02	2.609815e+00	8.224172e-01	9.460085e-01	-3.963901e-01	9.807773e-01	
5.276100e-01	-5.499982e-02	8.660418e-01	9.802017e-01	4.824311e-02	2.601122e+00	8.180295e-01	9.445612e-01	-4.061842e-01	9.854234e-01	
5.118400e-01	-5.574467e-02	8.627126e-01	9.804743e-01	4.445735e-02	2.592377e+00	8.136306e-01	9.431074e-01	-4.160032e-01	9.900828e-01	
4.960500e-01	-5.642920e-02	8.593576e-01	9.807240e-01	4.070527e-02	2.583567e+00	8.091952e-01	9.416279e-01	-4.259036e-01	9.948164e-01	
4.802700e-01	-5.705205e-02	8.561794e-01	9.808917e-01	3.695056e-02	2.575206e+00	8.050093e-01	9.402344e-01	-4.352470e-01	9.992683e-01	
4.645100e-01	-5.761285e-02	8.535320e-01	9.810044e-01	3.313644e-02	2.568231e+00	8.015321e-01	9.390768e-01	-4.430088e-01	1.002961e+00	
4.487800e-01	-5.811112e-02	8.515296e-01	9.810471e-01	2.924044e-02	2.562936e+00	7.989209e-01	9.382186e-01	-4.488374e-01	1.005696e+00	
4.331100e-01	-5.854579e-02	8.498810e-01	9.810764e-01	2.524945e-02	2.558574e+00	7.967747e-01	9.375132e-01	-4.536279e-01	1.007942e+00	
4.175000e-01	-5.891664e-02	8.479141e-01	9.811117e-01	2.119555e-02	2.553383e+00	7.942005e-01	9.366521e-01	-4.593739e-01	1.010682e+00	
4.019700e-01	-5.922277e-02	8.448767e-01	9.811853e-01	1.712260e-02	2.545399e+00	7.901930e-01	9.352761e-01	-4.683193e-01	1.015056e+00	
3.865400e-01	-5.946330e-02	8.402667e-01	9.812244e-01	1.307580e-02	2.533284e+00	7.841072e-01	9.331647e-01	-4.819036e-01	1.021755e+00	
3.712300e-01	-5.963734e-02	8.342283e-01	9.811482e-01	9.042473e-03	2.517400e+00	7.761516e-01	9.303828e-01	-4.996615e-01	1.030560e+00	
3.560400e-01	-5.974409e-02	8.276384e-01	9.808249e-01	4.915315e-03	2.500009e+00	7.675250e-01	9.273675e-01	-5.189174e-01	1.040079e+00	
3.409900e-01	-5.978242e-02	8.217556e-01	9.803292e-01	5.572825e-04	2.484435e+00	7.598736e-01	9.246953e-01	-5.359965e-01	1.048494e+00	
3.261100e-01	-5.975121e-02	8.174705e-01	9.798243e-01	-4.068732e-03	2.473057e+00	7.543343e-01	9.227663e-01	-5.483609e-01	1.054557e+00	
3.114000e-01	-5.964931e-02	8.149789e-01	9.794099e-01	-8.941192e-03	2.466412e+00	7.511420e-01	9.216705e-01	-5.554866e-01	1.057997e+00	
2.968700e-01	-5.947537e-02	8.140090e-01	9.791593e-01	-1.404863e-02	2.463812e+00	7.499131e-01	9.212590e-01	-5.582297e-01	1.059288e+00	
2.825500e-01	-5.922827e-02	8.141274e-01	9.790073e-01	-1.937955e-02	2.464100e+00	7.500920e-01	9.213448e-01	-5.578303e-01	1.059019e+00	
2.684500e-01	-5.890675e-02	8.150234e-01	9.789546e-01	-2.497218e-02	2.466468e+00	7.512623e-01	9.217678e-01	-5.552180e-01	1.057691e+00	
2.545700e-01	-5.850912e-02	8.164974e-01	9.789105e-01	-3.085460e-02	2.470363e+00	7.531862e-01	9.224599e-01	-5.509238e-01	1.055519e+00	
2.409400e-01	-5.803451e-02	8.184998e-01	9.788976e-01	-3.708315e-02	2.475669e+00	7.557859e-01	9.233795e-01	-5.451207e-01	1.052631e+00	
2.275700e-01	-5.748163e-02	8.209466e-01	9.788444e-01	-4.367470e-02	2.482144e+00	7.589707e-01	9.245068e-01	-5.380119e-01	1.049087e+00	
2.144700e-01	-5.684921e-02	8.237517e-01	9.787643e-01	-5.066287e-02	2.489573e+00	7.626166e-01	9.257846e-01	-5.298737e-01	1.045066e+00	
2.016600e-01	-5.613654e-02	8.268025e-01	9.785900e-01	-5.806763e-02	2.497642e+00	7.665924e-01	9.271772e-01	-5.209991e-01	1.040679e+00	
1.891400e-01	-5.534196e-02	8.301185e-01	9.783353e-01	-6.593599e-02	2.506412e+00	7.709141e-01	9.286795e-01	-5.113524e-01	1.035940e+00	
1.769300e-01	-5.446502e-02	8.338633e-01	9.779463e-01	-7.433216e-02	2.516300e+00	7.758099e-01	9.303802e-01	-5.004243e-01	1.030568e+00	
1.650400e-01	-5.350490e-02	8.382840e-01	9.774250e-01	-8.332653e-02	2.527966e+00	7.815975e-01	9.323780e-01	-4.875056e-01	1.024247e+00	
1.534900e-01	-5.246181e-02	8.434483e-01	9.766914e-01	-9.295162e-02	2.541570e+00	7.883824e-01	9.347134e-01	-4.723607e-01	1.016842e+00	
1.422900e-01	-5.133547e-02	8.492794e-01	9.757327e-01	-1.032501e-01	2.556919e+00	7.960544e-01	9.373291e-01	-4.552358e-01	1.008528e+00	
1.314400e-01	-5.012460e-02	8.556309e-01	9.744087e-01	-1.142740e-01	2.573598e+00	8.044517e-01	9.401854e-01	-4.364918e-01	9.994248e-01	
1.209500e-01	-4.882896e-02	8.625677e-01	9.727393e-01	-1.261345e-01	2.591801e+00	8.136350e-01	9.432708e-01	-4.159934e-01	9.895593e-01	
1.108500e-01	-4.745133e-02	8.702684e-01	9.706299e-01	-1.388982e-01	2.611990e+00	8.238490e-01	9.466608e-01	-3.931942e-01	9.786807e-01	
1.011300e-01	-4.598953e-02	8.787902e-01	9.678498e-01	-1.526412e-01	2.634266e+00	8.352168e-01	9.504166e-01	-3.678197e-01	9.665777e-01	
9.181000e-02	-4.444567e-02	8.881722e-01	9.642441e-01	-1.674878e-01	2.658719e+00	8.478044e-01	9.545495e-01	-3.397223e-01	9.531939e-01	
8.290000e-02	-4.282085e-02	8.985265e-01	9.597226e-01	-1.835566e-01	2.685656e+00	8.617456e-01	9.590653e-01	-3.086035e-01	9.384869e-01	
7.440000e-02	-4.111444e-02	9.099119e-01	9.539933e-01	-2.009599e-01	2.715193e+00	8.771586e-01	9.640039e-01	-2.741995e-01	9.222965e-01	
6.633000e-02	-3.932996e-02	9.224800e-01	9.467926e-01	-2.198537e-01	2.747714e+00	8.942569e-01	9.694052e-01	-2.360337e-01	9.044514e-01	
5.869000e-02	-3.746711e-02	9.363486e-01	9.377035e-01	-2.403727e-01	2.783484e+00	9.132403e-01	9.753208e-01	-1.936600e-01	8.847284e-01	
5.149000e-02	-3.552791e-02	9.517080e-01	9.262102e-01	-2.626375e-01	2.822956e+00	9.344076e-01	9.818217e-01	-1.464116e-01	8.628181e-01	
4.474000e-02	-3.351487e-02	9.688354e-01	9.115842e-01	-2.867665e-01	2.866787e+00	9.581956e-01	9.890180e-01	-9.331332e-02	8.382465e-01	
3.844000e-02	-3.142768e-02	9.879590e-01	8.928929e-01	-3.128304e-01	2.915492e+00	9.849910e-01	9.969958e-01	-3.350230e-02	8.105712e-01	
3.260000e-02	-2.926918e-02	1.009438e+00	8.690611e-01	-3.407743e-01	2.969951e+00	1.015331e+00	1.005838e+00	3.422129e-02	7.792911e-01	
2.723000e-02	-2.704306e-02	1.033757e+00	8.385157e-01	-3.702114e-01	3.031316e+00	1.049981e+00	1.015693e+00	1.115639e-01	7.435639e-01	
2.232000e-02	-2.474429e-02	1.061233e+00	7.991062e-01	-4.004098e-01	3.100237e+00	1.089534e+00	1.026668e+00	1.998537e-01	7.025156e-01	
1.790000e-02	-2.238686e-02	1.092395e+00	7.483464e-01	-4.298924e-01	3.177976e+00	1.134824e+00	1.038840e+00	3.009468e-01	6.551041e-01	
1.395000e-02	-1.995994e-02	1.127711e+00	6.831891e-01	-4.555510e-01	3.265579e+00	1.186649e+00	1.052263e+00	4.166264e-01	5.999212e-01	
1.049000e-02	-1.747482e-02	1.167026e+00	5.999723e-01	-4.723089e-01	3.362402e+00	1.245042e+00	1.066850e+00	5.469679e-01	5.353698e-01	
7.520000e-03	-1.493240e-02	1.209878e+00	4.964961e-01	-4.717488e-01	3.467259e+00	1.309366e+00	1.082230e+00	6.905494e-01	4.598822e-01	
5.040000e-03	-1.233287e-02	1.254556e+00	3.727773e-01	-4.409533e-01	3.575832e+00	1.377182e+00	1.097745e+00	8.419240e-01	3.712615e-01	
3.050000e-03	-9.674719e-03	1.298044e+00	2.365836e-01	-3.645010e-01	3.681285e+00	1.443419e+00	1.111996e+00	9.897747e-01	2.683081e-01	
1.560000e-03	-6.973209e-03	1.331743e+00	1.074306e-01	-2.306875e-01	3.762483e+00	1.495268e+00	1.122790e+00	1.105508e+00	1.524099e-01	
5.600000e-04	-4.207230e-03	1.350898e+00	1.081565e-02	-3.812332e-02	3.809719e+00	1.523655e+00	1.127883e+00	1.168873e+00	2.334435e-02	
6.000000e-05	-1.384234e-03	1.339544e+00	-2.156308e-02	1.857023e-01	3.781263e+00	1.507287e+00	1.125224e+00	1.132337e+00	1.111949e-01	
0.000000e+00	0.000000e+00	1.308301e+00	5.237698e-03	3.517521e-01	3.702942e+00	1.462258e+00	1.117677e+00	1.031826e+00	2.149587e-01	
6.000000e-05	1.263941e-03	1.284309e+00	7.302737e-02	4.962329e-01	3.649755e+00	1.420724e+00	1.106217e+00	9.391171e-01	3.138227e-01	
5.600000e-04	3.625936e-03	1.221188e+00	2.104114e-01	6.609764e-01	3.500055e+00	1.321220e+00	1.081914e+00	7.170081e-01	4.615336e-01	
1.560000e-03	5.790523e-03	1.099605e+00	4.133799e-01	7.235995e-01	3.191127e+00	1.150137e+00	1.045954e+00	3.351263e-01	6.262858e-01	
3.050000e-03	7.809359e-03	1.002147e+00	5.901450e-01	6.884646e-01	2.943283e+00	1.013215e+00	1.011044e+00	2.949726e-02	7.605411e-01	
5.040000e-03	9.727431e-03	9.261379e-01	7.151884e-01	6.113261e-01	2.748268e+00	9.081447e-01	9.805718e-01	-2.050341e-01	8.670512e-01	
7.520000e-03	1.155247e-02	8.703966e-01	7.967969e-01	5.276665e-01	2.604433e+00	8.319110e-01	9.557839e-01	-3.751986e-01	9.491826e-01	
1.049000e-02	1.329944e-02	8.323785e-01	8.484064e-01	4.531922e-01	2.506104e+00	7.801444e-01	9.372472e-01	-4.907491e-01	1.008789e+00	
1.395000e-02	1.497886e-02	8.073431e-01	8.813326e-01	3.914214e-01	2.441274e+00	7.461346e-01	9.241852e-01	-5.666639e-01	1.050098e+00	
1.790000e-02	1.659863e-02	7.904847e-01	9.026110e-01	3.412223e-01	2.397456e+00	7.233953e-01	9.151287e-01	-6.174212e-01	1.078472e+00	
2.232000e-02	1.815839e-02	7.790632e-01	9.169462e-01	3.001992e-01	2.367672e+00	7.080868e-01	9.088952e-01	-6.515920e-01	1.097893e+00	
2.723000e-02	1.967127e-02	7.713828e-01	9.269870e-01	2.666142e-01	2.347616e+00	6.978202e-01	9.046355e-01	-6.745084e-01	1.111121e+00	
3.260000e-02	2.113316e-02	7.662739e-01	9.341541e-01	2.386814e-01	2.334213e+00	6.910531e-01	9.018357e-01	-6.896136e-01	1.119797e+00	
3.844000e-02	2.255175e-02	7.631764e-01	9.396229e-01	2.152258e-01	2.326106e+00	6.869305e-01	9.000940e-01	-6.988160e-01	1.125187e+00	
4.474000e-02	2.392841e-02	7.613523e-01	9.438989e-01	1.952949e-01	2.321355e+00	6.844803e-01	8.990322e-01	-7.042852e-01	1.128471e+00	
5.149000e-02	2.526452e-02	7.604272e-01	9.473292e-01	1.781524e-01	2.318974e+00	6.832085e-01	8.984535e-01	-7.071239e-01	1.130260e+00	
5.869000e-02	2.656312e-02	7.603971e-01	9.502701e-01	1.632841e-01	2.318991e+00	6.830729e-01	8.983108e-01	-7.074265e-01	1.130701e+00	
6.633000e-02	2.782492e-02	7.611334e-01	9.527840e-01	1.503046e-01	2.321033e+00	6.839385e-01	8.985790e-01	-7.054945e-01	1.129872e+00	
7.440000e-02	2.905060e-02	7.623991e-01	9.549571e-01	1.388616e-01	2.324469e+00	6.854993e-01	8.991344e-01	-7.020106e-01	1.128155e+00	
8.290000e-02	3.024209e-02	7.638725e-01	9.568870e-01	1.287009e-01	2.328469e+00	6.873162e-01	8.997788e-01	-6.979548e-01	1.126162e+00	
9.181000e-02	3.139827e-02	7.652260e-01	9.585518e-01	1.195507e-01	2.332149e+00	6.889801e-01	9.003616e-01	-6.942408e-01	1.124359e+00	
1.011300e-01	3.252067e-02	7.664758e-01	9.600371e-01	1.112119e-01	2.335561e+00	6.905015e-01	9.008784e-01	-6.908450e-01	1.122760e+00	
1.108500e-01	3.360925e-02	7.679457e-01	9.614564e-01	1.036156e-01	2.339577e+00	6.922891e-01	9.014817e-01	-6.868548e-01	1.120893e+00	
1.209500e-01	3.466289e-02	7.698948e-01	9.628257e-01	9.671214e-02	2.344866e+00	6.946957e-01	9.023255e-01	-6.814827e-01	1.118280e+00	
1.314400e-01	3.568344e-02	7.721736e-01	9.640571e-01	9.040909e-02	2.351000e+00	6.975581e-01	9.033696e-01	-6.750935e-01	1.115045e+00	
1.422900e-01	3.666862e-02	7.743824e-01	9.651554e-01	8.457619e-02	2.356937e+00	7.003419e-01	9.043877e-01	-6.688796e-01	1.111889e+00	
1.534900e-01	3.761817e-02	7.762928e-01	9.661189e-01	7.906730e-02	2.362074e+00	7.027465e-01	9.052596e-01	-6.635122e-01	1.109185e+00	
1.650400e-01	3.853245e-02	7.779963e-01	9.670037e-01	7.385673e-02	2.366667e+00	7.048789e-01	9.060183e-01	-6.587524e-01	1.106831e+00	
1.769300e-01	3.941078e-02	7.796397e-01	9.678146e-01	6.891985e-02	2.371096e+00	7.069384e-01	9.067501e-01	-6.541553e-01	1.104559e+00	
1.891400e-01	4.025168e-02	7.813264e-01	9.685940e-01	6.424729e-02	2.375642e+00	7.090512e-01	9.074968e-01	-6.494394e-01	1.102240e+00	
2.016600e-01	4.105437e-02	7.831267e-01	9.693386e-01	5.978868e-02	2.380486e+00	7.113157e-01	9.083021e-01	-6.443847e-01	1.099737e+00	
2.144700e-01	4.181736e-02	7.850961e-01	9.700810e-01	5.551217e-02	2.385780e+00	7.137965e-01	9.091836e-01	-6.388470e-01	1.096997e+00	
2.275700e-01	4.254022e-02	7.872185e-01	9.708005e-01	5.138620e-02	2.391475e+00	7.164804e-01	9.101417e-01	-6.328563e-01	1.094016e+00	
2.409400e-01	4.322126e-02	7.894211e-01	9.715008e-01	4.737948e-02	2.397383e+00	7.192689e-01	9.111346e-01	-6.266319e-01	1.090925e+00	
2.545700e-01	4.385922e-02	7.916036e-01	9.721504e-01	4.345411e-02	2.403229e+00	7.220393e-01	9.121223e-01	-6.204479e-01	1.087849e+00	
2.684500e-01	4.445269e-02	7.937231e-01	9.727633e-01	3.958580e-02	2.408906e+00	7.247297e-01	9.130762e-01	-6.144427e-01	1.084876e+00	
2.825500e-01	4.499938e-02	7.957543e-01	9.733241e-01	3.575479e-02	2.414343e+00	7.273122e-01	9.139910e-01	-6.086781e-01	1.082023e+00	
2.968700e-01	4.549811e-02	7.976877e-01	9.738458e-01	3.194732e-02	2.419518e+00	7.297701e-01	9.148570e-01	-6.031916e-01	1.079320e+00	
3.114000e-01	4.594710e-02	7.994847e-01	9.743190e-01	2.814195e-02	2.424327e+00	7.320555e-01	9.156591e-01	-5.980905e-01	1.076815e+00	
3.261100e-01	4.634388e-02	8.011544e-01	9.747583e-01	2.430930e-02	2.428799e+00	7.341760e-01	9.163975e-01	-5.933572e-01	1.074508e+00	
3.409900e-01	4.668659e-02	8.028139e-01	9.751815e-01	2.042884e-02	2.433244e+00	7.362823e-01	9.171270e-01	-5.886556e-01	1.072228e+00	
3.560400e-01	4.697335e-02	8.046807e-01	9.756378e-01	1.650404e-02	2.438248e+00	7.386485e-01	9.179399e-01	-5.833738e-01	1.069685e+00	
3.712300e-01	4.720160e-02	8.069190e-01	9.761069e-01	1.253743e-02	2.444233e+00	7.415006e-01	9.189281e-01	-5.770076e-01	1.066592e+00	
3.865400e-01	4.736904e-02	8.095860e-01	9.765953e-01	8.519242e-03	2.451352e+00	7.449114e-01	9.201140e-01	-5.693942e-01	1.062878e+00	
4.019700e-01	4.747351e-02	8.126444e-01	9.770841e-01	4.418640e-03	2.459502e+00	7.488362e-01	9.214807e-01	-5.606336e-01	1.058592e+00	
4.175000e-01	4.751257e-02	8.160838e-01	9.775664e-01	2.176682e-04	2.468655e+00	7.532615e-01	9.230198e-01	-5.507555e-01	1.053761e+00	
4.331100e-01	4.748388e-02	8.199376e-01	9.780368e-01	-4.091118e-03	2.478900e+00	7.582317e-01	9.247432e-01	-5.396613e-01	1.048343e+00	
4.487800e-01	4.738520e-02	8.242049e-01	9.784644e-01	-8.507335e-03	2.490225e+00	7.637534e-01	9.266548e-01	-5.273361e-01	1.042325e+00	
4.645100e-01	4.721419e-02	8.288368e-01	9.788532e-01	-1.302530e-02	2.502508e+00	7.697578e-01	9.287206e-01	-5.139335e-01	1.035811e+00	
4.802700e-01	4.696886e-02	8.336774e-01	9.791261e-01	-1.766168e-02	2.515315e+00	7.760611e-01	9.308890e-01	-4.998636e-01	1.028960e+00	
4.960500e-01	4.664722e-02	8.385640e-01	9.793194e-01	-2.242322e-02	2.528235e+00	7.824338e-01	9.330640e-01	-4.856388e-01	1.022074e+00	
5.118400e-01	4.624734e-02	8.433382e-01	9.794165e-01	-2.732558e-02	2.540846e+00	7.886711e-01	9.351777e-01	-4.717163e-01	1.015368e+00	
5.276100e-01	4.576807e-02	8.480749e-01	9.794487e-01	-3.238696e-02	2.553357e+00	7.948609e-01	9.372531e-01	-4.578998e-01	1.008770e+00	
5.433600e-01	4.520774e-02	8.530570e-01	9.793941e-01	-3.756081e-02	2.566505e+00	8.013828e-01	9.394246e-01	-4.433421e-01	1.001852e+00	
5.590600e-01	4.456598e-02	8.586080e-01	9.792253e-01	-4.282134e-02	2.581134e+00	8.086691e-01	9.418373e-01	-4.270780e-01	9.941469e-01	
5.747100e-01	4.384168e-02	8.647659e-01	9.788781e-01	-4.811887e-02	2.597328e+00	8.167862e-01	9.445171e-01	-4.089595e-01	9.855649e-01	
5.902800e-01	4.303547e-02	8.712947e-01	9.783260e-01	-5.347327e-02	2.614463e+00	8.254277e-01	9.473576e-01	-3.896704e-01	9.764394e-01	
6.057600e-01	4.214764e-02	8.779797e-01	9.776051e-01	-5.889868e-02	2.631986e+00	8.342971e-01	9.502464e-01	-3.698726e-01	9.671273e-01	
6.211300e-01	4.117957e-02	8.848287e-01	9.766602e-01	-6.437375e-02	2.649903e+00	8.434200e-01	9.532014e-01	-3.495089e-01	9.575672e-01	
6.363800e-01	4.013265e-02	8.920123e-01	9.754950e-01	-6.984081e-02	2.668668e+00	8.530155e-01	9.562822e-01	-3.280903e-01	9.475614e-01	
6.515000e-01	3.900883e-02	8.995772e-01	9.740514e-01	-7.525683e-02	2.688391e+00	8.631590e-01	9.595164e-01	-3.054486e-01	9.370130e-01	
6.664700e-01	3.781146e-02	9.074703e-01	9.723273e-01	-8.058173e-02	2.708934e+00	8.737786e-01	9.628729e-01	-2.817443e-01	9.260147e-01	
6.812700e-01	3.654476e-02	9.156039e-01	9.702975e-01	-8.580248e-02	2.730060e+00	8.847642e-01	9.663176e-01	-2.572228e-01	9.146706e-01	
6.958900e-01	3.521287e-02	9.239297e-01	9.679667e-01	-9.086049e-02	2.751644e+00	8.960501e-01	9.698250e-01	-2.320310e-01	9.030581e-01	
7.103200e-01	3.382061e-02	9.324356e-01	9.653184e-01	-9.572675e-02	2.773653e+00	9.076233e-01	9.733898e-01	-2.061979e-01	8.911879e-01	
7.245300e-01	3.237553e-02	9.410918e-01	9.623479e-01	-1.003314e-01	2.796005e+00	9.194459e-01	9.769991e-01	-1.798083e-01	8.790965e-01	
7.385200e-01	3.088298e-02	9.498849e-01	9.590491e-01	-1.046505e-01	2.818666e+00	9.315001e-01	9.806453e-01	-1.529015e-01	8.668025e-01	
7.522800e-01	2.934989e-02	9.587647e-01	9.554206e-01	-1.086132e-01	2.841502e+00	9.437222e-01	9.843105e-01	-1.256202e-01	8.543597e-01	
7.657800e-01	2.778617e-02	9.677135e-01	9.515023e-01	-1.121850e-01	2.864477e+00	9.560771e-01	9.879754e-01	-9.804218e-02	8.418288e-01	
7.790100e-01	2.620019e-02	9.766572e-01	9.472285e-01	-1.153104e-01	2.887374e+00	9.684896e-01	9.916371e-01	-7.033583e-02	8.292138e-01	
7.919700e-01	2.459959e-02	9.855982e-01	9.427103e-01	-1.179454e-01	2.910231e+00	9.809319e-01	9.952655e-01	-4.256272e-02	8.166154e-01	
8.046400e-01	2.299489e-02	9.944536e-01	9.379545e-01	-1.200493e-01	2.932826e+00	9.932987e-01	9.988387e-01	-1.495822e-02	8.041072e-01	
8.170100e-01	2.139573e-02	1.003143e+00	9.329796e-01	-1.215881e-01	2.954944e+00	1.005485e+00	1.002335e+00	1.224382e-02	7.917644e-01	
8.290500e-01	1.981447e-02	1.011603e+00	9.279016e-01	-1.225631e-01	2.976446e+00	1.017383e+00	1.005714e+00	3.880219e-02	7.797339e-01	
8.407700e-01	1.825789e-02	1.019750e+00	9.227752e-01	-1.229996e-01	2.997119e+00	1.028876e+00	1.008949e+00	6.445533e-02	7.681176e-01	
8.521600e-01	1.673443e-02	1.027538e+00	9.176555e-01	-1.229703e-01	3.016849e+00	1.039892e+00	1.012023e+00	8.904392e-02	7.569854e-01	
8.631800e-01	1.525494e-02	1.034945e+00	9.125683e-01	-1.226210e-01	3.035588e+00	1.050397e+00	1.014930e+00	1.124932e-01	7.463657e-01	
8.738500e-01	1.381990e-02	1.042018e+00	9.074581e-01	-1.221265e-01	3.053448e+00	1.060462e+00	1.017700e+00	1.349592e-01	7.361650e-01	
8.841500e-01	1.243253e-02	1.048937e+00	9.022016e-01	-1.216645e-01	3.070892e+00	1.070336e+00	1.020400e+00	1.569994e-01	7.261364e-01	
8.940600e-01	1.109402e-02	1.055962e+00	8.965065e-01	-1.213068e-01	3.088554e+00	1.080408e+00	1.023151e+00	1.794832e-01	7.158318e-01	
9.035800e-01	9.802681e-03	1.063482e+00	8.900762e-01	-1.208892e-01	3.107421e+00	1.091231e+00	1.026092e+00	2.036405e-01	7.047074e-01	
9.127000e-01	8.561217e-03	1.071795e+00	8.825749e-01	-1.198796e-01	3.128216e+00	1.103253e+00	1.029351e+00	2.304748e-01	6.922517e-01	
9.214000e-01	7.380572e-03	1.080996e+00	8.739954e-01	-1.173819e-01	3.151194e+00	1.116602e+00	1.032938e+00	2.602716e-01	6.783689e-01	
9.296900e-01	6.277311e-03	1.090704e+00	8.647635e-01	-1.122786e-01	3.175400e+00	1.130723e+00	1.036691e+00	2.917923e-01	6.636390e-01	
9.375400e-01	5.282407e-03	1.100056e+00	8.559623e-01	-1.036855e-01	3.198719e+00	1.144327e+00	1.040244e+00	3.221579e-01	6.494882e-01	
9.449600e-01	4.425012e-03	1.107802e+00	8.491322e-01	-9.141287e-02	3.218076e+00	1.155549e+00	1.043101e+00	3.472087e-01	6.379522e-01	
9.519400e-01	3.730051e-03	1.112605e+00	8.458397e-01	-7.638277e-02	3.230175e+00	1.162414e+00	1.044768e+00	3.625313e-01	6.311560e-01	
9.584700e-01	3.203640e-03	1.113376e+00	8.470949e-01	-6.075839e-02	3.232282e+00	1.163350e+00	1.044885e+00	3.646204e-01	6.306758e-01	
9.645400e-01	2.825591e-03	1.109751e+00	8.528023e-01	-4.762656e-02	3.223428e+00	1.157893e+00	1.043381e+00	3.524398e-01	6.368154e-01	
9.701500e-01	2.551025e-03	1.102494e+00	8.615025e-01	-4.023261e-02	3.205430e+00	1.147241e+00	1.040587e+00	3.286622e-01	6.481121e-01	
9.752800e-01	2.324114e-03	1.093771e+00	8.705287e-01	-4.078058e-02	3.183648e+00	1.134585e+00	1.037315e+00	3.004131e-01	6.611702e-01	
9.799500e-01	2.092602e-03	1.086663e+00	8.765734e-01	-4.936610e-02	3.165740e+00	1.124427e+00	1.034753e+00	2.777395e-01	6.712724e-01	
9.841300e-01	1.826759e-03	1.084140e+00	8.769930e-01	-6.375412e-02	3.159174e+00	1.121034e+00	1.034031e+00	2.701662e-01	6.741003e-01	
9.878400e-01	1.519765e-03	1.088043e+00	8.704800e-01	-8.013704e-02	3.168629e+00	1.126987e+00	1.035793e+00	2.834534e-01	6.671830e-01	
9.910500e-01	1.190142e-03	1.098260e+00	8.577681e-01	-9.478560e-02	3.193985e+00	1.141970e+00	1.039799e+00	3.168980e-01	6.512704e-01	
9.937800e-01	8.630000e-04	1.112838e+00	8.395901e-01	-1.049784e-01	3.230126e+00	1.163383e+00	1.045420e+00	3.646937e-01	6.284845e-01	
9.960200e-01	5.666203e-04	1.130007e+00	8.174948e-01	-1.097949e-01	3.272649e+00	1.188644e+00	1.051891e+00	4.210801e-01	6.015013e-01	
9.977600e-01	3.231871e-04	1.148473e+00	7.911940e-01	-1.102824e-01	3.318091e+00	1.216106e+00	1.058889e+00	4.823801e-01	5.712829e-01	
9.990000e-01	1.450782e-04	1.168633e+00	7.596527e-01	-1.061990e-01	3.367486e+00	1.246304e+00	1.066463e+00	5.497860e-01	5.371590e-01	
9.997500e-01	3.632618e-05	1.192714e+00	7.213235e-01	-1.003425e-01	3.426996e+00	1.281862e+00	1.074745e+00	6.291572e-01	4.977821e-01	
1.000000e+00	0.000000e+00	1.181127e+00	6.623530e-01	2.576148e-03	3.383860e+00	1.279256e+00	1.083081e+00	6.233392e-01	4.554091e-01	
1.984229e+01	2.506660e+00	9.999764e-01	9.463577e-01	2.025675e-02	2.947954e+00	9.999769e-01	1.000000e+00	-5.156166e-05	8.000201e-01	
1.937166e+01	4.973800e+00	9.999695e-01	9.463954e-01	2.024795e-02	2.947943e+00	9.999571e-01	9.999876e-01	-9.579129e-05	8.000625e-01	
1.859553e+01	7.362490e+00	9.999528e-01	9.464115e-01	2.024039e-02	2.947905e+00	9.999327e-01	9.999798e-01	-1.503184e-04	8.000924e-01	
1.752613e+01	9.635070e+00	9.999289e-01	9.464242e-01	2.022638e-02	2.947849e+00	9.999011e-01	9.999722e-01	-2.206596e-04	8.001250e-01	
1.618034e+01	1.175571e+01	9.999048e-01	9.464459e-01	2.020371e-02	2.947796e+00	9.998677e-01	9.999628e-01	-2.954029e-04	8.001661e-01	
1.457937e+01	1.369094e+01	9.998767e-01	9.464690e-01	2.018423e-02	2.947727e+00	9.998265e-01	9.999498e-01	-3.872907e-04	8.002129e-01	
1.274848e+01	1.541027e+01	9.998371e-01	9.464755e-01	2.015966e-02	2.947611e+00	9.997709e-01	9.999337e-01	-5.114889e-04	8.002561e-01	
1.071654e+01	1.688656e+01	9.997820e-01	9.464716e-01	2.013264e-02	2.947442e+00	9.996950e-01	9.999131e-01	-6.807189e-04	8.003048e-01	
8.515590e+00	1.809654e+01	9.997193e-01	9.464562e-01	2.011058e-02	2.947239e+00	9.996087e-01	9.998893e-01	-8.734482e-04	8.003509e-01	
6.180340e+00	1.902113e+01	9.996673e-01	9.464452e-01	2.008826e-02	2.947071e+00	9.995362e-01	9.998688e-01	-1.035272e-03	8.003911e-01	
3.747630e+00	1.964575e+01	9.996329e-01	9.464339e-01	2.011796e-02	2.946947e+00	9.994845e-01	9.998516e-01	-1.150632e-03	8.004166e-01	
1.255810e+00	1.996053e+01	9.996444e-01	9.464080e-01	2.020024e-02	2.946961e+00	9.995012e-01	9.998568e-01	-1.113283e-03	8.003848e-01	
-1.255810e+00	1.996053e+01	9.996987e-01	9.463370e-01	2.030903e-02	2.947065e+00	9.995789e-01	9.998801e-01	-9.399722e-04	8.002740e-01	
-3.747630e+00	1.964574e+01	9.998094e-01	9.463059e-01	2.043477e-02	2.947377e+00	9.997341e-01	9.999248e-01	-5.934782e-04	8.001435e-01	
-6.180340e+00	1.902113e+01	9.999043e-01	9.463208e-01	2.053960e-02	2.947684e+00	9.998674e-01	9.999630e-01	-2.960418e-04	8.000667e-01	
-8.515590e+00	1.809654e+01	9.999811e-01	9.463634e-01	2.062887e-02	2.947955e+00	9.999727e-01	9.999916e-01	-6.096919e-05	8.000316e-01	
-1.071654e+01	1.688656e+01	1.000023e+00	9.463601e-01	2.066789e-02	2.948085e+00	1.000033e+00	1.000010e+00	7.394257e-05	7.999885e-01	
-1.274848e+01	1.541026e+01	1.000049e+00	9.463566e-01	2.069084e-02	2.948159e+00	1.000069e+00	1.000020e+00	1.532475e-04	7.999615e-01	
-1.457937e+01	1.369094e+01	1.000064e+00	9.463528e-01	2.069810e-02	2.948200e+00	1.000089e+00	1.000026e+00	1.988996e-04	7.999443e-01	
-1.618034e+01	1.175570e+01	1.000070e+00	9.463459e-01	2.069624e-02	2.948213e+00	1.000098e+00	1.000028e+00	2.184748e-04	7.999325e-01	
-1.752613e+01	9.635070e+00	1.000073e+00	9.463405e-01	2.069034e-02	2.948216e+00	1.000102e+00	1.000029e+00	2.275114e-04	7.999250e-01	
-1.859553e+01	7.362490e+00	1.000074e+00	9.463363e-01	2.068198e-02	2.948215e+00	1.000103e+00	1.000029e+00	2.301061e-04	7.999204e-01	
-1.937166e+01	4.973800e+00	1.000074e+00	9.463329e-01	2.067196e-02	2.948213e+00	1.000104e+00	1.000030e+00	2.315188e-04	7.999169e-01	
-1.984229e+01	2.506660e+00	1.000076e+00	9.463302e-01	2.066095e-02	2.948215e+00	1.000106e+00	1.000030e+00	2.368766e-04	7.999128e-01	