TITLE = "SU2 Simulation"
VARIABLES = "Iteration","CLift","CDrag","CSideForce","CMx","CMy","CMz","CFx","CFy","CFz","CL/CD","Res_Flow[0]","Res_Flow[1]","Res_Flow[2]","Res_Flow[3]","Res_Flow[4]","Linear_Solver_Iterations","CFL_Number","Time(min)"
ZONE T= "Convergence history"
        4419, 6.65702332e-02, 4.27209084e-04, 0.00000000e+00, 0.00000000e+00, 0.00000000e+00, -3.68157800e-02, -1.02511456e-03, 6.65637108e-02, 0.00000000e+00, 1.55825884e+02, -7.29490299e+00, -7.28124474e+00, -7.81391373e+00, -6.69852346e+00, 0.00000000e+00, 2.0000000000, 10.0000000000, 0.0004064361
        4420, 6.65778434e-02, 4.35491050e-04, 0.00000000e+00, 0.00000000e+00, 0.00000000e+00, -3.68090933e-02, -1.01700058e-03, 6.65714999e-02, 0.00000000e+00, 1.52879935e+02, -7.35266846e+00, -7.26270718e+00, -7.43818823e+00, -6.74938895e+00, 0.00000000e+00, 2.0000000000, 10.0000000000, 0.0008347511
        4421, 6.65831675e-02, 4.38563634e-04, 0.00000000e+00, 0.00000000e+00, 0.00000000e+00, -3.68043681e-02, -1.01404488e-03, 6.65768897e-02, 0.00000000e+00, 1.51820995e+02, -7.35540327e+00, -7.29475571e+00, -7.39822678e+00, -6.75546391e+00, 0.00000000e+00, 2.0000000000, 10.0000000000, 0.0012748162
        4422, 6.65895054e-02, 4.41223576e-04, 0.00000000e+00, 0.00000000e+00, 0.00000000e+00, -3.67997221e-02, -1.01152383e-03, 6.65832842e-02, 0.00000000e+00, 1.50920098e+02, -7.32344810e+00, -7.27474174e+00, -7.34922734e+00, -6.71987236e+00, 0.00000000e+00, 2.0000000000, 10.0000000000, 0.0016837358
        4423, 6.65967258e-02, 4.43280182e-04, 0.00000000e+00, 0.00000000e+00, 0.00000000e+00, -3.67951813e-02, -1.00962522e-03, 6.65905477e-02, 0.00000000e+00, 1.50236190e+02, -7.28099762e+00, -7.23971876e+00, -7.30328905e+00, -6.67558265e+00, 0.00000000e+00, 2.0000000000, 10.0000000000, 0.0020457864
        4424, 6.66048592e-02, 4.44699732e-04, 0.00000000e+00, 0.00000000e+00, 0.00000000e+00, -3.67911604e-02, -1.00838344e-03, 6.65987101e-02, 0.00000000e+00, 1.49774903e+02, -7.24758251e+00, -7.21897657e+00, -7.28381061e+00, -6.64417150e+00, 0.00000000e+00, 2.0000000000, 10.0000000000, 0.0023069859
        4425, 6.66130562e-02, 4.45886098e-04, 0.00000000e+00, 0.00000000e+00, 0.00000000e+00, -3.67876135e-02, -1.00737617e-03, 6.66069311e-02, 0.00000000e+00, 1.49394782e+02, -7.21861167e+00, -7.19658019e+00, -7.27216322e+00, -6.61634551e+00, 0.00000000e+00, 2.0000000000, 10.0000000000, 0.0025503834
        4426, 6.66207687e-02, 4.46884418e-04, 0.00000000e+00, 0.00000000e+00, 0.00000000e+00, -3.67846312e-02, -1.00654634e-03, 6.66146634e-02, 0.00000000e+00, 1.49078298e+02, -7.19166707e+00, -7.16416848e+00, -7.25769938e+00, -6.58854854e+00, 0.00000000e+00, 2.0000000000, 10.0000000000, 0.0028648178
        4427, 6.66277839e-02, 4.47680399e-04, 0.00000000e+00, 0.00000000e+00, 0.00000000e+00, -3.67823063e-02, -1.00590358e-03, 6.66216943e-02, 0.00000000e+00, 1.48828906e+02, -7.17363564e+00, -7.14043480e+00, -7.24912606e+00, -6.56996012e+00, 0.00000000e+00, 2.0000000000, 10.0000000000, 0.0031461358
        4428, 6.66340210e-02, 4.48324371e-04, 0.00000000e+00, 0.00000000e+00, 0.00000000e+00, -3.67805750e-02, -1.00539583e-03, 6.66279441e-02, 0.00000000e+00, 1.48629040e+02, -7.16301648e+00, -7.12515629e+00, -7.24508401e+00, -6.55907127e+00, 0.00000000e+00, 2.0000000000, 10.0000000000, 0.0034257015
        4429, 6.66395516e-02, 4.48841336e-04, 0.00000000e+00, 0.00000000e+00, 0.00000000e+00, -3.67792962e-02, -1.00499963e-03, 6.66334846e-02, 0.00000000e+00, 1.48470175e+02, -7.15866005e+00, -7.11896730e+00, -7.24396258e+00, -6.55459163e+00, 0.00000000e+00, 2.0000000000, 10.0000000000, 0.0036722501
        4430, 6.66444987e-02, 4.49233763e-04, 0.00000000e+00, 0.00000000e+00, 0.00000000e+00, -3.67783431e-02, -1.00471522e-03, 6.66384391e-02, 0.00000000e+00, 1.48351491e+02, -7.15911003e+00, -7.12131501e+00, -7.24532690e+00, -6.55496916e+00, 0.00000000e+00, 2.0000000000, 10.0000000000, 0.0039167364
        4431, 6.66489803e-02, 4.49513399e-04, 0.00000000e+00, 0.00000000e+00, 0.00000000e+00, -3.67776213e-02, -1.00453342e-03, 6.66429258e-02, 0.00000000e+00, 1.48269174e+02, -7.16265790e+00, -7.12996609e+00, -7.24870830e+00, -6.55847649e+00, 0.00000000e+00, 2.0000000000, 10.0000000000, 0.0041580002
        4432, 6.66530711e-02, 4.49709175e-04, 0.00000000e+00, 0.00000000e+00, 0.00000000e+00, -3.67770727e-02, -1.00442693e-03, 6.66470199e-02, 0.00000000e+00, 1.48213723e+02, -7.16792208e+00, -7.14183465e+00, -7.25344603e+00, -6.56377547e+00, 0.00000000e+00, 2.0000000000, 10.0000000000, 0.0044327855
        4433, 6.66568034e-02, 4.49849193e-04, 0.00000000e+00, 0.00000000e+00, 0.00000000e+00, -3.67766624e-02, -1.00436836e-03, 6.66507543e-02, 0.00000000e+00, 1.48175887e+02, -7.17409342e+00, -7.15366079e+00, -7.25886118e+00, -6.57006754e+00, 0.00000000e+00, 2.0000000000, 10.0000000000, 0.0047753175
        4434, 6.66601969e-02, 4.49951308e-04, 0.00000000e+00, 0.00000000e+00, 0.00000000e+00, -3.67763625e-02, -1.00434030e-03, 6.66541493e-02, 0.00000000e+00, 1.48149801e+02, -7.18066692e+00, -7.16228935e+00, -7.26451476e+00, -6.57675343e+00, 0.00000000e+00, 2.0000000000, 10.0000000000, 0.0050871531
        4435, 6.66632758e-02, 4.50026071e-04, 0.00000000e+00, 0.00000000e+00, 0.00000000e+00, -3.67761465e-02, -1.00433272e-03, 6.66572290e-02, 0.00000000e+00, 1.48132031e+02, -7.18713221e+00, -7.16507082e+00, -7.27034030e+00, -6.58312746e+00, 0.00000000e+00, 2.0000000000, 10.0000000000, 0.0053606510
        4436, 6.66660714e-02, 4.50080521e-04, 0.00000000e+00, 0.00000000e+00, 0.00000000e+00, -3.67759896e-02, -1.00433927e-03, 6.66600251e-02, 0.00000000e+00, 1.48120321e+02, -7.19294707e+00, -7.16063833e+00, -7.27651692e+00, -6.58842179e+00, 0.00000000e+00, 2.0000000000, 10.0000000000, 0.0056584199
        4437, 6.66686195e-02, 4.50119901e-04, 0.00000000e+00, 0.00000000e+00, 0.00000000e+00, -3.67758717e-02, -1.00435548e-03, 6.66625735e-02, 0.00000000e+00, 1.48113023e+02, -7.19772688e+00, -7.14951470e+00, -7.28327023e+00, -6.59210794e+00, 0.00000000e+00, 2.0000000000, 10.0000000000, 0.0059239189
        4438, 6.66709529e-02, 4.50149082e-04, 0.00000000e+00, 0.00000000e+00, 0.00000000e+00, -3.67757781e-02, -1.00437721e-03, 6.66649069e-02, 0.00000000e+00, 1.48108606e+02, -7.20144092e+00, -7.13384003e+00, -7.29076992e+00, -6.59417381e+00, 0.00000000e+00, 2.0000000000, 10.0000000000, 0.0061971664
        4439, 6.66730953e-02, 4.50172769e-04, 0.00000000e+00, 0.00000000e+00, 0.00000000e+00, -3.67756996e-02, -1.00440027e-03, 6.66670493e-02, 0.00000000e+00, 1.48105571e+02, -7.20446628e+00, -7.11637544e+00, -7.29914245e+00, -6.59515755e+00, 0.00000000e+00, 2.0000000000, 10.0000000000, 0.0064506332
        4440, 6.66750620e-02, 4.50195873e-04, 0.00000000e+00, 0.00000000e+00, 0.00000000e+00, -3.67756314e-02, -1.00442007e-03, 6.66690161e-02, 0.00000000e+00, 1.48102340e+02, -7.20743667e+00, -7.09959025e+00, -7.30843767e+00, -6.59591020e+00, 0.00000000e+00, 2.0000000000, 10.0000000000, 0.0066929857
        4441, 6.66768642e-02, 4.50223932e-04, 0.00000000e+00, 0.00000000e+00, 0.00000000e+00, -3.67755710e-02, -1.00443133e-03, 6.66708184e-02, 0.00000000e+00, 1.48097112e+02, -7.21111197e+00, -7.08537290e+00, -7.31866821e+00, -6.59739010e+00, 0.00000000e+00, 2.0000000000, 10.0000000000, 0.0069421331
        4442, 6.66785121e-02, 4.50263148e-04, 0.00000000e+00, 0.00000000e+00, 0.00000000e+00, -3.67755167e-02, -1.00442808e-03, 6.66724669e-02, 0.00000000e+00, 1.48087874e+02, -7.21635749e+00, -7.07520142e+00, -7.32993696e+00, -6.60061480e+00, 0.00000000e+00, 2.0000000000, 10.0000000000, 0.0072852532
        4443, 6.66800199e-02, 4.50320293e-04, 0.00000000e+00, 0.00000000e+00, 0.00000000e+00, -3.67754649e-02, -1.00440384e-03, 6.66739756e-02, 0.00000000e+00, 1.48072430e+02, -7.22422098e+00, -7.07046173e+00, -7.34261170e+00, -6.60675154e+00, 0.00000000e+00, 2.0000000000, 10.0000000000, 0.0075848182
        4444, 6.66814079e-02, 4.50402364e-04, 0.00000000e+00, 0.00000000e+00, 0.00000000e+00, -3.67754090e-02, -1.00435207e-03, 6.66753650e-02, 0.00000000e+00, 1.48048530e+02, -7.23606639e+00, -7.07273296e+00, -7.35753333e+00, -6.61728049e+00, 0.00000000e+00, 2.0000000000, 10.0000000000, 0.0078490178
        4445, 6.66827040e-02, 4.50515807e-04, 0.00000000e+00, 0.00000000e+00, 0.00000000e+00, -3.67753383e-02, -1.00426693e-03, 6.66766633e-02, 0.00000000e+00, 1.48014127e+02, -7.25370968e+00, -7.08397169e+00, -7.37624732e+00, -6.63415779e+00, 0.00000000e+00, 2.0000000000, 10.0000000000, 0.0081013004
        4446, 6.66839433e-02, 4.50665570e-04, 0.00000000e+00, 0.00000000e+00, 0.00000000e+00, -3.67752385e-02, -1.00414423e-03, 6.66779055e-02, 0.00000000e+00, 1.47967690e+02, -7.27961883e+00, -7.10669024e+00, -7.40137289e+00, -6.66004357e+00, 0.00000000e+00, 2.0000000000, 10.0000000000, 0.0083461165
        4447, 6.66851630e-02, 4.50854046e-04, 0.00000000e+00, 0.00000000e+00, 0.00000000e+00, -3.67750951e-02, -1.00398241e-03, 6.66791290e-02, 0.00000000e+00, 1.47908538e+02, -7.31736195e+00, -7.14433451e+00, -7.43736498e+00, -6.69880281e+00, 0.00000000e+00, 2.0000000000, 10.0000000000, 0.0085912506
        4448, 6.66863869e-02, 4.51078010e-04, 0.00000000e+00, 0.00000000e+00, 0.00000000e+00, -3.67749087e-02, -1.00378520e-03, 6.66803575e-02, 0.00000000e+00, 1.47837814e+02, -7.37200048e+00, -7.20146189e+00, -7.49157191e+00, -6.75598741e+00, 0.00000000e+00, 2.0000000000, 10.0000000000, 0.0088558515
        4449, 6.66876595e-02, 4.51306961e-04, 0.00000000e+00, 0.00000000e+00, 0.00000000e+00, -3.67746750e-02, -1.00358406e-03, 6.66816348e-02, 0.00000000e+00, 1.47765634e+02, -7.44496696e+00, -7.27770096e+00, -7.57009888e+00, -6.83345664e+00, 0.00000000e+00, 2.0000000000, 10.0000000000, 0.0091044188
        4450, 6.66892098e-02, 4.51505406e-04, 0.00000000e+00, 0.00000000e+00, 0.00000000e+00, -3.67742859e-02, -1.00341948e-03, 6.66831891e-02, 0.00000000e+00, 1.47704122e+02, -7.50944584e+00, -7.34267033e+00, -7.64807494e+00, -6.90238581e+00, 0.00000000e+00, 2.0000000000, 10.0000000000, 0.0093984683
        4451, 6.66911073e-02, 4.51670618e-04, 0.00000000e+00, 0.00000000e+00, 0.00000000e+00, -3.67737109e-02, -1.00329571e-03, 6.66850898e-02, 0.00000000e+00, 1.47654297e+02, -7.54321507e+00, -7.37674518e+00, -7.69625579e+00, -6.93855783e+00, 0.00000000e+00, 2.0000000000, 10.0000000000, 0.0096622507
        4452, 6.66931487e-02, 4.51825733e-04, 0.00000000e+00, 0.00000000e+00, 0.00000000e+00, -3.67730645e-02, -1.00318516e-03, 6.66871341e-02, 0.00000000e+00, 1.47608124e+02, -7.56456331e+00, -7.40186716e+00, -7.73176850e+00, -6.96225002e+00, 0.00000000e+00, 2.0000000000, 10.0000000000, 0.0099834164
        4453, 6.66952511e-02, 4.51955566e-04, 0.00000000e+00, 0.00000000e+00, 0.00000000e+00, -3.67723987e-02, -1.00310122e-03, 6.66892388e-02, 0.00000000e+00, 1.47570372e+02, -7.58367266e+00, -7.42918136e+00, -7.76419439e+00, -6.98452998e+00, 0.00000000e+00, 2.0000000000, 10.0000000000, 0.0102436344
        4454, 6.66973515e-02, 4.52051621e-04, 0.00000000e+00, 0.00000000e+00, 0.00000000e+00, -3.67717651e-02, -1.00305101e-03, 6.66913408e-02, 0.00000000e+00, 1.47543662e+02, -7.59914984e+00, -7.45605424e+00, -7.79138548e+00, -7.00311761e+00, 0.00000000e+00, 2.0000000000, 10.0000000000, 0.0105132858
        4455, 6.66994114e-02, 4.52133622e-04, 0.00000000e+00, 0.00000000e+00, 0.00000000e+00, -3.67711968e-02, -1.00301397e-03, 6.66934020e-02, 0.00000000e+00, 1.47521459e+02, -7.60685962e+00, -7.47594966e+00, -7.80773316e+00, -7.01284299e+00, 0.00000000e+00, 2.0000000000, 10.0000000000, 0.0107652505
        4456, 6.67014024e-02, 4.52217661e-04, 0.00000000e+00, 0.00000000e+00, 0.00000000e+00, -3.67707079e-02, -1.00297338e-03, 6.66953943e-02, 0.00000000e+00, 1.47498446e+02, -7.60963217e+00, -7.49088919e+00, -7.81639964e+00, -7.01697019e+00, 0.00000000e+00, 2.0000000000, 10.0000000000, 0.0110310674
        4457, 6.67033056e-02, 4.52294879e-04, 0.00000000e+00, 0.00000000e+00, 0.00000000e+00, -3.67703005e-02, -1.00293770e-03, 6.66972988e-02, 0.00000000e+00, 1.47477473e+02, -7.61167811e+00, -7.50512243e+00, -7.82282188e+00, -7.02040098e+00, 0.00000000e+00, 2.0000000000, 10.0000000000, 0.0113226533
        4458, 6.67051098e-02, 4.52353227e-04, 0.00000000e+00, 0.00000000e+00, 0.00000000e+00, -3.67699743e-02, -1.00291872e-03, 6.66991038e-02, 0.00000000e+00, 1.47462438e+02, -7.61367010e+00, -7.51898899e+00, -7.82811361e+00, -7.02387467e+00, 0.00000000e+00, 2.0000000000, 10.0000000000, 0.0115721027
        4459, 6.67068085e-02, 4.52392796e-04, 0.00000000e+00, 0.00000000e+00, 0.00000000e+00, -3.67697245e-02, -1.00291622e-03, 6.67008030e-02, 0.00000000e+00, 1.47453295e+02, -7.61449576e+00, -7.53089673e+00, -7.83141002e+00, -7.02605790e+00, 0.00000000e+00, 2.0000000000, 10.0000000000, 0.0118240197
        4460, 6.67083953e-02, 4.52417482e-04, 0.00000000e+00, 0.00000000e+00, 0.00000000e+00, -3.67695427e-02, -1.00292615e-03, 6.67023899e-02, 0.00000000e+00, 1.47448757e+02, -7.61406962e+00, -7.54045282e+00, -7.83293414e+00, -7.02678356e+00, 0.00000000e+00, 2.0000000000, 10.0000000000, 0.0120740175
        4461, 6.67098629e-02, 4.52427810e-04, 0.00000000e+00, 0.00000000e+00, 0.00000000e+00, -3.67694199e-02, -1.00294785e-03, 6.67038575e-02, 0.00000000e+00, 1.47448635e+02, -7.61300772e+00, -7.54800599e+00, -7.83336815e+00, -7.02666268e+00, 0.00000000e+00, 2.0000000000, 10.0000000000, 0.0123872519
        4462, 6.67112085e-02, 4.52424487e-04, 0.00000000e+00, 0.00000000e+00, 0.00000000e+00, -3.67693471e-02, -1.00298052e-03, 6.67052026e-02, 0.00000000e+00, 1.47452692e+02, -7.61160938e+00, -7.55364059e+00, -7.83289691e+00, -7.02595847e+00, 0.00000000e+00, 2.0000000000, 10.0000000000, 0.0127256513
        4463, 6.67124363e-02, 4.52410802e-04, 0.00000000e+00, 0.00000000e+00, 0.00000000e+00, -3.67693142e-02, -1.00302099e-03, 6.67064298e-02, 0.00000000e+00, 1.47459866e+02, -7.61006713e+00, -7.55751457e+00, -7.83173549e+00, -7.02485124e+00, 0.00000000e+00, 2.0000000000, 10.0000000000, 0.0129880349
        4464, 6.67135562e-02, 4.52390276e-04, 0.00000000e+00, 0.00000000e+00, 0.00000000e+00, -3.67693107e-02, -1.00306594e-03, 6.67075491e-02, 0.00000000e+00, 1.47469032e+02, -7.60878018e+00, -7.56012676e+00, -7.83044690e+00, -7.02378434e+00, 0.00000000e+00, 2.0000000000, 10.0000000000, 0.0132374684
        4465, 6.67145796e-02, 4.52365528e-04, 0.00000000e+00, 0.00000000e+00, 0.00000000e+00, -3.67693275e-02, -1.00311301e-03, 6.67085717e-02, 0.00000000e+00, 1.47479362e+02, -7.60813359e+00, -7.56199390e+00, -7.82954159e+00, -7.02319767e+00, 0.00000000e+00, 2.0000000000, 10.0000000000, 0.0134977698
        4466, 6.67155180e-02, 4.52338976e-04, 0.00000000e+00, 0.00000000e+00, 0.00000000e+00, -3.67693576e-02, -1.00316002e-03, 6.67095092e-02, 0.00000000e+00, 1.47490094e+02, -7.60837766e+00, -7.56351381e+00, -7.82936488e+00, -7.02338642e+00, 0.00000000e+00, 2.0000000000, 10.0000000000, 0.0137523850
        4467, 6.67163827e-02, 4.52312770e-04, 0.00000000e+00, 0.00000000e+00, 0.00000000e+00, -3.67693954e-02, -1.00320509e-03, 6.67103732e-02, 0.00000000e+00, 1.47500551e+02, -7.60974323e+00, -7.56507995e+00, -7.83027450e+00, -7.02462971e+00, 0.00000000e+00, 2.0000000000, 10.0000000000, 0.0140085697
        4468, 6.67171842e-02, 4.52288326e-04, 0.00000000e+00, 0.00000000e+00, 0.00000000e+00, -3.67694370e-02, -1.00324701e-03, 6.67111739e-02, 0.00000000e+00, 1.47510294e+02, -7.61245956e+00, -7.56709162e+00, -7.83262058e+00, -7.02721008e+00, 0.00000000e+00, 2.0000000000, 10.0000000000, 0.0142587860
        4469, 6.67179315e-02, 4.52266423e-04, 0.00000000e+00, 0.00000000e+00, 0.00000000e+00, -3.67694797e-02, -1.00328521e-03, 6.67119205e-02, 0.00000000e+00, 1.47519091e+02, -7.61669771e+00, -7.56990693e+00, -7.83665743e+00, -7.03135020e+00, 0.00000000e+00, 2.0000000000, 10.0000000000, 0.0144971530
        4470, 6.67186325e-02, 4.52247421e-04, 0.00000000e+00, 0.00000000e+00, 0.00000000e+00, -3.67695221e-02, -1.00331950e-03, 6.67126210e-02, 0.00000000e+00, 1.47526839e+02, -7.62258939e+00, -7.57387341e+00, -7.84258968e+00, -7.03723426e+00, 0.00000000e+00, 2.0000000000, 10.0000000000, 0.0147546172
        4471, 6.67192938e-02, 4.52231294e-04, 0.00000000e+00, 0.00000000e+00, 0.00000000e+00, -3.67695635e-02, -1.00335005e-03, 6.67132818e-02, 0.00000000e+00, 1.47533562e+02, -7.63026669e+00, -7.57936785e+00, -7.85062953e+00, -7.04505257e+00, 0.00000000e+00, 2.0000000000, 10.0000000000, 0.0150053501
        4472, 6.67199209e-02, 4.52217672e-04, 0.00000000e+00, 0.00000000e+00, 0.00000000e+00, -3.67696037e-02, -1.00337735e-03, 6.67139085e-02, 0.00000000e+00, 1.47539393e+02, -7.63985053e+00, -7.58677944e+00, -7.86097519e+00, -7.05498814e+00, 0.00000000e+00, 2.0000000000, 10.0000000000, 0.0153302670
        4473, 6.67205182e-02, 4.52205997e-04, 0.00000000e+00, 0.00000000e+00, 0.00000000e+00, -3.67696432e-02, -1.00340205e-03, 6.67145053e-02, 0.00000000e+00, 1.47544523e+02, -7.65142895e+00, -7.59648128e+00, -7.87378854e+00, -7.06719183e+00, 0.00000000e+00, 2.0000000000, 10.0000000000, 0.0156012177
        4474, 6.67210888e-02, 4.52195638e-04, 0.00000000e+00, 0.00000000e+00, 0.00000000e+00, -3.67696825e-02, -1.00342485e-03, 6.67150756e-02, 0.00000000e+00, 1.47549165e+02, -7.66506364e+00, -7.60882942e+00, -7.88921552e+00, -7.08178877e+00, 0.00000000e+00, 2.0000000000, 10.0000000000, 0.0158723513
        4475, 6.67216354e-02, 4.52185935e-04, 0.00000000e+00, 0.00000000e+00, 0.00000000e+00, -3.67697224e-02, -1.00344648e-03, 6.67156219e-02, 0.00000000e+00, 1.47553540e+02, -7.68080530e+00, -7.62417389e+00, -7.90741345e+00, -7.09889494e+00, 0.00000000e+00, 2.0000000000, 10.0000000000, 0.0161151846
        4476, 6.67221598e-02, 4.52176249e-04, 0.00000000e+00, 0.00000000e+00, 0.00000000e+00, -3.67697637e-02, -1.00346760e-03, 6.67161459e-02, 0.00000000e+00, 1.47557860e+02, -7.69870315e+00, -7.64287045e+00, -7.92857057e+00, -7.11862708e+00, 0.00000000e+00, 2.0000000000, 10.0000000000, 0.0163629691
        4477, 6.67226633e-02, 4.52165988e-04, 0.00000000e+00, 0.00000000e+00, 0.00000000e+00, -3.67698071e-02, -1.00348884e-03, 6.67166491e-02, 0.00000000e+00, 1.47562322e+02, -7.71882404e+00, -7.66531052e+00, -7.95294227e+00, -7.14112409e+00, 0.00000000e+00, 2.0000000000, 10.0000000000, 0.0166135033
        4478, 6.67231469e-02, 4.52154613e-04, 0.00000000e+00, 0.00000000e+00, 0.00000000e+00, -3.67698534e-02, -1.00351077e-03, 6.67171323e-02, 0.00000000e+00, 1.47567104e+02, -7.74128006e+00, -7.69197065e+00, -7.98089885e+00, -7.16657914e+00, 0.00000000e+00, 2.0000000000, 10.0000000000, 0.0170226534
        4479, 6.67236112e-02, 4.52141636e-04, 0.00000000e+00, 0.00000000e+00, 0.00000000e+00, -3.67699032e-02, -1.00353387e-03, 6.67175962e-02, 0.00000000e+00, 1.47572366e+02, -7.76624220e+00, -7.72345971e+00, -8.01295524e+00, -7.19525667e+00, 0.00000000e+00, 2.0000000000, 10.0000000000, 0.0174302856
        4480, 6.67240566e-02, 4.52126625e-04, 0.00000000e+00, 0.00000000e+00, 0.00000000e+00, -3.67699571e-02, -1.00355859e-03, 6.67180411e-02, 0.00000000e+00, 1.47578251e+02, -7.79393015e+00, -7.76055241e+00, -8.04977332e+00, -7.22748071e+00, 0.00000000e+00, 2.0000000000, 10.0000000000, 0.0178721189
        4481, 6.67244833e-02, 4.52109223e-04, 0.00000000e+00, 0.00000000e+00, 0.00000000e+00, -3.67700157e-02, -1.00358530e-03, 6.67184674e-02, 0.00000000e+00, 1.47584875e+02, -7.82458507e+00, -7.80421393e+00, -8.09214072e+00, -7.26359867e+00, 0.00000000e+00, 2.0000000000, 10.0000000000, 0.0182051341
        4482, 6.67248913e-02, 4.52089183e-04, 0.00000000e+00, 0.00000000e+00, 0.00000000e+00, -3.67700793e-02, -1.00361423e-03, 6.67188749e-02, 0.00000000e+00, 1.47592320e+02, -7.85839502e+00, -7.85556735e+00, -8.14086146e+00, -7.30387709e+00, 0.00000000e+00, 2.0000000000, 10.0000000000, 0.0184827169
        4483, 6.67252800e-02, 4.52066478e-04, 0.00000000e+00, 0.00000000e+00, 0.00000000e+00, -3.67701481e-02, -1.00364541e-03, 6.67192630e-02, 0.00000000e+00, 1.47600592e+02, -7.89527948e+00, -7.91561335e+00, -8.19635566e+00, -7.34819713e+00, 0.00000000e+00, 2.0000000000, 10.0000000000, 0.0188169837
        4484, 6.67256475e-02, 4.52041588e-04, 0.00000000e+00, 0.00000000e+00, 0.00000000e+00, -3.67702212e-02, -1.00367832e-03, 6.67196298e-02, 0.00000000e+00, 1.47609533e+02, -7.93424913e+00, -7.98400004e+00, -8.25733155e+00, -7.39515244e+00, 0.00000000e+00, 2.0000000000, 10.0000000000, 0.0190836350
        4485, 6.67259871e-02, 4.52015545e-04, 0.00000000e+00, 0.00000000e+00, 0.00000000e+00, -3.67702973e-02, -1.00371176e-03, 6.67199688e-02, 0.00000000e+00, 1.47618788e+02, -7.97160536e+00, -8.05461097e+00, -8.31685617e+00, -7.43954937e+00, 0.00000000e+00, 2.0000000000, 10.0000000000, 0.0193410516
        4486, 6.67262826e-02, 4.51988301e-04, 0.00000000e+00, 0.00000000e+00, 0.00000000e+00, -3.67703767e-02, -1.00374544e-03, 6.67202636e-02, 0.00000000e+00, 1.47628340e+02, -7.99783928e+00, -8.10638847e+00, -8.35571521e+00, -7.46840462e+00, 0.00000000e+00, 2.0000000000, 10.0000000000, 0.0195825179
        4487, 6.67265182e-02, 4.51957431e-04, 0.00000000e+00, 0.00000000e+00, 0.00000000e+00, -3.67704630e-02, -1.00378145e-03, 6.67204985e-02, 0.00000000e+00, 1.47638945e+02, -8.00113386e+00, -8.11294574e+00, -8.35197641e+00, -7.46717492e+00, 0.00000000e+00, 2.0000000000, 10.0000000000, 0.0198338668
        4488, 6.67266951e-02, 4.51924364e-04, 0.00000000e+00, 0.00000000e+00, 0.00000000e+00, -3.67705575e-02, -1.00381836e-03, 6.67206746e-02, 0.00000000e+00, 1.47650139e+02, -7.98649635e+00, -8.08967086e+00, -8.31911297e+00, -7.44515344e+00, 0.00000000e+00, 2.0000000000, 10.0000000000, 0.0201015353
        4489, 6.67268240e-02, 4.51892541e-04, 0.00000000e+00, 0.00000000e+00, 0.00000000e+00, -3.67706575e-02, -1.00385299e-03, 6.67208028e-02, 0.00000000e+00, 1.47660822e+02, -7.96948082e+00, -8.06669267e+00, -8.28685034e+00, -7.42273340e+00, 0.00000000e+00, 2.0000000000, 10.0000000000, 0.0203493198
        4490, 6.67269154e-02, 4.51862645e-04, 0.00000000e+00, 0.00000000e+00, 0.00000000e+00, -3.67707596e-02, -1.00388487e-03, 6.67208935e-02, 0.00000000e+00, 1.47670794e+02, -7.95814750e+00, -8.05270238e+00, -8.26654693e+00, -7.40852227e+00, 0.00000000e+00, 2.0000000000, 10.0000000000, 0.0206071019
        4491, 6.67269809e-02, 4.51834743e-04, 0.00000000e+00, 0.00000000e+00, 0.00000000e+00, -3.67708578e-02, -1.00391420e-03, 6.67209584e-02, 0.00000000e+00, 1.47680058e+02, -7.95355906e+00, -8.04509091e+00, -8.25631304e+00, -7.40246648e+00, 0.00000000e+00, 2.0000000000, 10.0000000000, 0.0208624164
        4492, 6.67270324e-02, 4.51808349e-04, 0.00000000e+00, 0.00000000e+00, 0.00000000e+00, -3.67709473e-02, -1.00394171e-03, 6.67210093e-02, 0.00000000e+00, 1.47688799e+02, -7.95304425e+00, -8.04078565e+00, -8.25099735e+00, -7.40100847e+00, 0.00000000e+00, 2.0000000000, 10.0000000000, 0.0211382349
        4493, 6.67270766e-02, 4.51783520e-04, 0.00000000e+00, 0.00000000e+00, 0.00000000e+00, -3.67710274e-02, -1.00396750e-03, 6.67210530e-02, 0.00000000e+00, 1.47697013e+02, -7.95709018e+00, -8.04308859e+00, -8.25220494e+00, -7.40512263e+00, 0.00000000e+00, 2.0000000000, 10.0000000000, 0.0213985840
        4494, 6.67271194e-02, 4.51761102e-04, 0.00000000e+00, 0.00000000e+00, 0.00000000e+00, -3.67710967e-02, -1.00399084e-03, 6.67210952e-02, 0.00000000e+00, 1.47704437e+02, -7.96627919e+00, -8.05439081e+00, -8.26116622e+00, -7.41569723e+00, 0.00000000e+00, 2.0000000000, 10.0000000000, 0.0216484189
        4495, 6.67271633e-02, 4.51741339e-04, 0.00000000e+00, 0.00000000e+00, 0.00000000e+00, -3.67711556e-02, -1.00401156e-03, 6.67211387e-02, 0.00000000e+00, 1.47710996e+02, -7.97752500e+00, -8.07029715e+00, -8.27372342e+00, -7.42875018e+00, 0.00000000e+00, 2.0000000000, 10.0000000000, 0.0219559352
        4496, 6.67272060e-02, 4.51723970e-04, 0.00000000e+00, 0.00000000e+00, 0.00000000e+00, -3.67712067e-02, -1.00402986e-03, 6.67211810e-02, 0.00000000e+00, 1.47716770e+02, -7.98921594e+00, -8.08804501e+00, -8.28779008e+00, -7.44222767e+00, 0.00000000e+00, 2.0000000000, 10.0000000000, 0.0222397526
        4497, 6.67272451e-02, 4.51708936e-04, 0.00000000e+00, 0.00000000e+00, 0.00000000e+00, -3.67712523e-02, -1.00404574e-03, 6.67212198e-02, 0.00000000e+00, 1.47721773e+02, -8.00008659e+00, -8.10513537e+00, -8.30109117e+00, -7.45455123e+00, 0.00000000e+00, 2.0000000000, 10.0000000000, 0.0225288351
        4498, 6.67272794e-02, 4.51696294e-04, 0.00000000e+00, 0.00000000e+00, 0.00000000e+00, -3.67712933e-02, -1.00405913e-03, 6.67212538e-02, 0.00000000e+00, 1.47725984e+02, -8.00873159e+00, -8.11847550e+00, -8.31104707e+00, -7.46391140e+00, 0.00000000e+00, 2.0000000000, 10.0000000000, 0.0228024364
        4499, 6.67273082e-02, 4.51686095e-04, 0.00000000e+00, 0.00000000e+00, 0.00000000e+00, -3.67713304e-02, -1.00406995e-03, 6.67212824e-02, 0.00000000e+00, 1.47729383e+02, -8.01581918e+00, -8.12897030e+00, -8.31873348e+00, -7.47127269e+00, 0.00000000e+00, 2.0000000000, 10.0000000000, 0.0230620027
        4500, 6.67273317e-02, 4.51678564e-04, 0.00000000e+00, 0.00000000e+00, 0.00000000e+00, -3.67713638e-02, -1.00407799e-03, 6.67213057e-02, 0.00000000e+00, 1.47731898e+02, -8.02238040e+00, -8.13848720e+00, -8.32592372e+00, -7.47802562e+00, 0.00000000e+00, 2.0000000000, 10.0000000000, 0.0233086189
        4501, 6.67273513e-02, 4.51673961e-04, 0.00000000e+00, 0.00000000e+00, 0.00000000e+00, -3.67713931e-02, -1.00408302e-03, 6.67213252e-02, 0.00000000e+00, 1.47733447e+02, -8.02903293e+00, -8.14795030e+00, -8.33354287e+00, -7.48490208e+00, 0.00000000e+00, 2.0000000000, 10.0000000000, 0.0235538522
        4502, 6.67273688e-02, 4.51672323e-04, 0.00000000e+00, 0.00000000e+00, 0.00000000e+00, -3.67714179e-02, -1.00408504e-03, 6.67213426e-02, 0.00000000e+00, 1.47734022e+02, -8.03602318e+00, -8.15755852e+00, -8.34179392e+00, -7.49213360e+00, 0.00000000e+00, 2.0000000000, 10.0000000000, 0.0237989863
        4503, 6.67273853e-02, 4.51673378e-04, 0.00000000e+00, 0.00000000e+00, 0.00000000e+00, -3.67714383e-02, -1.00408435e-03, 6.67213592e-02, 0.00000000e+00, 1.47733713e+02, -8.04342629e+00, -8.16742586e+00, -8.35063512e+00, -7.49978449e+00, 0.00000000e+00, 2.0000000000, 10.0000000000, 0.0240508676
        4504, 6.67274017e-02, 4.51676577e-04, 0.00000000e+00, 0.00000000e+00, 0.00000000e+00, -3.67714549e-02, -1.00408151e-03, 6.67213756e-02, 0.00000000e+00, 1.47732703e+02, -8.05133724e+00, -8.17796383e+00, -8.36012677e+00, -7.50799621e+00, 0.00000000e+00, 2.0000000000, 10.0000000000, 0.0243187030
        4505, 6.67274178e-02, 4.51681205e-04, 0.00000000e+00, 0.00000000e+00, 0.00000000e+00, -3.67714686e-02, -1.00407723e-03, 6.67213918e-02, 0.00000000e+00, 1.47731225e+02, -8.05989137e+00, -8.18974660e+00, -8.37044145e+00, -7.51697506e+00, 0.00000000e+00, 2.0000000000, 10.0000000000, 0.0245642503
        4506, 6.67274332e-02, 4.51686500e-04, 0.00000000e+00, 0.00000000e+00, 0.00000000e+00, -3.67714802e-02, -1.00407227e-03, 6.67214074e-02, 0.00000000e+00, 1.47729527e+02, -8.06925295e+00, -8.20332452e+00, -8.38181838e+00, -7.52694845e+00, 0.00000000e+00, 2.0000000000, 10.0000000000, 0.0248215199
        4507, 6.67274472e-02, 4.51691753e-04, 0.00000000e+00, 0.00000000e+00, 0.00000000e+00, -3.67714907e-02, -1.00406733e-03, 6.67214215e-02, 0.00000000e+00, 1.47727841e+02, -8.07961604e+00, -8.21919859e+00, -8.39455527e+00, -7.53816098e+00, 0.00000000e+00, 2.0000000000, 10.0000000000, 0.0250700514
        4508, 6.67274591e-02, 4.51696369e-04, 0.00000000e+00, 0.00000000e+00, 0.00000000e+00, -3.67715008e-02, -1.00406297e-03, 6.67214335e-02, 0.00000000e+00, 1.47726357e+02, -8.09120180e+00, -8.23787641e+00, -8.40900901e+00, -7.55087731e+00, 0.00000000e+00, 2.0000000000, 10.0000000000, 0.0253297170
        4509, 6.67274684e-02, 4.51699930e-04, 0.00000000e+00, 0.00000000e+00, 0.00000000e+00, -3.67715110e-02, -1.00405961e-03, 6.67214428e-02, 0.00000000e+00, 1.47725213e+02, -8.10421985e+00, -8.25985831e+00, -8.42552887e+00, -7.56533668e+00, 0.00000000e+00, 2.0000000000, 10.0000000000, 0.0255873839
        4510, 6.67274745e-02, 4.51702210e-04, 0.00000000e+00, 0.00000000e+00, 0.00000000e+00, -3.67715215e-02, -1.00405747e-03, 6.67214490e-02, 0.00000000e+00, 1.47724481e+02, -8.11882037e+00, -8.28557273e+00, -8.44435723e+00, -7.58169379e+00, 0.00000000e+00, 2.0000000000, 10.0000000000, 0.0258739193
        4511, 6.67274770e-02, 4.51703168e-04, 0.00000000e+00, 0.00000000e+00, 0.00000000e+00, -3.67715326e-02, -1.00405656e-03, 6.67214516e-02, 0.00000000e+00, 1.47724173e+02, -8.13506439e+00, -8.31533218e+00, -8.46555714e+00, -7.59998496e+00, 0.00000000e+00, 2.0000000000, 10.0000000000, 0.0261731029
        4512, 6.67274758e-02, 4.51702906e-04, 0.00000000e+00, 0.00000000e+00, 0.00000000e+00, -3.67715444e-02, -1.00405680e-03, 6.67214503e-02, 0.00000000e+00, 1.47724256e+02, -8.15293429e+00, -8.34937864e+00, -8.48901166e+00, -7.62014983e+00, 0.00000000e+00, 2.0000000000, 10.0000000000, 0.0264276187
        4513, 6.67274703e-02, 4.51701618e-04, 0.00000000e+00, 0.00000000e+00, 0.00000000e+00, -3.67715571e-02, -1.00405797e-03, 6.67214447e-02, 0.00000000e+00, 1.47724665e+02, -8.17234887e+00, -8.38794711e+00, -8.51444267e+00, -7.64205781e+00, 0.00000000e+00, 2.0000000000, 10.0000000000, 0.0266853333
        4514, 6.67274600e-02, 4.51699547e-04, 0.00000000e+00, 0.00000000e+00, 0.00000000e+00, -3.67715708e-02, -1.00405981e-03, 6.67214344e-02, 0.00000000e+00, 1.47725320e+02, -8.19315463e+00, -8.43126051e+00, -8.54139664e+00, -7.66549937e+00, 0.00000000e+00, 2.0000000000, 10.0000000000, 0.0269307335
        4515, 6.67274442e-02, 4.51696938e-04, 0.00000000e+00, 0.00000000e+00, 0.00000000e+00, -3.67715858e-02, -1.00406208e-03, 6.67214186e-02, 0.00000000e+00, 1.47726138e+02, -8.21507060e+00, -8.47936390e+00, -8.56915910e+00, -7.69011598e+00, 0.00000000e+00, 2.0000000000, 10.0000000000, 0.0271841168
        4516, 6.67274223e-02, 4.51694005e-04, 0.00000000e+00, 0.00000000e+00, 0.00000000e+00, -3.67716022e-02, -1.00406453e-03, 6.67213966e-02, 0.00000000e+00, 1.47727049e+02, -8.23755041e+00, -8.53154853e+00, -8.59652760e+00, -7.71522276e+00, 0.00000000e+00, 2.0000000000, 10.0000000000, 0.0274261514