# vtk DataFile Version 3.0
vtk output
ASCII
DATASET UNSTRUCTURED_GRID
POINTS 5233 float
9.997500e-01	-3.633243e-05	0.0	9.990000e-01	-1.454723e-04	0.0	9.977600e-01	-3.275075e-04	0.0	9.960200e-01	-5.899280e-04	0.0	9.937800e-01	-9.470980e-04	0.0	9.910500e-01	-1.422105e-03	0.0	9.878400e-01	-2.045538e-03	0.0	9.841300e-01	-2.853717e-03	0.0	9.799500e-01	-3.858958e-03	0.0	9.752800e-01	-5.058421e-03	0.0	9.701500e-01	-6.405289e-03	0.0	9.645400e-01	-7.841083e-03	0.0	9.584700e-01	-9.290462e-03	0.0	9.519400e-01	-1.069807e-02	0.0	9.449600e-01	-1.203595e-02	0.0	9.375400e-01	-1.330850e-02	0.0	9.296900e-01	-1.454303e-02	0.0	9.214000e-01	-1.577783e-02	0.0	9.127000e-01	-1.704015e-02	0.0	9.035800e-01	-1.835101e-02	0.0	8.940600e-01	-1.971407e-02	0.0	8.841500e-01	-2.112472e-02	0.0	8.738500e-01	-2.257474e-02	0.0	8.631800e-01	-2.405204e-02	0.0	8.521600e-01	-2.554596e-02	0.0	8.407700e-01	-2.705334e-02	0.0	8.290500e-01	-2.856493e-02	0.0	8.170100e-01	-3.007690e-02	0.0	8.046400e-01	-3.158841e-02	0.0	7.919700e-01	-3.309383e-02	0.0	7.790100e-01	-3.458988e-02	0.0	7.657800e-01	-3.607194e-02	0.0	7.522800e-01	-3.753747e-02	0.0	7.385200e-01	-3.898261e-02	0.0	7.245300e-01	-4.040149e-02	0.0	7.103200e-01	-4.179049e-02	0.0	6.958900e-01	-4.314703e-02	0.0	6.812700e-01	-4.446594e-02	0.0	6.664700e-01	-4.574419e-02	0.0	6.515000e-01	-4.697903e-02	0.0	6.363800e-01	-4.816714e-02	0.0	6.211300e-01	-4.930560e-02	0.0	6.057600e-01	-5.039256e-02	0.0	5.902800e-01	-5.142639e-02	0.0	5.747100e-01	-5.240503e-02	0.0	5.590600e-01	-5.332733e-02	0.0	5.433600e-01	-5.419119e-02	0.0	5.276100e-01	-5.499641e-02	0.0	5.118400e-01	-5.574137e-02	0.0	4.960500e-01	-5.642599e-02	0.0	4.802700e-01	-5.704894e-02	0.0	4.645100e-01	-5.760982e-02	0.0	4.487800e-01	-5.810817e-02	0.0	4.331100e-01	-5.854290e-02	0.0	4.175000e-01	-5.891380e-02	0.0	4.019700e-01	-5.921995e-02	0.0	3.865400e-01	-5.946049e-02	0.0	3.712300e-01	-5.963452e-02	0.0	3.560400e-01	-5.974124e-02	0.0	3.409900e-01	-5.977951e-02	0.0	3.261100e-01	-5.974822e-02	0.0	3.114000e-01	-5.964621e-02	0.0	2.968700e-01	-5.947214e-02	0.0	2.825500e-01	-5.922489e-02	0.0	2.684500e-01	-5.890320e-02	0.0	2.545700e-01	-5.850537e-02	0.0	2.409400e-01	-5.803054e-02	0.0	2.275700e-01	-5.747744e-02	0.0	2.144700e-01	-5.684477e-02	0.0	2.016600e-01	-5.613184e-02	0.0	1.891400e-01	-5.533699e-02	0.0	1.769300e-01	-5.445979e-02	0.0	1.650400e-01	-5.349940e-02	0.0	1.534900e-01	-5.245604e-02	0.0	1.422900e-01	-5.132943e-02	0.0	1.314400e-01	-5.011832e-02	0.0	1.209500e-01	-4.882245e-02	0.0	1.108500e-01	-4.744461e-02	0.0	1.011300e-01	-4.598263e-02	0.0	9.181000e-02	-4.443861e-02	0.0	8.290000e-02	-4.281368e-02	0.0	7.440000e-02	-4.110719e-02	0.0	6.633000e-02	-3.932268e-02	0.0	5.869000e-02	-3.745985e-02	0.0	5.149000e-02	-3.552072e-02	0.0	4.474000e-02	-3.350782e-02	0.0	3.844000e-02	-3.142082e-02	0.0	3.260000e-02	-2.926258e-02	0.0	2.723000e-02	-2.703678e-02	0.0	2.232000e-02	-2.473840e-02	0.0	1.790000e-02	-2.238143e-02	0.0	1.395000e-02	-1.995504e-02	0.0	1.049000e-02	-1.747051e-02	0.0	7.520000e-03	-1.492873e-02	0.0	5.040000e-03	-1.232990e-02	0.0	3.050000e-03	-9.672479e-03	0.0	1.560000e-03	-6.971709e-03	0.0	5.600000e-04	-4.206447e-03	0.0	6.000000e-05	-1.384059e-03	0.0	0.000000e+00	0.000000e+00	0.0	6.000000e-05	1.263762e-03	0.0	5.600000e-04	3.625153e-03	0.0	1.560000e-03	5.789051e-03	0.0	3.050000e-03	7.807195e-03	0.0	5.040000e-03	9.724601e-03	0.0	7.520000e-03	1.154902e-02	0.0	1.049000e-02	1.329543e-02	0.0	1.395000e-02	1.497435e-02	0.0	1.790000e-02	1.659370e-02	0.0	2.232000e-02	1.815308e-02	0.0	2.723000e-02	1.966565e-02	0.0	3.260000e-02	2.112729e-02	0.0	3.844000e-02	2.254568e-02	0.0	4.474000e-02	2.392219e-02	0.0	5.149000e-02	2.525821e-02	0.0	5.869000e-02	2.655674e-02	0.0	6.633000e-02	2.781852e-02	0.0	7.440000e-02	2.904421e-02	0.0	8.290000e-02	3.023574e-02	0.0	9.181000e-02	3.139199e-02	0.0	1.011300e-01	3.251447e-02	0.0	1.108500e-01	3.360316e-02	0.0	1.209500e-01	3.465693e-02	0.0	1.314400e-01	3.567763e-02	0.0	1.422900e-01	3.666297e-02	0.0	1.534900e-01	3.761269e-02	0.0	1.650400e-01	3.852716e-02	0.0	1.769300e-01	3.940568e-02	0.0	1.891400e-01	4.024679e-02	0.0	2.016600e-01	4.104970e-02	0.0	2.144700e-01	4.181292e-02	0.0	2.275700e-01	4.253602e-02	0.0	2.409400e-01	4.321731e-02	0.0	2.545700e-01	4.385554e-02	0.0	2.684500e-01	4.444929e-02	0.0	2.825500e-01	4.499627e-02	0.0	2.968700e-01	4.549529e-02	0.0	3.114000e-01	4.594459e-02	0.0	3.261100e-01	4.634169e-02	0.0	3.409900e-01	4.668473e-02	0.0	3.560400e-01	4.697184e-02	0.0	3.712300e-01	4.720043e-02	0.0	3.865400e-01	4.736823e-02	0.0	4.019700e-01	4.747306e-02	0.0	4.175000e-01	4.751250e-02	0.0	4.331100e-01	4.748417e-02	0.0	4.487800e-01	4.738586e-02	0.0	4.645100e-01	4.721521e-02	0.0	4.802700e-01	4.697025e-02	0.0	4.960500e-01	4.664895e-02	0.0	5.118400e-01	4.624941e-02	0.0	5.276100e-01	4.577047e-02	0.0	5.433600e-01	4.521045e-02	0.0	5.590600e-01	4.456898e-02	0.0	5.747100e-01	4.384495e-02	0.0	5.902800e-01	4.303900e-02	0.0	6.057600e-01	4.215139e-02	0.0	6.211300e-01	4.118352e-02	0.0	6.363800e-01	4.013677e-02	0.0	6.515000e-01	3.901310e-02	0.0	6.664700e-01	3.781585e-02	0.0	6.812700e-01	3.654924e-02	0.0	6.958900e-01	3.521742e-02	0.0	7.103200e-01	3.382520e-02	0.0	7.245300e-01	3.238014e-02	0.0	7.385200e-01	3.088759e-02	0.0	7.522800e-01	2.935448e-02	0.0	7.657800e-01	2.779071e-02	0.0	7.790100e-01	2.620467e-02	0.0	7.919700e-01	2.460399e-02	0.0	8.046400e-01	2.299920e-02	0.0	8.170100e-01	2.139994e-02	0.0	8.290500e-01	1.981856e-02	0.0	8.407700e-01	1.826184e-02	0.0	8.521600e-01	1.673825e-02	0.0	8.631800e-01	1.525860e-02	0.0	8.738500e-01	1.382340e-02	0.0	8.841500e-01	1.243584e-02	0.0	8.940600e-01	1.109715e-02	0.0	9.035800e-01	9.805627e-03	0.0	9.127000e-01	8.563977e-03	0.0	9.214000e-01	7.383147e-03	0.0	9.296900e-01	6.279698e-03	0.0	9.375400e-01	5.284594e-03	0.0	9.449600e-01	4.426980e-03	0.0	9.519400e-01	3.731773e-03	0.0	9.584700e-01	3.205089e-03	0.0	9.645400e-01	2.826749e-03	0.0	9.701500e-01	2.551894e-03	0.0	9.752800e-01	2.324719e-03	0.0	9.799500e-01	2.092988e-03	0.0	9.841300e-01	1.826981e-03	0.0	9.878400e-01	1.519878e-03	0.0	9.910500e-01	1.190191e-03	0.0	9.937800e-01	8.630179e-04	0.0	9.960200e-01	5.666252e-04	0.0	9.977600e-01	3.231880e-04	0.0	9.990000e-01	1.450783e-04	0.0	9.997500e-01	3.632619e-05	0.0	1.000000e+00	0.000000e+00	0.0	1.984229e+01	2.506660e+00	0.0	1.937166e+01	4.973800e+00	0.0	1.859553e+01	7.362490e+00	0.0	1.752613e+01	9.635070e+00	0.0	1.618034e+01	1.175571e+01	0.0	1.457937e+01	1.369094e+01	0.0	1.274848e+01	1.541027e+01	0.0	1.071654e+01	1.688656e+01	0.0	8.515590e+00	1.809654e+01	0.0	6.180340e+00	1.902113e+01	0.0	3.747630e+00	1.964575e+01	0.0	1.255810e+00	1.996053e+01	0.0	-1.255810e+00	1.996053e+01	0.0	-3.747630e+00	1.964574e+01	0.0	-6.180340e+00	1.902113e+01	0.0	-8.515590e+00	1.809654e+01	0.0	-1.071654e+01	1.688656e+01	0.0	-1.274848e+01	1.541026e+01	0.0	-1.457937e+01	1.369094e+01	0.0	-1.618034e+01	1.175570e+01	0.0	-1.752613e+01	9.635070e+00	0.0	-1.859553e+01	7.362490e+00	0.0	-1.937166e+01	4.973800e+00	0.0	-1.984229e+01	2.506660e+00	0.0	-2.000000e+01	0.000000e+00	0.0	-1.984229e+01	-2.506670e+00	0.0	-1.937166e+01	-4.973800e+00	0.0	-1.859553e+01	-7.362490e+00	0.0	-1.752613e+01	-9.635080e+00	0.0	-1.618034e+01	-1.175571e+01	0.0	-1.457937e+01	-1.369094e+01	0.0	-1.274848e+01	-1.541027e+01	0.0	-1.071653e+01	-1.688656e+01	0.0	-8.515580e+00	-1.809654e+01	0.0	-6.180340e+00	-1.902113e+01	0.0	-3.747620e+00	-1.964575e+01	0.0	-1.255810e+00	-1.996053e+01	0.0	1.255810e+00	-1.996053e+01	0.0	3.747630e+00	-1.964574e+01	0.0	6.180340e+00	-1.902113e+01	0.0	8.515590e+00	-1.809654e+01	0.0	1.071654e+01	-1.688656e+01	0.0	1.274848e+01	-1.541026e+01	0.0	1.457937e+01	-1.369094e+01	0.0	1.618034e+01	-1.175570e+01	0.0	1.752614e+01	-9.635070e+00	0.0	1.859553e+01	-7.362490e+00	0.0	1.937166e+01	-4.973790e+00	0.0	1.984229e+01	-2.506660e+00	0.0	2.000000e+01	0.000000e+00	0.0	6.074232e-02	-4.532292e-02	0.0	6.601883e-01	-6.002284e-02	0.0	4.255533e-01	6.172250e-02	0.0	6.897642e-01	4.910510e-02	0.0	3.791232e-01	-7.360643e-02	0.0	9.994675e-01	-7.275899e-04	0.0	9.985544e-01	-1.331423e-03	0.0	7.738132e-01	-4.740097e-02	0.0	6.898600e-01	-5.714906e-02	0.0	-1.127257e-03	5.516851e-03	0.0	7.467800e-01	-5.080839e-02	0.0	5.833311e-01	5.753321e-02	0.0	9.928160e-01	-3.736245e-03	0.0	9.899359e-01	-4.744206e-03	0.0	5.989072e-01	5.659831e-02	0.0	7.187646e-01	-5.406452e-02	0.0	-1.468734e-03	5.998235e-04	0.0	9.865725e-01	-5.906519e-03	0.0	9.827328e-01	-7.226442e-03	0.0	-1.302148e-03	-6.473325e-03	0.0	6.451051e-01	-6.137343e-02	0.0	8.244819e-01	-4.029871e-02	0.0	7.997421e-01	-4.389506e-02	0.0	3.484810e-01	6.060825e-02	0.0	8.479020e-01	-3.666824e-02	0.0	2.473656e-01	5.609847e-02	0.0	8.699420e-01	-3.302789e-02	0.0	1.046390e-02	1.734422e-02	0.0	8.904957e-01	-2.943380e-02	0.0	7.702145e-02	-4.970090e-02	0.0	9.094909e-01	-2.594074e-02	0.0	-1.766846e-03	-3.207111e-03	0.0	9.424826e-01	-1.916863e-02	0.0	9.268474e-01	-2.255062e-02	0.0	1.794773e-02	-2.749814e-02	0.0	4.257416e-01	-7.303727e-02	0.0	8.591036e-01	-3.484386e-02	0.0	9.563355e-01	-1.566721e-02	0.0	9.784088e-01	-8.725432e-03	0.0	9.683301e-01	-1.208084e-02	0.0	1.582633e-01	-6.357514e-02	0.0	9.001950e-01	-2.767267e-02	0.0	7.604294e-01	-4.912050e-02	0.0	9.971359e-01	-2.087284e-03	0.0	5.990500e-01	-6.504604e-02	0.0	4.414441e-01	-7.268743e-02	0.0	5.363196e-01	-6.898099e-02	0.0	4.730157e-01	-7.175500e-02	0.0	5.046766e-01	-7.051761e-02	0.0	4.888342e-01	-7.117324e-02	0.0	1.249493e-01	-5.906687e-02	0.0	2.784408e-02	-3.297801e-02	0.0	3.945689e-01	-7.349845e-02	0.0	4.621895e-02	-4.062479e-02	0.0	4.101097e-01	-7.330906e-02	0.0	3.187147e-01	-7.321444e-02	0.0	3.486125e-01	-7.358115e-02	0.0	3.350764e-02	-3.559141e-02	0.0	2.895104e-01	-7.250904e-02	0.0	9.348849e-01	-2.086649e-02	0.0	1.468046e-01	-6.216308e-02	0.0	1.946434e-01	-6.723489e-02	0.0	8.579566e-02	-5.175858e-02	0.0	1.045869e-01	-5.560577e-02	0.0	5.678223e-01	-6.716126e-02	0.0	1.700658e-01	-6.489340e-02	0.0	6.145275e-01	-6.388435e-02	0.0	8.804132e-01	-3.122241e-02	0.0	2.266805e-02	-3.027858e-02	0.0	9.952218e-01	-2.870142e-03	0.0	6.736266e-03	-1.882243e-02	0.0	1.849208e-02	2.151307e-02	0.0	9.183776e-01	-2.423620e-02	0.0	9.49640
[...]
POINT_DATA 5233

SCALARS Conservative_1 float 1
LOOKUP_TABLE default
1.199829e+00	1.181604e+00	1.171180e+00	1.164741e+00	1.160168e+00	1.155704e+00	1.148819e+00	1.137901e+00	1.121720e+00	1.100365e+00	1.075075e+00	1.048463e+00	1.024894e+00	1.008359e+00	9.999844e-01	9.979259e-01	9.990352e-01	1.000478e+00	1.000505e+00	9.985164e-01	9.947326e-01	9.897107e-01	9.840361e-01	9.781803e-01	9.724211e-01	9.668694e-01	9.615164e-01	9.563157e-01	9.512025e-01	9.461454e-01	9.411285e-01	9.361079e-01	9.310497e-01	9.259703e-01	9.209208e-01	9.159497e-01	9.110758e-01	9.063035e-01	9.016442e-01	8.971144e-01	8.927137e-01	8.884528e-01	8.843141e-01	8.803142e-01	8.764682e-01	8.728276e-01	8.693819e-01	8.660671e-01	8.627360e-01	8.593791e-01	8.561987e-01	8.535488e-01	8.515432e-01	8.498900e-01	8.479165e-01	8.448713e-01	8.402546e-01	8.342136e-01	8.276275e-01	8.217531e-01	8.174775e-01	8.149940e-01	8.140304e-01	8.141536e-01	8.150539e-01	8.165321e-01	8.185387e-01	8.209901e-01	8.238001e-01	8.268562e-01	8.301774e-01	8.339268e-01	8.383513e-01	8.435191e-01	8.493535e-01	8.557082e-01	8.626480e-01	8.703512e-01	8.788748e-01	8.882582e-01	8.986131e-01	9.099985e-01	9.225658e-01	9.364328e-01	9.517896e-01	9.689131e-01	9.880317e-01	1.009504e+00	1.033816e+00	1.061282e+00	1.092433e+00	1.127737e+00	1.167041e+00	1.209884e+00	1.254555e+00	1.298042e+00	1.331744e+00	1.350900e+00	1.339536e+00	1.308274e+00	1.284263e+00	1.221105e+00	1.099470e+00	1.001992e+00	9.259951e-01	8.702845e-01	8.323008e-01	8.072954e-01	7.904624e-01	7.790620e-01	7.713990e-01	7.663042e-01	7.632181e-01	7.614032e-01	7.604854e-01	7.604611e-01	7.612018e-01	7.624706e-01	7.639460e-01	7.653010e-01	7.665523e-01	7.680238e-01	7.699740e-01	7.722529e-01	7.744612e-01	7.763711e-01	7.780744e-01	7.797180e-01	7.814049e-01	7.832056e-01	7.851751e-01	7.872973e-01	7.894992e-01	7.916806e-01	7.937982e-01	7.958265e-01	7.977559e-01	7.995480e-01	8.012118e-01	8.028627e-01	8.047133e-01	8.069209e-01	8.095361e-01	8.125229e-01	8.158842e-01	8.196785e-01	8.239319e-01	8.286082e-01	8.335363e-01	8.385151e-01	8.433469e-01	8.480939e-01	8.530535e-01	8.585733e-01	8.647113e-01	8.712354e-01	8.779240e-01	8.847768e-01	8.919625e-01	8.995288e-01	9.074241e-01	9.155601e-01	9.238881e-01	9.323958e-01	9.410538e-01	9.498489e-01	9.587305e-01	9.676811e-01	9.766264e-01	9.855689e-01	9.944257e-01	1.003116e+00	1.011577e+00	1.019726e+00	1.027514e+00	1.034923e+00	1.041997e+00	1.048918e+00	1.055944e+00	1.063465e+00	1.071778e+00	1.080980e+00	1.090688e+00	1.100040e+00	1.107786e+00	1.112591e+00	1.113364e+00	1.109744e+00	1.102493e+00	1.093777e+00	1.086674e+00	1.084156e+00	1.088060e+00	1.098276e+00	1.112850e+00	1.130015e+00	1.148478e+00	1.168636e+00	1.192714e+00	1.181127e+00	9.999764e-01	9.999694e-01	9.999527e-01	9.999288e-01	9.999046e-01	9.998765e-01	9.998368e-01	9.997816e-01	9.997189e-01	9.996668e-01	9.996324e-01	9.996439e-01	9.996983e-01	9.998090e-01	9.999041e-01	9.999809e-01	1.000023e+00	1.000049e+00	1.000064e+00	1.000070e+00	1.000073e+00	1.000074e+00	1.000074e+00	1.000076e+00	1.000077e+00	1.000080e+00	1.000085e+00	1.000092e+00	1.000101e+00	1.000114e+00	1.000129e+00	1.000150e+00	1.000169e+00	1.000196e+00	1.000213e+00	1.000224e+00	1.000226e+00	1.000213e+00	1.000203e+00	1.000190e+00	1.000183e+00	1.000168e+00	1.000151e+00	1.000130e+00	1.000106e+00	1.000078e+00	1.000060e+00	1.000046e+00	1.000013e+00	9.999797e-01	9.443137e-01	9.020599e-01	8.214254e-01	9.232746e-01	8.406880e-01	1.183062e+00	1.173571e+00	9.407976e-01	9.112651e-01	1.217019e+00	9.308244e-01	8.720873e-01	1.151719e+00	1.144989e+00	8.787021e-01	9.208829e-01	1.307642e+00	1.136017e+00	1.123650e+00	1.337687e+00	8.976429e-01	9.608977e-01	9.507368e-01	8.072923e-01	9.714687e-01	7.943442e-01	9.825751e-01	8.784342e-01	9.931855e-01	9.171134e-01	1.000614e+00	1.344666e+00	1.006085e+00	1.002998e+00	1.100361e+00	8.522877e-01	9.769785e-01	1.025354e+00	1.107397e+00	1.065588e+00	8.484365e-01	9.974943e-01	9.358307e-01	1.164148e+00	8.851285e-01	8.538338e-01	8.706303e-01	8.576870e-01	8.639652e-01	8.606362e-01	8.683157e-01	1.042979e+00	8.461761e-01	9.775363e-01	8.499735e-01	8.197364e-01	8.278172e-01	1.018700e+00	8.182240e-01	1.003608e+00	8.544589e-01	8.348144e-01	9.053777e-01	8.849831e-01	8.774919e-01	8.431707e-01	8.891820e-01	9.880814e-01	1.070107e+00	1.157650e+00	1.209198e+00	8.235017e-01	1.002352e+00	1.012764e+00	1.087635e+00	1.133885e+00	9.661152e-01	8.225057e-01	8.739812e-01	9.258189e-01	9.457502e-01	8.762175e-01	8.280029e-01	8.812235e-01	9.066087e-01	9.600773e-01	1.248743e+00	1.133825e+00	8.341506e-01	8.387036e-01	1.211159e+00	8.250484e-01	8.947002e-01	8.183280e-01	8.204809e-01	8.554502e-01	9.160248e-01	1.279735e+00	1.318487e+00	8.546494e-01	1.324589e+00	7.951275e-01	7.745830e-01	7.811459e-01	7.756105e-01	8.178046e-01	1.140213e+00	8.498476e-01	8.349441e-01	1.097231e+00	1.105873e+00	1.052289e+00	8.400351e-01	8.255037e-01	8.117495e-01	1.083650e+00	1.067052e+00	7.730589e-01	1.092476e+00	1.106618e+00	1.099065e+00	7.739917e-01	7.731856e-01	8.003937e-01	7.964267e-01	7.836638e-01	8.039492e-01	8.300436e-01	8.145877e-01	7.807912e-01	7.772127e-01	8.923490e-01	7.865687e-01	7.901754e-01	9.072846e-01	8.656896e-01	9.569911e-01	9.398987e-01	9.915102e-01	9.742889e-01	1.023936e+00	1.008237e+00	1.059450e+00	1.038441e+00	1.104234e+00	1.075188e+00	1.102348e+00	1.031330e+00	1.045369e+00	9.999659e-01	1.016235e+00	9.656359e-01	9.829422e-01	9.315121e-01	9.483975e-01	8.996375e-01	9.151839e-01	8.598383e-01	8.854079e-01	7.882716e-01	7.922357e-01	7.822903e-01	7.850600e-01	7.771670e-01	7.790749e-01	8.464953e-01	7.868937e-01	8.312832e-01	9.814809e-01	1.043720e+00	9.557787e-01	8.228455e-01	8.673346e-01	1.053445e+00	8.069110e-01	9.226311e-01	7.735402e-01	7.727938e-01	7.984462e-01	7.745673e-01	1.090299e+00	1.092373e+00	8.022369e-01	1.099369e+00	1.110419e+00	8.055758e-01	8.093094e-01	1.091892e+00	1.206471e+00	1.157951e+00	1.174454e+00	8.933465e-01	9.969878e-01	1.124414e+00	8.450393e-01	1.286683e+00	1.170396e+00	9.300405e-01	8.611090e-01	8.190126e-01	7.851144e-01	1.199596e+00	1.259545e+00	8.238755e-01	9.165057e-01	1.003316e+00	1.199630e+00	8.735177e-01	9.118578e-01	9.456770e-01	1.133355e+00	8.258172e-01	9.762904e-01	9.657693e-01	9.126179e-01	1.317253e+00	8.363893e-01	1.132822e+00	1.041623e+00	8.603703e-01	9.212354e-01	9.028856e-01	8.580245e-01	9.245627e-01	8.471635e-01	9.965464e-01	9.505701e-01	9.565370e-01	8.548502e-01	9.153273e-01	1.020545e+00	7.830586e-01	9.231660e-01	7.883500e-01	1.041861e+00	1.100604e+00	8.103787e-01	8.519484e-01	1.099649e+00	1.048675e+00	1.108352e+00	1.100929e+00	1.094588e+00	7.975209e-01	8.086875e-01	7.955922e-01	7.829242e-01	9.073262e-01	8.402314e-01	9.139905e-01	7.860446e-01	7.939940e-01	1.098098e+00	1.119027e+00	1.055550e+00	8.542272e-01	1.215365e+00	1.145818e+00	1.131611e+00	1.009105e+00	1.133526e+00	1.234089e+00	1.331026e+00	1.315063e+00	1.102259e+00	1.217657e+00	9.519729e-01	1.163048e+00	1.148577e+00	8.238187e-01	8.755286e-01	1.123032e+00	9.869470e-01	8.799846e-01	1.141662e+00	1.332381e+00	8.564836e-01	8.203605e-01	9.709781e-01	8.033864e-01	9.816486e-01	9.919958e-01	9.376329e-01	1.000355e+00	1.005622e+00	1.017433e+00	1.048637e+00	1.027462e+00	1.058816e+00	1.110020e+00	8.747520e-01	9.359103e-01	9.408118e-01	1.155387e+00	8.599510e-01	8.625894e-01	8.657102e-01	1.074337e+00	8.516682e-01	8.546374e-01	8.296468e-01	1.004262e+00	1.007899e+00	1.011327e+00	8.672555e-01	9.017143e-01	8.789411e-01	8.903237e-01	1.077037e+00	1.094515e+00	9.260382e-01	9.309697e-01	8.918575e-01	8.829030e-01	8.825685e-01	8.863608e-01	9.851889e-01	9.678113e-01	1.165341e+00	8.350784e-01	8.413142e-01	8.489857e-01	8.443864e-01	8.329213e-01	8.298513e-01	8.232727e-01	8.238067e-01	8.272897e-01	1.298363e+00	1.267563e+00	8.001587e-01	1.095898e+00	8.567182e-01	8.470399e-01	8.419574e-01	8.368768e-01	1.095746e+00	1.100204e+00	1.077315e+00	8.321056e-01	8.277319e-01	8.173077e-01	1.069906e+00	1.096252e+00	7.868012e-01	7.896278e-01	7.994930e-01	8.014499e-01	7.871917e-01	7.849421e-01	7.838392e-01	9.889592e-01	9.557196e-01	9.474319e-01	9.807276e-01	1.012984e+00	1.062594e+00	1.034947e+00	1.027853e+00	1.005215e+00	9.971801e-01	9.723860e-01	9.640414e-01	9.392358e-01	9.311323e-01	9.076877e-01	9.003037e-01	8.673027e-01	8.617021e-01	8.932753e-01	8.865283e-01	7.937694e-01	7.921563e-01	7.907529e-01	7.895285e-01	8.808081e-01	8.086123e-01	8.199839e-01	9.555508e-01	9.606283e-01	8.689860e-01	8.722259e-01	1.069736e+00	8.350134e-01	7.833608e-01	7.840802e-01	8.070230e-01	8.052536e-01	8.146327e-01	8.123123e-01	1.091042e+00	1.084529e+00	8.943855e-01	8.985856e-01	1.025296e+00	1.297445e+00	8.252532e-01	1.311611e+00	8.534836e-01	8.292012e-01	9.510620e-01	8.777040e-01	1.007439e+00	1.107319e+00	1.101254e+00	1.096614e+00	1.081197e+00	1.115972e+00	1.160562e+00	1.181452e+00	1.153145e+00	1.200927e+00	1.103901e+00	1.283262e+00	9.202720e-01	1.010847e+00	1.131559e+00	8.756577e-01	1.172915e+00	1.220862e+00	9.222633e-01	1.275977e+00	9.269311e-01	1.131349e+00	9.863584e-01	1.190707e+00	8.325200e-01	9.812305e-01	9.176576e-01	1.139455e+00	1.160736e+00	1.095994e+00	8.593546e-01	1.093258e+00	9.163024e-01	1.125965e+00	8.544610e-01	8.065516e-01	8.136806e-01	7.935504e-01	7.998203e-01	1.171571e+00	1.293315e+00	1.184892e+00	9.088775e-01	1.240748e+00	1.055117e+00	9.323120e-01	1.312123e+00	8.665310e-01	8.627415e-01	1.078021e+00	9.819709e-01	1.017747e+00	9.871851e-01	9.238712e-01	1.097523e+00	1.095651e+00	1.051744e+00	1.045117e+00	8.119907e-01	8.084376e-01	8.009937e-01	7.917940e-01	9.087066e-01	9.131329e-01	8.458172e-01	9.421923e-01	7.926922e-01	1.095971e+00	1.136241e+00	1.028983e+00	1.134229e+00	1.249582e+00	1.315002e+00	1.053685e+00	1.186192e+00	1.178452e+00	1.070322e+00	1.122724e+00	8.819710e-01	8.611086e-01	8.265450e-01	9.708727e-01	9.760425e-01	9.913453e-01	9.960333e-01	9.597931e-01	9.454805e-01	1.000281e+00	1.004060e+00	1.029626e+00	1.041164e+00	1.112211e+00	9.414356e-01	9.462617e-01	1.145974e+00	8.650144e-01	8.679836e-01	8.572349e-01	8.595375e-01	1.031612e+00	1.015031e+00	1.021000e+00	8.815398e-01	8.736851e-01	8.810407e-01	8.845566e-01	1.085512e+00	1.099623e+00	9.317094e-01	9.366198e-01	9.092488e-01	8.990362e-01	8.898497e-01	8.882437e-01	8.921070e-01	1.011532e+00	9.927995e-01	9.754942e-01	8.368387e-01	8.424633e-01	8.483602e-01	8.604944e-01	8.551539e-01	8.503035e-01	8.417898e-01	8.381737e-01	8.289167e-01	8.298729e-01	8.350693e-01	8.181440e-01	8.493306e-01	8.440995e-01	1.096483e+00	8.391199e-01	8.344872e-01	8.302896e-01	8.232674e-01	1.071767e+00	8.042071e-01	8.101957e-01	8.046469e-01	8.027977e-01	7.921163e-01	7.919354e-01	7.917660e-01	9.552790e-01	1.065113e+00	1.058368e+00	1.038453e+00	1.031741e+00	1.024912e+00	1.010346e+00	1.002823e+00	9.950707e-01	9.793059e-01	9.713140e-01	9.632948e-01	9.473218e-01	9.394023e-01	9.315951e-01	9.089105e-01	8.695636e-01	8.642964e-01	9.018147e-01	8.950003e-01	8.884026e-01	7.993151e-01	7.977807e-01	7.964988e-01	7.954006e-01	7.944665e-01	8.287505e-01	8.425695e-01	9.559119e-01	9.608672e-01	9.658188e-01	8.711883e-01	8.744209e-01	8.600728e-01	8.817424e-01	7.926704e-01	7.944696e-01	7.967713e-01	8.102711e-01	8.203941e-01	8.178605e-01	8.155843e-01	1.089393e+00	1.084281e+00	1.078291e+00	8.960819e-01	9.001806e-01	9.043833e-01	8.324575e-01	8.304853e-01	1.289946e+00	9.280891e-01	1.129355e+00	1.097677e+00	8.830915e-01	1.261898e+00	1.159457e+00	1.013177e+00	1.018101e+00	1.057413e+00	1.112693e+00	8.576364e-01	1.271271e+00	9.660602e-01	1.206348e+00	1.092417e+00	1.120628e+00	1.172038e+00	9.172890e-01	1.130620e+00	1.185407e+00	1.188067e+00	9.563908e-01	8.739429e-01	1.104101e+00	8.600138e-01	9.402415e-01	8.662769e-01	8.357765e-01	1.101033e+00	8.780756e-01	1.090334e+00	1.087300e+00	9.861716e-01	7.998724e-01	8.103057e-01	1.122119e+00	8.186859e-01	9.865864e-01	1.146692e+00	1.105999e+00	1.144058e+00	1.078630e+00	1.128378e+00	9.233957e-01	1.231575e+00	9.285058e-01	9.325989e-01	1.154391e+00	1.129951e+00	1.180680e+00	1.015154e+00	8.615687e-01	8.157732e-01	1.219416e+00	1.002410e+00	9.253663e-01	1.048420e+00	8.175364e-01	8.140064e-01	8.121306e-01	9.144725e-01	9.194721e-01	1.095702e+00	1.042556e+00	1.086591e+00	1.254720e+00	1.296769e+00	1.080047e+00	1.065698e+00	1.113092e+00	8.850362e-01	9.764834e-01	9.814693e-01	9.914594e-01	9.961929e-01	9.673915e-01	9.532762e-01	1.000613e+00	1.004877e+00	1.009004e+00	1.041509e+00	1.053086e+00	9.468014e-01	9.520278e-01	1.137240e+00	8.682027e-01	8.708945e-01	8.628953e-01	8.647478e-01	1.024024e+00	1.031680e+00	8.890969e-01	8.806186e-01	8.871840e-01	1.091098e+00	1.102743e+00	9.377186e-01	9.429916e-01	9.168993e-01	9.067650e-01	8.977848e-01	8.901631e-01	8.945499e-01	1.037353e+00	1.017925e+00	9.994042e-01	9.825642e-01	8.403619e-01	8.449267e-01	8.502800e-01	8.555067e-01	8.679360e-01	8.623679e-01	8.571316e-01	8.524311e-01	8.482094e-01	8.372989e-01	8.358045e-01	8.445327e-01	8.520210e-01	1.094599e+00	1.093694e+00	8.468897e-01	8.420484e-01	8.375857e-01	8.335620e-01	8.299938e-01	8.268038e-01	8.370773e-01	8.084979e-01	8.068755e-01	7.996643e-01	7.999707e-01	8.007383e-01	8.014927e-01	1.067031e+00	1.060917e+00	1.054741e+00	1.042060e+00	1.035727e+00	1.029372e+00	1.021902e+00	1.008913e+00	1.000851e+00	9.934121e-01	9.781985e-01	9.709437e-01	9.627727e-01	9.556001e-01	9.473422e-01	9.403407e-01	9.321259e-01	8.673793e-01	8.717415e-01	9.108823e-01	9.031709e-01	8.972542e-01	8.900266e-01	8.052958e-01	8.039357e-01	8.026120e-01	8.015935e-01	8.007007e-01	8.001074e-01	8.492069e-01	8.647123e-01	9.615969e-01	9.667617e-01	9.715169e-01	8.740758e-01	8.764124e-01	8.803316e-01	8.841616e-01	9.071292e-01	9.339784e-01	8.026007e-01	8.048895e-01	8.086833e-01	8.131185e-01	8.268596e-01	8.241345e-01	8.216940e-01	8.193514e-01	1.072930e+00	1.083241e+00	1.078469e+00	8.978065e-01	9.024249e-01	9.059211e-01	9.107440e-01	8.413302e-01	8.387407e-01	8.368085e-01	1.148050e+00	1.125342e+00	1.073701e+00	1.177465e+00	1.171258e+00	9.363755e-01	9.362834e-01	1.193494e+00	1.096515e+00	1.235367e+00	1.081060e+00	8.826857e-01	8.076715e-01	1.018714e+00	1.127174e+00	1.234993e+00	1.292323e+00	1.294375e+00	1.281521e+00	1.250851e+00	1.138725e+00	8.218599e-01	1.084565e+00	1.121531e+00	1.026543e+00	9.595692e-01	8.664519e-01	1.115925e+00	1.068628e+00	1.081999e+00	8.773992e-01	8.678360e-01	9.226683e-01	9.813214e-01	8.606548e-01	8.874861e-01	8.229397e-01	1.109673e+00	9.483718e-01	1.165199e+00	1.099799e+00	1.292578e+00	1.182391e+00	1.173230e+00	1.019718e+00	1.061225e+00	1.266773e+00	9.858950e-01	1.215153e+00	1.088027e+00	1.162034e+00	1.177068e+00	1.178082e+00	1.125469e+00	8.423657e-01	8.430892e-01	1.104119e+00	8.873949e-01	1.085386e+00	1.113478e+00	9.275478e-01	1.200187e+00	8.193477e-01	8.182178e-01	8.156904e-01	9.187655e-01	1.053294e+00	1.090010e+00	1.275309e+00	1.103691e+00	9.825587e-01	9.866766e-01	9.920544e-01	9.964822e-01	9.611876e-01	9.754463e-01	1.001608e+00	1.005601e+00	1.010543e+00	1.015613e+00	1.052037e+00	1.062703e+00	9.507921e-01	1.128574e+00	8.712850e-01	8.741556e-01	8.679873e-01	8.702907e-01	1.033976e+00	1.042186e+00	8.964286e-01	8.873593e-01	1.095030e+00	1.104729e+00	9.443519e-01	9.247578e-01	9.138919e-01	9.071879e-01	8.946918e-01	1.042318e+00	1.023724e+00	1.005921e+00	9.904187e-01	8.452028e-01	8.475744e-01	8.527409e-01	8.570500e-01	8.623100e-01	8.749094e-01	8.704702e-01	8.634128e-01	8.598880e-01	8.541803e-01	1.094058e+00	1.092109e+00	1.090215e+00	8.543820e-01	8.501707e-01	8.447192e-01	8.412132e-01	8.365407e-01	8.442520e-01	8.563806e-01	8.147400e-01	8.124260e-01	8.070562e-01	8.098444e-01	8.118320e-01	1.062735e+00	1.057302e+00	1.051229e+00	1.045392e+00	1.039178e+00	1.033234e+00	1.026396e+00	1.016502e+00	1.007097e+00	9.954061e-01	9.666416e-01	9.518538e-01	9.371630e-01	9.086658e-01	8.962974e-01	8.118461e-01	8.097665e-01	8.095536e-01	8.076324e-01	8.080008e-01	8.072810e-01	8.072581e-01	8.706290e-01	8.867928e-01	9.677400e-01	9.722195e-01	9.772651e-01	8.772606e-01	8.811075e-01	9.067128e-01	9.305751e-01	9.565354e-01	8.138189e-01	8.168049e-01	8.216746e-01	8.286881e-01	8.357918e-01	8.339368e-01	8.301638e-01	8.285458e-01	8.257538e-01	1.078203e+00	1.072944e+00	9.023098e-01	9.103346e-01	8.516259e-01	8.471265e-01	8.457320e-01	8.427863e-01	1.166078e+00	1.154375e+00	1.181133e+00	1.255000e+00	1.180683e+00	1.088607e+00	1.106554e+00	1.183416e+00	1.086404e+00	1.141046e+00	1.105939e+00	1.255341e+00	1.081811e+00	1.161523e+00	8.282699e-01	1.177728e+00	1.060986e+00	1.152358e+00	1.141412e+00	1.079418e+00	8.887956e-01	1.101715e+00	8.496527e-01	1.035164e+00	1.024794e+00	9.106045e-01	9.441916e-01	8.864843e-01	1.231223e+00	8.726327e-01	9.701459e-01	9.572924e-01	8.172445e-01	1.094246e+00	1.066033e+00	1.212909e+00	1.031037e+00	1.070052e+00	1.170731e+00	1.097582e+00	1.291359e+00	1.245001e+00	1.113742e+00	9.441362e-01	8.700982e-01	8.599957e-01	1.112130e+00	1.173869e+00	1.129521e+00	1.275260e+00	1.176732e+00	1.064253e+00	1.216967e+00	1.199795e+00	8.879990e-01	1.101538e+00	1.083947e+00	1.080339e+00	8.787004e-01	8.245521e-01	8.210537e-01	9.358594e-01	1.091861e+00	1.122788e+00	1.122173e+00	9.901216e-01	9.994860e-01	9.829958e-01	1.009056e+00	1.017508e+00	1.060614e+00	1.120995e+00	8.760536e-01	1.043361e+00	1.051496e+00	8.996332e-01	1.097454e+00	9.513518e-01	9.587418e-01	9.280238e-01	9.145773e-01	8.954306e-01	1.046648e+00	1.028091e+00	1.011322e+00	9.997631e-01	8.534487e-01	8.612421e-01	8.688091e-01	8.740375e-01	8.636666e-01	1.091457e+00	1.088963e+00	8.503586e-01	8.421963e-01	8.759960e-01	8.182340e-01	8.225080e-01	1.003204e+00	1.056073e+00	1.044845e+00	1.033305e+00	1.022718e+00	1.013326e+00	9.908600e-01	9.771748e-01	9.630791e-01	9.489446e-01	9.347931e-01	9.208207e-01	9.081003e-01	8.975980e-01	8.161830e-01	8.148731e-01	8.150855e-01	8.138212e-01	8.158838e-01	8.921854e-01	9.090318e-01	9.672409e-01	9.753229e-01	9.832553e-01	8.800606e-01	8.837839e-01	9.281745e-01	9.512396e-01	9.763640e-01	1.002463e+00	8.263238e-01	8.299257e-01	8.354775e-01	8.439576e-01	8.548041e-01	8.607955e-01	8.360150e-01	8.325316e-01	1.077799e+00	1.073293e+00	9.028412e-01	9.187192e-01	9.272040e-01	8.557773e-01	8.507820e-01	1.117389e+00	1.166019e+00	1.161178e+00	1.136253e+00	1.025466e+00	1.108370e+00	1.173798e+00	1.135621e+00	1.185597e+00	1.135182e+00	1.147604e+00	1.126776e+00	1.092515e+00	1.193618e+00	1.235633e+00	1.088367e+00	9.515802e-01	8.358844e-01	1.125043e+00	1.017126e+00	1.099449e+00	8.876460e-01	1.066672e+00	1.169561e+00	8.756805e-01	1.043569e+00	9.189901e-01	8.966330e-01	1.083528e+00	1.091447e+00	1.082181e+00	1.067010e+00	1.171389e+00	1.098736e+00	1.103073e+00	1.082832e+00	8.283405e-01	8.985403e-01	9.355793e-01	9.897437e-01	1.150518e+00	1.157258e+00	1.272008e+00	1.075361e+00	1.085453e+00	1.175645e+00	1.099194e+00	1.169045e+00	1.152264e+00	8.908574e-01	1.224910e+00	9.799663e-01	9.646722e-01	1.094849e+00	1.233605e+00	1.067210e+00	1.106562e+00	9.438957e-01	1.254316e+00	1.176116e+00	1.005249e+00	1.213098e+00	1.200149e+00	8.801966e-01	1.117595e+00	1.079351e+00	8.891375e-01	8.318936e-01	9.086324e-01	1.118337e+00	1.143440e+00	9.980284e-01	1.007577e+00	1.025396e+00	1.034304e+00	1.114270e+00	8.793698e-01	1.051245e+00	1.059000e+00	8.698630e-01	9.748646e-01	9.827971e-01	9.588289e-01	9.500426e-01	9.347712e-01	9.199673e-01	1.049054e+00	8.581085e-01	8.628187e-01	9.055604e-01	8.916349e-01	9.271612e-01	1.091451e+00	8.707438e-01	8.609369e-01	8.331962e-01	1.059489e+00	1.049546e+00	1.009812e+00	1.038882e+00	1.028576e+00	1.019150e+00	9.991215e-01	9.867785e-01	9.735599e-01	9.600837e-01	9.464894e-01	9.328446e-01	9.199257e-01	8.255017e-01	8.236881e-01	8.228057e-01	8.228409e-01	8.230234e-01	8.273940e-01	9.123137e-01	9.305380e-01	9.666026e-01	9.900180e-01	8.826149e-01	8.863417e-01	9.485010e-01	9.694075e-01	9.929386e-01	1.016444e+00	1.041014e+00	8.402566e-01	8.460598e-01	8.514085e-01	8.596192e-01	8.717115e-01	8.521048e-01	8.451025e-01	8.400815e-01	1.074560e+00	1.067820e+00	9.035811e-01	9.111360e-01	8.791452e-01	8.690322e-01	8.617302e-01	8.577909e-01	1.152327e+00	1.152978e+00	1.149676e+00	1.121131e+00	1.156076e+00	1.140384e+00	1.113596e+00	1.050482e+00	1.172800e+00	1.120685e+00	1.117932e+00	1.071726e+00	1.166005e+00	1.084787e+00	8.331441e-01	1.137607e+00	1.141597e+00	1.128289e+00	1.169441e+00	1.070952e+00	9.260538e-01	1.027029e+00	1.024944e+00	9.594670e-01	1.132801e+00	1.131997e+00	1.128187e+00	1.171839e+00	1.172190e+00	9.002185e-01	9.