# vtk DataFile Version 3.0
vtk output
ASCII
DATASET UNSTRUCTURED_GRID
POINTS 200 float
9.997500e-01	-3.633243e-05	0.0	9.990000e-01	-1.454723e-04	0.0	9.977600e-01	-3.275075e-04	0.0	9.960200e-01	-5.899280e-04	0.0	9.937800e-01	-9.470980e-04	0.0	9.910500e-01	-1.422105e-03	0.0	9.878400e-01	-2.045538e-03	0.0	9.841300e-01	-2.853717e-03	0.0	9.799500e-01	-3.858958e-03	0.0	9.752800e-01	-5.058421e-03	0.0	9.701500e-01	-6.405289e-03	0.0	9.645400e-01	-7.841083e-03	0.0	9.584700e-01	-9.290462e-03	0.0	9.519400e-01	-1.069807e-02	0.0	9.449600e-01	-1.203595e-02	0.0	9.375400e-01	-1.330850e-02	0.0	9.296900e-01	-1.454303e-02	0.0	9.214000e-01	-1.577783e-02	0.0	9.127000e-01	-1.704015e-02	0.0	9.035800e-01	-1.835101e-02	0.0	8.940600e-01	-1.971407e-02	0.0	8.841500e-01	-2.112472e-02	0.0	8.738500e-01	-2.257474e-02	0.0	8.631800e-01	-2.405204e-02	0.0	8.521600e-01	-2.554596e-02	0.0	8.407700e-01	-2.705334e-02	0.0	8.290500e-01	-2.856493e-02	0.0	8.170100e-01	-3.007690e-02	0.0	8.046400e-01	-3.158841e-02	0.0	7.919700e-01	-3.309383e-02	0.0	7.790100e-01	-3.458988e-02	0.0	7.657800e-01	-3.607194e-02	0.0	7.522800e-01	-3.753747e-02	0.0	7.385200e-01	-3.898261e-02	0.0	7.245300e-01	-4.040149e-02	0.0	7.103200e-01	-4.179049e-02	0.0	6.958900e-01	-4.314703e-02	0.0	6.812700e-01	-4.446594e-02	0.0	6.664700e-01	-4.574419e-02	0.0	6.515000e-01	-4.697903e-02	0.0	6.363800e-01	-4.816714e-02	0.0	6.211300e-01	-4.930560e-02	0.0	6.057600e-01	-5.039256e-02	0.0	5.902800e-01	-5.142639e-02	0.0	5.747100e-01	-5.240503e-02	0.0	5.590600e-01	-5.332733e-02	0.0	5.433600e-01	-5.419119e-02	0.0	5.276100e-01	-5.499641e-02	0.0	5.118400e-01	-5.574137e-02	0.0	4.960500e-01	-5.642599e-02	0.0	4.802700e-01	-5.704894e-02	0.0	4.645100e-01	-5.760982e-02	0.0	4.487800e-01	-5.810817e-02	0.0	4.331100e-01	-5.854290e-02	0.0	4.175000e-01	-5.891380e-02	0.0	4.019700e-01	-5.921995e-02	0.0	3.865400e-01	-5.946049e-02	0.0	3.712300e-01	-5.963452e-02	0.0	3.560400e-01	-5.974124e-02	0.0	3.409900e-01	-5.977951e-02	0.0	3.261100e-01	-5.974822e-02	0.0	3.114000e-01	-5.964621e-02	0.0	2.968700e-01	-5.947214e-02	0.0	2.825500e-01	-5.922489e-02	0.0	2.684500e-01	-5.890320e-02	0.0	2.545700e-01	-5.850537e-02	0.0	2.409400e-01	-5.803054e-02	0.0	2.275700e-01	-5.747744e-02	0.0	2.144700e-01	-5.684477e-02	0.0	2.016600e-01	-5.613184e-02	0.0	1.891400e-01	-5.533699e-02	0.0	1.769300e-01	-5.445979e-02	0.0	1.650400e-01	-5.349940e-02	0.0	1.534900e-01	-5.245604e-02	0.0	1.422900e-01	-5.132943e-02	0.0	1.314400e-01	-5.011832e-02	0.0	1.209500e-01	-4.882245e-02	0.0	1.108500e-01	-4.744461e-02	0.0	1.011300e-01	-4.598263e-02	0.0	9.181000e-02	-4.443861e-02	0.0	8.290000e-02	-4.281368e-02	0.0	7.440000e-02	-4.110719e-02	0.0	6.633000e-02	-3.932268e-02	0.0	5.869000e-02	-3.745985e-02	0.0	5.149000e-02	-3.552072e-02	0.0	4.474000e-02	-3.350782e-02	0.0	3.844000e-02	-3.142082e-02	0.0	3.260000e-02	-2.926258e-02	0.0	2.723000e-02	-2.703678e-02	0.0	2.232000e-02	-2.473840e-02	0.0	1.790000e-02	-2.238143e-02	0.0	1.395000e-02	-1.995504e-02	0.0	1.049000e-02	-1.747051e-02	0.0	7.520000e-03	-1.492873e-02	0.0	5.040000e-03	-1.232990e-02	0.0	3.050000e-03	-9.672479e-03	0.0	1.560000e-03	-6.971709e-03	0.0	5.600000e-04	-4.206447e-03	0.0	6.000000e-05	-1.384059e-03	0.0	0.000000e+00	0.000000e+00	0.0	6.000000e-05	1.263762e-03	0.0	5.600000e-04	3.625153e-03	0.0	1.560000e-03	5.789051e-03	0.0	3.050000e-03	7.807195e-03	0.0	5.040000e-03	9.724601e-03	0.0	7.520000e-03	1.154902e-02	0.0	1.049000e-02	1.329543e-02	0.0	1.395000e-02	1.497435e-02	0.0	1.790000e-02	1.659370e-02	0.0	2.232000e-02	1.815308e-02	0.0	2.723000e-02	1.966565e-02	0.0	3.260000e-02	2.112729e-02	0.0	3.844000e-02	2.254568e-02	0.0	4.474000e-02	2.392219e-02	0.0	5.149000e-02	2.525821e-02	0.0	5.869000e-02	2.655674e-02	0.0	6.633000e-02	2.781852e-02	0.0	7.440000e-02	2.904421e-02	0.0	8.290000e-02	3.023574e-02	0.0	9.181000e-02	3.139199e-02	0.0	1.011300e-01	3.251447e-02	0.0	1.108500e-01	3.360316e-02	0.0	1.209500e-01	3.465693e-02	0.0	1.314400e-01	3.567763e-02	0.0	1.422900e-01	3.666297e-02	0.0	1.534900e-01	3.761269e-02	0.0	1.650400e-01	3.852716e-02	0.0	1.769300e-01	3.940568e-02	0.0	1.891400e-01	4.024679e-02	0.0	2.016600e-01	4.104970e-02	0.0	2.144700e-01	4.181292e-02	0.0	2.275700e-01	4.253602e-02	0.0	2.409400e-01	4.321731e-02	0.0	2.545700e-01	4.385554e-02	0.0	2.684500e-01	4.444929e-02	0.0	2.825500e-01	4.499627e-02	0.0	2.968700e-01	4.549529e-02	0.0	3.114000e-01	4.594459e-02	0.0	3.261100e-01	4.634169e-02	0.0	3.409900e-01	4.668473e-02	0.0	3.560400e-01	4.697184e-02	0.0	3.712300e-01	4.720043e-02	0.0	3.865400e-01	4.736823e-02	0.0	4.019700e-01	4.747306e-02	0.0	4.175000e-01	4.751250e-02	0.0	4.331100e-01	4.748417e-02	0.0	4.487800e-01	4.738586e-02	0.0	4.645100e-01	4.721521e-02	0.0	4.802700e-01	4.697025e-02	0.0	4.960500e-01	4.664895e-02	0.0	5.118400e-01	4.624941e-02	0.0	5.276100e-01	4.577047e-02	0.0	5.433600e-01	4.521045e-02	0.0	5.590600e-01	4.456898e-02	0.0	5.747100e-01	4.384495e-02	0.0	5.902800e-01	4.303900e-02	0.0	6.057600e-01	4.215139e-02	0.0	6.211300e-01	4.118352e-02	0.0	6.363800e-01	4.013677e-02	0.0	6.515000e-01	3.901310e-02	0.0	6.664700e-01	3.781585e-02	0.0	6.812700e-01	3.654924e-02	0.0	6.958900e-01	3.521742e-02	0.0	7.103200e-01	3.382520e-02	0.0	7.245300e-01	3.238014e-02	0.0	7.385200e-01	3.088759e-02	0.0	7.522800e-01	2.935448e-02	0.0	7.657800e-01	2.779071e-02	0.0	7.790100e-01	2.620467e-02	0.0	7.919700e-01	2.460399e-02	0.0	8.046400e-01	2.299920e-02	0.0	8.170100e-01	2.139994e-02	0.0	8.290500e-01	1.981856e-02	0.0	8.407700e-01	1.826184e-02	0.0	8.521600e-01	1.673825e-02	0.0	8.631800e-01	1.525860e-02	0.0	8.738500e-01	1.382340e-02	0.0	8.841500e-01	1.243584e-02	0.0	8.940600e-01	1.109715e-02	0.0	9.035800e-01	9.805627e-03	0.0	9.127000e-01	8.563977e-03	0.0	9.214000e-01	7.383147e-03	0.0	9.296900e-01	6.279698e-03	0.0	9.375400e-01	5.284594e-03	0.0	9.449600e-01	4.426980e-03	0.0	9.519400e-01	3.731773e-03	0.0	9.584700e-01	3.205089e-03	0.0	9.645400e-01	2.826749e-03	0.0	9.701500e-01	2.551894e-03	0.0	9.752800e-01	2.324719e-03	0.0	9.799500e-01	2.092988e-03	0.0	9.841300e-01	1.826981e-03	0.0	9.878400e-01	1.519878e-03	0.0	9.910500e-01	1.190191e-03	0.0	9.937800e-01	8.630179e-04	0.0	9.960200e-01	5.666252e-04	0.0	9.977600e-01	3.231880e-04	0.0	9.990000e-01	1.450783e-04	0.0	9.997500e-01	3.632619e-05	0.0	1.000000e+00	0.000000e+00	0.0	
CELLS 200	600
2	199	0	2	0	1	2	1	2	2	2	3	2	3	4	2	4	5	2	5	6	2	6	7	2	7	8	2	8	9	2	9	10	2	10	11	2	11	12	2	12	13	2	13	14	2	14	15	2	15	16	2	16	17	2	17	18	2	18	19	2	19	20	2	20	21	2	21	22	2	22	23	2	23	24	2	24	25	2	25	26	2	26	27	2	27	28	2	28	29	2	29	30	2	30	31	2	31	32	2	32	33	2	33	34	2	34	35	2	35	36	2	36	37	2	37	38	2	38	39	2	39	40	2	40	41	2	41	42	2	42	43	2	43	44	2	44	45	2	45	46	2	46	47	2	47	48	2	48	49	2	49	50	2	50	51	2	51	52	2	52	53	2	53	54	2	54	55	2	55	56	2	56	57	2	57	58	2	58	59	2	59	60	2	60	61	2	61	62	2	62	63	2	63	64	2	64	65	2	65	66	2	66	67	2	67	68	2	68	69	2	69	70	2	70	71	2	71	72	2	72	73	2	73	74	2	74	75	2	75	76	2	76	77	2	77	78	2	78	79	2	79	80	2	80	81	2	81	82	2	82	83	2	83	84	2	84	85	2	85	86	2	86	87	2	87	88	2	88	89	2	89	90	2	90	91	2	91	92	2	92	93	2	93	94	2	94	95	2	95	96	2	96	97	2	97	98	2	98	99	2	99	100	2	100	101	2	101	102	2	102	103	2	103	104	2	104	105	2	105	106	2	106	107	2	107	108	2	108	109	2	109	110	2	110	111	2	111	112	2	112	113	2	113	114	2	114	115	2	115	116	2	116	117	2	117	118	2	118	119	2	119	120	2	120	121	2	121	122	2	122	123	2	123	124	2	124	125	2	125	126	2	126	127	2	127	128	2	128	129	2	129	130	2	130	131	2	131	132	2	132	133	2	133	134	2	134	135	2	135	136	2	136	137	2	137	138	2	138	139	2	139	140	2	140	141	2	141	142	2	142	143	2	143	144	2	144	145	2	145	146	2	146	147	2	147	148	2	148	149	2	149	150	2	150	151	2	151	152	2	152	153	2	153	154	2	154	155	2	155	156	2	156	157	2	157	158	2	158	159	2	159	160	2	160	161	2	161	162	2	162	163	2	163	164	2	164	165	2	165	166	2	166	167	2	167	168	2	168	169	2	169	170	2	170	171	2	171	172	2	172	173	2	173	174	2	174	175	2	175	176	2	176	177	2	177	178	2	178	179	2	179	180	2	180	181	2	181	182	2	182	183	2	183	184	2	184	185	2	185	186	2	186	187	2	187	188	2	188	189	2	189	190	2	190	191	2	191	192	2	192	193	2	193	194	2	194	195	2	195	196	2	196	197	2	197	198	2	198	199	
CELL_TYPES 200
3	3	3	3	3	3	3	3	3	3	3	3	3	3	3	3	3	3	3	3	3	3	3	3	3	3	3	3	3	3	3	3	3	3	3	3	3	3	3	3	3	3	3	3	3	3	3	3	3	3	3	3	3	3	3	3	3	3	3	3	3	3	3	3	3	3	3	3	3	3	3	3	3	3	3	3	3	3	3	3	3	3	3	3	3	3	3	3	3	3	3	3	3	3	3	3	3	3	3	3	3	3	3	3	3	3	3	3	3	3	3	3	3	3	3	3	3	3	3	3	3	3	3	3	3	3	3	3	3	3	3	3	3	3	3	3	3	3	3	3	3	3	3	3	3	3	3	3	3	3	3	3	3	3	3	3	3	3	3	3	3	3	3	3	3	3	3	3	3	3	3	3	3	3	3	3	3	3	3	3	3	3	3	3	3	3	3	3	3	3	3	3	3	3	3	3	3	3	3	3	
POINT_DATA 200

SCALARS Conservative_1 float 1
LOOKUP_TABLE default
1.199829e+00	1.181604e+00	1.171180e+00	1.164741e+00	1.160168e+00	1.155704e+00	1.148819e+00	1.137901e+00	1.121720e+00	1.100365e+00	1.075075e+00	1.048463e+00	1.024894e+00	1.008359e+00	9.999844e-01	9.979259e-01	9.990352e-01	1.000478e+00	1.000505e+00	9.985164e-01	9.947326e-01	9.897107e-01	9.840361e-01	9.781803e-01	9.724211e-01	9.668694e-01	9.615164e-01	9.563157e-01	9.512025e-01	9.461454e-01	9.411285e-01	9.361079e-01	9.310497e-01	9.259703e-01	9.209208e-01	9.159497e-01	9.110758e-01	9.063035e-01	9.016442e-01	8.971144e-01	8.927137e-01	8.884528e-01	8.843141e-01	8.803142e-01	8.764682e-01	8.728276e-01	8.693819e-01	8.660671e-01	8.627360e-01	8.593791e-01	8.561987e-01	8.535488e-01	8.515432e-01	8.498900e-01	8.479165e-01	8.448713e-01	8.402546e-01	8.342136e-01	8.276275e-01	8.217531e-01	8.174775e-01	8.149940e-01	8.140304e-01	8.141536e-01	8.150539e-01	8.165321e-01	8.185387e-01	8.209901e-01	8.238001e-01	8.268562e-01	8.301774e-01	8.339268e-01	8.383513e-01	8.435191e-01	8.493535e-01	8.557082e-01	8.626480e-01	8.703512e-01	8.788748e-01	8.882582e-01	8.986131e-01	9.099985e-01	9.225658e-01	9.364328e-01	9.517896e-01	9.689131e-01	9.880317e-01	1.009504e+00	1.033816e+00	1.061282e+00	1.092433e+00	1.127737e+00	1.167041e+00	1.209884e+00	1.254555e+00	1.298042e+00	1.331744e+00	1.350900e+00	1.339536e+00	1.308274e+00	1.284263e+00	1.221105e+00	1.099470e+00	1.001992e+00	9.259951e-01	8.702845e-01	8.323008e-01	8.072954e-01	7.904624e-01	7.790620e-01	7.713990e-01	7.663042e-01	7.632181e-01	7.614032e-01	7.604854e-01	7.604611e-01	7.612018e-01	7.624706e-01	7.639460e-01	7.653010e-01	7.665523e-01	7.680238e-01	7.699740e-01	7.722529e-01	7.744612e-01	7.763711e-01	7.780744e-01	7.797180e-01	7.814049e-01	7.832056e-01	7.851751e-01	7.872973e-01	7.894992e-01	7.916806e-01	7.937982e-01	7.958265e-01	7.977559e-01	7.995480e-01	8.012118e-01	8.028627e-01	8.047133e-01	8.069209e-01	8.095361e-01	8.125229e-01	8.158842e-01	8.196785e-01	8.239319e-01	8.286082e-01	8.335363e-01	8.385151e-01	8.433469e-01	8.480939e-01	8.530535e-01	8.585733e-01	8.647113e-01	8.712354e-01	8.779240e-01	8.847768e-01	8.919625e-01	8.995288e-01	9.074241e-01	9.155601e-01	9.238881e-01	9.323958e-01	9.410538e-01	9.498489e-01	9.587305e-01	9.676811e-01	9.766264e-01	9.855689e-01	9.944257e-01	1.003116e+00	1.011577e+00	1.019726e+00	1.027514e+00	1.034923e+00	1.041997e+00	1.048918e+00	1.055944e+00	1.063465e+00	1.071778e+00	1.080980e+00	1.090688e+00	1.100040e+00	1.107786e+00	1.112591e+00	1.113364e+00	1.109744e+00	1.102493e+00	1.093777e+00	1.086674e+00	1.084156e+00	1.088060e+00	1.098276e+00	1.112850e+00	1.130015e+00	1.148478e+00	1.168636e+00	1.192714e+00	1.181127e+00	
SCALARS Conservative_2 float 1
LOOKUP_TABLE default
7.195748e-01	7.459498e-01	7.640399e-01	7.748485e-01	7.807396e-01	7.855124e-01	7.913178e-01	8.009827e-01	8.159922e-01	8.363996e-01	8.604891e-01	8.849331e-01	9.060885e-01	9.215744e-01	9.308014e-01	9.347646e-01	9.355189e-01	9.351583e-01	9.351419e-01	9.360814e-01	9.380302e-01	9.406876e-01	9.436776e-01	9.467100e-01	9.495981e-01	9.522761e-01	9.547391e-01	9.570290e-01	9.591564e-01	9.611535e-01	9.630553e-01	9.648541e-01	9.665642e-01	9.681833e-01	9.696988e-01	9.710985e-01	9.723971e-01	9.735755e-01	9.746441e-01	9.756180e-01	9.764782e-01	9.772598e-01	9.779362e-01	9.785446e-01	9.790524e-01	9.795004e-01	9.798660e-01	9.802013e-01	9.804743e-01	9.807243e-01	9.808922e-01	9.810051e-01	9.810480e-01	9.810775e-01	9.811130e-01	9.811867e-01	9.812255e-01	9.811487e-01	9.808248e-01	9.803293e-01	9.798252e-01	9.794118e-01	9.791620e-01	9.790107e-01	9.789583e-01	9.789144e-01	9.789016e-01	9.788483e-01	9.787680e-01	9.785934e-01	9.783383e-01	9.779486e-01	9.774264e-01	9.766915e-01	9.757313e-01	9.744056e-01	9.727342e-01	9.706225e-01	9.678399e-01	9.642317e-01	9.597075e-01	9.539755e-01	9.467724e-01	9.376811e-01	9.261864e-01	9.115597e-01	8.928693e-01	8.690402e-01	8.385001e-01	7.990990e-01	7.483509e-01	6.832086e-01	6.000083e-01	4.965463e-01	3.728321e-01	2.366270e-01	1.074481e-01	1.080735e-02	-2.157688e-02	5.237561e-03	7.306296e-02	2.105098e-01	4.135330e-01	5.902956e-01	7.153032e-01	7.968748e-01	8.484555e-01	8.813629e-01	9.026302e-01	9.169593e-01	9.269972e-01	9.341634e-01	9.396323e-01	9.439088e-01	9.473399e-01	9.502817e-01	9.527963e-01	9.549698e-01	9.568999e-01	9.585651e-01	9.600507e-01	9.614703e-01	9.628396e-01	9.640707e-01	9.651686e-01	9.661318e-01	9.670165e-01	9.678273e-01	9.686065e-01	9.693510e-01	9.700930e-01	9.708121e-01	9.715119e-01	9.721609e-01	9.727731e-01	9.733330e-01	9.738536e-01	9.743257e-01	9.747636e-01	9.751846e-01	9.756373e-01	9.761006e-01	9.765813e-01	9.770625e-01	9.775397e-01	9.780104e-01	9.784440e-01	9.788420e-01	9.791223e-01	9.793178e-01	9.794126e-01	9.794428e-01	9.793888e-01	9.792222e-01	9.788784e-01	9.783289e-01	9.776094e-01	9.766650e-01	9.755006e-01	9.740580e-01	9.723348e-01	9.703057e-01	9.679754e-01	9.653277e-01	9.623578e-01	9.590594e-01	9.554313e-01	9.515133e-01	9.472397e-01	9.427217e-01	9.379660e-01	9.329913e-01	9.279133e-01	9.227870e-01	9.176672e-01	9.125798e-01	9.074692e-01	9.022124e-01	8.965169e-01	8.900864e-01	8.825851e-01	8.740061e-01	8.647748e-01	8.559742e-01	8.491440e-01	8.458501e-01	8.471021e-01	8.528045e-01	8.614983e-01	8.705176e-01	8.765565e-01	8.769725e-01	8.704588e-01	8.577484e-01	8.395734e-01	8.174819e-01	7.911847e-01	7.596464e-01	7.213195e-01	6.623528e-01	
SCALARS Conservative_3 float 1
LOOKUP_TABLE default
1.010185e-01	1.066668e-01	1.128621e-01	1.197580e-01	1.301713e-01	1.447863e-01	1.632568e-01	1.836696e-01	2.028765e-01	2.169555e-01	2.227240e-01	2.186054e-01	2.055657e-01	1.873995e-01	1.688320e-01	1.535311e-01	1.431351e-01	1.374035e-01	1.349845e-01	1.342461e-01	1.338924e-01	1.331599e-01	1.317630e-01	1.297293e-01	1.272272e-01	1.244562e-01	1.215497e-01	1.185971e-01	1.156241e-01	1.126184e-01	1.095688e-01	1.064546e-01	1.032645e-01	9.999099e-02	9.662014e-02	9.316680e-02	8.962741e-02	8.602045e-02	8.235228e-02	7.863488e-02	7.488149e-02	7.109893e-02	6.730573e-02	6.350338e-02	5.969941e-02	5.588522e-02	5.206458e-02	4.824955e-02	4.446370e-02	4.071133e-02	3.695615e-02	3.314136e-02	2.924448e-02	2.525254e-02	2.119777e-02	1.712409e-02	1.307653e-02	9.042002e-03	4.912928e-03	5.527907e-04	-4.075151e-03	-8.949346e-03	-1.405843e-02	-1.939101e-02	-2.498530e-02	-3.086935e-02	-3.709949e-02	-4.369255e-02	-5.068212e-02	-5.808816e-02	-6.595759e-02	-7.435451e-02	-8.334929e-02	-9.297443e-02	-1.032726e-01	-1.142958e-01	-1.261549e-01	-1.389166e-01	-1.526570e-01	-1.675001e-01	-1.835645e-01	-2.009625e-01	-2.198498e-01	-2.403612e-01	-2.626172e-01	-2.867361e-01	-3.127888e-01	-3.407208e-01	-3.701456e-01	-4.003324e-01	-4.298058e-01	-4.554598e-01	-4.722206e-01	-4.716729e-01	-4.408985e-01	-3.644676e-01	-2.306611e-01	-3.807666e-02	1.857914e-01	3.518816e-01	4.963867e-01	6.611201e-01	7.236521e-01	6.884132e-01	6.112133e-01	5.275364e-01	4.530710e-01	3.913185e-01	3.411397e-01	3.001353e-01	2.665663e-01	2.386467e-01	2.152018e-01	1.952795e-01	1.781440e-01	1.632813e-01	1.503062e-01	1.388668e-01	1.287089e-01	1.195607e-01	1.112237e-01	1.036288e-01	9.672652e-02	9.042434e-02	8.459197e-02	7.908350e-02	7.387337e-02	6.893697e-02	6.426487e-02	5.980669e-02	5.553059e-02	5.140501e-02	4.739870e-02	4.347376e-02	3.960592e-02	3.577536e-02	3.196832e-02	2.816337e-02	2.433128e-02	2.045177e-02	1.652825e-02	1.256295e-02	8.545136e-03	4.443103e-03	2.388925e-04	-4.074069e-03	-8.493031e-03	-1.301002e-02	-1.764174e-02	-2.239723e-02	-2.729695e-02	-3.236106e-02	-3.753983e-02	-4.280489e-02	-4.810508e-02	-5.346012e-02	-5.888571e-02	-6.436183e-02	-6.983077e-02	-7.524875e-02	-8.057546e-02	-8.579788e-02	-9.085758e-02	-9.572563e-02	-1.003320e-01	-1.046526e-01	-1.086168e-01	-1.121900e-01	-1.153167e-01	-1.179530e-01	-1.200581e-01	-1.215982e-01	-1.225743e-01	-1.230121e-01	-1.229841e-01	-1.226362e-01	-1.221429e-01	-1.216820e-01	-1.213252e-01	-1.209084e-01	-1.198994e-01	-1.174026e-01	-1.123009e-01	-1.037105e-01	-9.144160e-02	-7.641623e-02	-6.079679e-02	-4.766896e-02	-4.027670e-02	-4.082295e-02	-4.940305e-02	-6.378290e-02	-8.015669e-02	-9.479704e-02	-1.049838e-01	-1.097967e-01	-1.102825e-01	-1.061986e-01	-1.003424e-01	2.575688e-03	
SCALARS Conservative_4 float 1
LOOKUP_TABLE default
3.446401e+00	3.400792e+00	3.375504e+00	3.359986e+00	3.348837e+00	3.337965e+00	3.320869e+00	3.293681e+00	3.253308e+00	3.199978e+00	3.136710e+00	3.069894e+00	3.010544e+00	2.968885e+00	2.947816e+00	2.942627e+00	2.945373e+00	2.948931e+00	2.948905e+00	2.943774e+00	2.934102e+00	2.921286e+00	2.906799e+00	2.891835e+00	2.877094e+00	2.862861e+00	2.849116e+00	2.835746e+00	2.822582e+00	2.809545e+00	2.796604e+00	2.783637e+00	2.770558e+00	2.757410e+00	2.744325e+00	2.731427e+00	2.718771e+00	2.706362e+00	2.694233e+00	2.682431e+00	2.670950e+00	2.659827e+00	2.649007e+00	2.638545e+00	2.628469e+00	2.618929e+00	2.609886e+00	2.601189e+00	2.592439e+00	2.583624e+00	2.575257e+00	2.568275e+00	2.562973e+00	2.558598e+00	2.553389e+00	2.545385e+00	2.533252e+00	2.517361e+00	2.499981e+00	2.484429e+00	2.473075e+00	2.466452e+00	2.463869e+00	2.464170e+00	2.466549e+00	2.470455e+00	2.475772e+00	2.482260e+00	2.489701e+00	2.497784e+00	2.506568e+00	2.516468e+00	2.528144e+00	2.541756e+00	2.557114e+00	2.573801e+00	2.592012e+00	2.612206e+00	2.634487e+00	2.658943e+00	2.685882e+00	2.715418e+00	2.747936e+00	2.783702e+00	2.823166e+00	2.866987e+00	2.915678e+00	2.970120e+00	3.031463e+00	3.100360e+00	3.178071e+00	3.265643e+00	3.362439e+00	3.467272e+00	3.575829e+00	3.681280e+00	3.762484e+00	3.809724e+00	3.781242e+00	3.702876e+00	3.649645e+00	3.499855e+00	3.190784e+00	2.942880e+00	2.747890e+00	2.604135e+00	2.505895e+00	2.441144e+00	2.397393e+00	2.367666e+00	2.347657e+00	2.334292e+00	2.326216e+00	2.321489e+00	2.319129e+00	2.319161e+00	2.321214e+00	2.324659e+00	2.328664e+00	2.332348e+00	2.335765e+00	2.339785e+00	2.345077e+00	2.351211e+00	2.357146e+00	2.362283e+00	2.366875e+00	2.371304e+00	2.375851e+00	2.380695e+00	2.385990e+00	2.391685e+00	2.397590e+00	2.403433e+00	2.409106e+00	2.414535e+00	2.419699e+00	2.424495e+00	2.428951e+00	2.433373e+00	2.438333e+00	2.444236e+00	2.451217e+00	2.459177e+00	2.468124e+00	2.478213e+00	2.489503e+00	2.501905e+00	2.514944e+00	2.528106e+00	2.540868e+00	2.553405e+00	2.566494e+00	2.581041e+00	2.597184e+00	2.614307e+00	2.631840e+00	2.649767e+00	2.668538e+00	2.688265e+00	2.708813e+00	2.729946e+00	2.751536e+00	2.773549e+00	2.795907e+00	2.818573e+00	2.841413e+00	2.864393e+00	2.887295e+00	2.910156e+00	2.932754e+00	2.954876e+00	2.976381e+00	2.997057e+00	3.016790e+00	3.035531e+00	3.053395e+00	3.070841e+00	3.088506e+00	3.107376e+00	3.128174e+00	3.151152e+00	3.175359e+00	3.198678e+00	3.218037e+00	3.230139e+00	3.232253e+00	3.223409e+00	3.205425e+00	3.183660e+00	3.165769e+00	3.159213e+00	3.168672e+00	3.194023e+00	3.230156e+00	3.272668e+00	3.318102e+00	3.367491e+00	3.426997e+00	3.383859e+00	
SCALARS Pressure float 1
LOOKUP_TABLE default
1.290549e+00	1.264207e+00	1.248340e+00	1.238437e+00	1.231533e+00	1.224778e+00	1.214694e+00	1.198779e+00	1.175266e+00	1.144285e+00	1.107709e+00	1.069460e+00	1.035760e+00	1.012137e+00	1.000144e+00	9.972063e-01	9.988395e-01	1.000977e+00	1.001110e+00	9.983900e-01	9.931242e-01	9.861128e-01	9.781962e-01	9.700424e-01	9.620461e-01	9.543599e-01	9.469714e-01	9.398084e-01	9.327863e-01	9.258572e-01	9.189917e-01	9.121371e-01	9.052460e-01	8.983404e-01	8.914905e-01	8.847621e-01	8.781759e-01	8.717437e-01	8.654780e-01	8.593958e-01	8.535033e-01	8.478041e-01	8.422842e-01	8.369545e-01	8.318459e-01	8.270138e-01	8.224526e-01	8.180627e-01	8.136612e-01	8.092231e-01	8.050345e-01	8.015539e-01	7.989385e-01	7.967862e-01	7.942032e-01	7.901854e-01	7.840908e-01	7.761320e-01	7.675105e-01	7.598701e-01	7.543432e-01	7.511614e-01	7.499406e-01	7.501259e-01	7.513017e-01	7.532309e-01	7.558363e-01	7.590270e-01	7.626794e-01	7.666622e-01	7.709907e-01	7.758927e-01	7.816856e-01	7.884752e-01	7.961517e-01	8.045536e-01	8.137412e-01	8.239589e-01	8.353295e-01	8.479194e-01	8.618621e-01	8.772756e-01	8.943735e-01	9.133554e-01	9.345198e-01	9.583033e-01	9.850924e-01	1.015424e+00	1.050063e+00	1.089604e+00	1.134879e+00	1.186687e+00	1.245064e+00	1.309375e+00	1.377182e+00	1.443417e+00	1.495270e+00	1.523657e+00	1.507273e+00	1.462217e+00	1.420655e+00	1.321096e+00	1.149947e+00	1.013007e+00	9.079584e-01	8.317675e-01	7.800465e-01	7.460758e-01	7.233692e-01	7.080878e-01	6.978433e-01	6.910941e-01	6.869857e-01	6.845469e-01	6.832843e-01	6.831559e-01	6.840268e-01	6.855915e-01	6.874110e-01	6.890767e-01	6.905998e-01	6.923894e-01	6.947975e-01	6.976601e-01	7.004433e-01	7.028472e-01	7.049793e-01	7.070390e-01	7.091522e-01	7.114172e-01	7.138983e-01	7.165819e-01	7.193698e-01	7.221388e-01	7.248269e-01	7.274058e-01	7.298587e-01	7.321378e-01	7.342508e-01	7.363463e-01	7.386923e-01	7.415052e-01	7.448494e-01	7.486814e-01	7.530046e-01	7.578958e-01	7.633975e-01	7.694582e-01	7.758756e-01	7.823699e-01	7.886842e-01	7.948882e-01	8.013802e-01	8.086247e-01	8.167147e-01	8.253494e-01	8.342232e-01	8.433511e-01	8.529492e-01	8.630945e-01	8.737166e-01	8.847053e-01	8.959941e-01	9.075695e-01	9.193944e-01	9.314512e-01	9.436756e-01	9.560327e-01	9.684473e-01	9.808916e-01	9.932603e-01	1.005448e+00	1.017348e+00	1.028842e+00	1.039859e+00	1.050366e+00	1.060432e+00	1.070308e+00	1.080382e+00	1.091206e+00	1.103229e+00	1.116579e+00	1.130700e+00	1.144304e+00	1.155527e+00	1.162394e+00	1.163334e+00	1.157883e+00	1.147239e+00	1.134594e+00	1.124445e+00	1.121058e+00	1.127013e+00	1.141993e+00	1.163401e+00	1.188656e+00	1.216114e+00	1.246308e+00	1.281864e+00	1.279256e+00	
SCALARS Temperature float 1
LOOKUP_TABLE default
1.075611e+00	1.069907e+00	1.065882e+00	1.063273e+00	1.061513e+00	1.059768e+00	1.057341e+00	1.053500e+00	1.047736e+00	1.039914e+00	1.030355e+00	1.020026e+00	1.010602e+00	1.003747e+00	1.000160e+00	9.992789e-01	9.998042e-01	1.000499e+00	1.000605e+00	9.998734e-01	9.983831e-01	9.963647e-01	9.940655e-01	9.916805e-01	9.893307e-01	9.870619e-01	9.848729e-01	9.827387e-01	9.806391e-01	9.785570e-01	9.764785e-01	9.743931e-01	9.722854e-01	9.701612e-01	9.680425e-01	9.659504e-01	9.638889e-01	9.618673e-01	9.598886e-01	9.579556e-01	9.560772e-01	9.542477e-01	9.524718e-01	9.507453e-01	9.490885e-01	9.475110e-01	9.460199e-01	9.445719e-01	9.431173e-01	9.416370e-01	9.402426e-01	9.390839e-01	9.382243e-01	9.375168e-01	9.366526e-01	9.352730e-01	9.331586e-01	9.303757e-01	9.273623e-01	9.246940e-01	9.227694e-01	9.216773e-01	9.212686e-01	9.213567e-01	9.217816e-01	9.224756e-01	9.233971e-01	9.245264e-01	9.258064e-01	9.272014e-01	9.287060e-01	9.304087e-01	9.324081e-01	9.347450e-01	9.373620e-01	9.402195e-01	9.433061e-01	9.466970e-01	9.504534e-01	9.545867e-01	9.591025e-01	9.640408e-01	9.694414e-01	9.753560e-01	9.818555e-01	9.890498e-01	9.970251e-01	1.005864e+00	1.015716e+00	1.026687e+00	1.038854e+00	1.052273e+00	1.066856e+00	1.082232e+00	1.097745e+00	1.111996e+00	1.122791e+00	1.127884e+00	1.125221e+00	1.117669e+00	1.106202e+00	1.081885e+00	1.045910e+00	1.010993e+00	9.805219e-01	9.557420e-01	9.372171e-01	9.241670e-01	9.151216e-01	9.088979e-01	9.046464e-01	9.018534e-01	9.001171e-01	8.990597e-01	8.984844e-01	8.983443e-01	8.986143e-01	8.991711e-01	8.998162e-01	9.003995e-01	9.009168e-01	9.015207e-01	9.023648e-01	9.034089e-01	9.044265e-01	9.052980e-01	9.060564e-01	9.067882e-01	9.075349e-01	9.083403e-01	9.092217e-01	9.101796e-01	9.111722e-01	9.121593e-01	9.131123e-01	9.140256e-01	9.148897e-01	9.156896e-01	9.164253e-01	9.171511e-01	9.179570e-01	9.189316e-01	9.200942e-01	9.214280e-01	9.229307e-01	9.246256e-01	9.265299e-01	9.286152e-01	9.308239e-01	9.330421e-01	9.351836e-01	9.372643e-01	9.394255e-01	9.418237e-01	9.444940e-01	9.473323e-01	9.502226e-01	9.531795e-01	9.562613e-01	9.594962e-01	9.628537e-01	9.662996e-01	9.698080e-01	9.733737e-01	9.769838e-01	9.806309e-01	9.842970e-01	9.879626e-01	9.916251e-01	9.952542e-01	9.988280e-01	1.002325e+00	1.005705e+00	1.008940e+00	1.012014e+00	1.014922e+00	1.017692e+00	1.020393e+00	1.023144e+00	1.026086e+00	1.029345e+00	1.032932e+00	1.036685e+00	1.040238e+00	1.043096e+00	1.044763e+00	1.044881e+00	1.043379e+00	1.040587e+00	1.037317e+00	1.034758e+00	1.034038e+00	1.035800e+00	1.039806e+00	1.045424e+00	1.051894e+00	1.058892e+00	1.066464e+00	1.074745e+00	1.083081e+00	
SCALARS Pressure_Coefficient float 1
LOOKUP_TABLE default
6.485473e-01	5.897474e-01	5.543295e-01	5.322263e-01	5.168156e-01	5.017372e-01	4.792280e-01	4.437027e-01	3.912198e-01	3.220639e-01	2.404213e-01	1.550441e-01	7.982245e-02	2.709091e-02	3.222521e-04	-6.235864e-03	-2.590373e-03	2.181852e-03	2.477712e-03	-3.593829e-03	-1.534778e-02	-3.099811e-02	-4.866911e-02	-6.686971e-02	-8.471855e-02	-1.018753e-01	-1.183674e-01	-1.343562e-01	-1.500306e-01	-1.654973e-01	-1.808221e-01	-1.961226e-01	-2.115044e-01	-2.269187e-01	-2.422088e-01	-2.572275e-01	-2.719288e-01	-2.862864e-01	-3.002724e-01	-3.138488e-01	-3.270017e-01	-3.397230e-01	-3.520442e-01	-3.639408e-01	-3.753440e-01	-3.861300e-01	-3.963111e-01	-4.061101e-01	-4.159347e-01	-4.258412e-01	-4.351909e-01	-4.429599e-01	-4.487980e-01	-4.536023e-01	-4.593678e-01	-4.683362e-01	-4.819402e-01	-4.997052e-01	-5.189497e-01	-5.360042e-01	-5.483411e-01	-5.554432e-01	-5.581683e-01	-5.577547e-01	-5.551301e-01	-5.508239e-01	-5.450084e-01	-5.378862e-01	-5.297334e-01	-5.208434e-01	-5.111814e-01	-5.002395e-01	-4.873089e-01	-4.721536e-01	-4.550185e-01	-4.362642e-01	-4.157563e-01	-3.929490e-01	-3.675680e-01	-3.394657e-01	-3.083436e-01	-2.739383e-01	-2.357734e-01	-1.934031e-01	-1.461612e-01	-9.307291e-02	-3.327594e-02	3.442910e-02	1.117481e-01	2.000094e-01	3.010694e-01	4.167128e-01	5.470187e-01	6.905699e-01	8.419240e-01	9.897710e-01	1.105513e+00	1.168878e+00	1.132307e+00	1.031735e+00	9.389611e-01	7.167326e-01	3.347025e-01	2.903313e-02	-2.054499e-01	-3.755190e-01	-4.909676e-01	-5.667950e-01	-6.174794e-01	-6.515898e-01	-6.744568e-01	-6.895222e-01	-6.986926e-01	-7.041363e-01	-7.069547e-01	-7.072414e-01	-7.052973e-01	-7.018047e-01	-6.977433e-01	-6.940253e-01	-6.906253e-01	-6.866308e-01	-6.812556e-01	-6.748658e-01	-6.686534e-01	-6.632876e-01	-6.585284e-01	-6.539308e-01	-6.492138e-01	-6.441580e-01	-6.386199e-01	-6.326296e-01	-6.264068e-01	-6.202258e-01	-6.142257e-01	-6.084692e-01	-6.029940e-01	-5.979067e-01	-5.931901e-01	-5.885126e-01	-5.832762e-01	-5.769974e-01	-5.695325e-01	-5.609791e-01	-5.513291e-01	-5.404112e-01	-5.281306e-01	-5.146022e-01	-5.002778e-01	-4.857815e-01	-4.716871e-01	-4.578389e-01	-4.433477e-01	-4.271770e-01	-4.091191e-01	-3.898450e-01	-3.700376e-01	-3.496627e-01	-3.282383e-01	-3.055926e-01	-2.818826e-01	-2.573541e-01	-2.321561e-01	-2.063180e-01	-1.799232e-01	-1.530108e-01	-1.257242e-01	-9.814126e-02	-7.043023e-02	-4.265268e-02	-1.504406e-02	1.216175e-02	3.872357e-02	6.437999e-02	8.897182e-02	1.124244e-01	1.348940e-01	1.569377e-01	1.794252e-01	2.035855e-01	2.304220e-01	2.602199e-01	2.917408e-01	3.221068e-01	3.471591e-01	3.624863e-01	3.645841e-01	3.524176e-01	3.286592e-01	3.004320e-01	2.777787e-01	2.702192e-01	2.835104e-01	3.169494e-01	3.647338e-01	4.211078e-01	4.823969e-01	5.497946e-01	6.291602e-01	6.233382e-01	
SCALARS Mach float 1
LOOKUP_TABLE default
4.935179e-01	5.210697e-01	5.398351e-01	5.517308e-01	5.596449e-01	5.674034e-01	5.780680e-01	5.946549e-01	6.189221e-01	6.508105e-01	6.883834e-01	7.275290e-01	7.621422e-01	7.867516e-01	7.994553e-01	8.025588e-01	8.007095e-01	7.982580e-01	7.978862e-01	8.004656e-01	8.057078e-01	8.127784e-01	8.207934e-01	8.290636e-01	8.371708e-01	8.449609e-01	8.524429e-01	8.597063e-01	8.668235e-01	8.738536e-01	8.808454e-01	8.878346e-01	8.948731e-01	9.019416e-01	9.089679e-01	9.158825e-01	9.226747e-01	9.293152e-01	9.357960e-01	9.421095e-01	9.482286e-01	9.541736e-01	9.599311e-01	9.655158e-01	9.708637e-01	9.759458e-01	9.807405e-01	9.853890e-01	9.900510e-01	9.947874e-01	9.992422e-01	1.002939e+00	1.005678e+00	1.007931e+00	1.010681e+00	1.015065e+00	1.021774e+00	1.030583e+00	1.040096e+00	1.048498e+00	1.054547e+00	1.057975e+00	1.059258e+00	1.058981e+00	1.057648e+00	1.055470e+00	1.052575e+00	1.049025e+00	1.044998e+00	1.040603e+00	1.035857e+00	1.030478e+00	1.024152e+00	1.016742e+00	1.008424e+00	9.993157e-01	9.894462e-01	9.785643e-01	9.664587e-01	9.530733e-01	9.383655e-01	9.221752e-01	9.043312e-01	8.846104e-01	8.627038e-01	8.381373e-01	8.104688e-01	7.791973e-01	7.434806e-01	7.024446e-01	6.550471e-01	5.998794e-01	5.353430e-01	4.598689e-01	3.712574e-01	2.683058e-01	1.523998e-01	2.331654e-02	1.112494e-01	2.150431e-01	3.139345e-01	4.616816e-01	6.264674e-01	7.607273e-01	8.672200e-01	9.493189e-01	1.008885e+00	1.050155e+00	1.078494e+00	1.097885e+00	1.111087e+00	1.119742e+00	1.125116e+00	1.128386e+00	1.130165e+00	1.130598e+00	1.129763e+00	1.128042e+00	1.126047e+00	1.124242e+00	1.122642e+00	1.120772e+00	1.118158e+00	1.114924e+00	1.111769e+00	1.109066e+00	1.106712e+00	1.104441e+00	1.102121e+00	1.099618e+00	1.096878e+00	1.093898e+00	1.090808e+00	1.087734e+00	1.084763e+00	1.081915e+00	1.079218e+00	1.076720e+00	1.074421e+00	1.072153e+00	1.069632e+00	1.066581e+00	1.062940e+00	1.058757e+00	1.054041e+00	1.048713e+00	1.042719e+00	1.036143e+00	1.029165e+00	1.022143e+00	1.015349e+00	1.008735e+00	1.001849e+00	9.941904e-01	9.856388e-01	9.765210e-01	9.672042e-01	9.576383e-01	9.476295e-01	9.370789e-01	9.260777e-01	9.147302e-01	9.031145e-01	8.912418e-01	8.791479e-01	8.668512e-01	8.544058e-01	8.418725e-01	8.292553e-01	8.166549e-01	8.041447e-01	7.918002e-01	7.797681e-01	7.681504e-01	7.570167e-01	7.463955e-01	7.361932e-01	7.261630e-01	7.158568e-01	7.047311e-01	6.922744e-01	6.783913e-01	6.636614e-01	6.495106e-01	6.379739e-01	6.311754e-01	6.306909e-01	6.368237e-01	6.481114e-01	6.611593e-01	6.712523e-01	6.740741e-01	6.671553e-01	6.512453e-01	6.284644e-01	6.014868e-01	5.712733e-01	5.371532e-01	4.977790e-01	4.554091e-01	