# vtk DataFile Version 3.0
vtk output
ASCII
DATASET UNSTRUCTURED_GRID
POINTS 5233 float
9.997500e-01	-3.633623e-05	0.0	9.990000e-01	-1.457123e-04	0.0	9.977600e-01	-3.301309e-04	0.0	9.960200e-01	-6.040203e-04	0.0	9.937800e-01	-9.976133e-04	0.0	9.910500e-01	-1.560110e-03	0.0	9.878400e-01	-2.354109e-03	0.0	9.841300e-01	-3.445030e-03	0.0	9.799500e-01	-4.849717e-03	0.0	9.752800e-01	-6.538158e-03	0.0	9.701500e-01	-8.392536e-03	0.0	9.645400e-01	-1.026304e-02	0.0	9.584700e-01	-1.198184e-02	0.0	9.519400e-01	-1.343625e-02	0.0	9.449600e-01	-1.459385e-02	0.0	9.375400e-01	-1.550837e-02	0.0	9.296900e-01	-1.629172e-02	0.0	9.214000e-01	-1.707371e-02	0.0	9.127000e-01	-1.795852e-02	0.0	9.035800e-01	-1.900987e-02	0.0	8.940600e-01	-2.023906e-02	0.0	8.841500e-01	-2.161761e-02	0.0	8.738500e-01	-2.309312e-02	0.0	8.631800e-01	-2.460052e-02	0.0	8.521600e-01	-2.607776e-02	0.0	8.407700e-01	-2.747898e-02	0.0	8.290500e-01	-2.876540e-02	0.0	8.170100e-01	-2.991790e-02	0.0	8.046400e-01	-3.093251e-02	0.0	7.919700e-01	-3.181244e-02	0.0	7.790100e-01	-3.257024e-02	0.0	7.657800e-01	-3.322200e-02	0.0	7.522800e-01	-3.378603e-02	0.0	7.385200e-01	-3.427912e-02	0.0	7.245300e-01	-3.471514e-02	0.0	7.103200e-01	-3.510581e-02	0.0	6.958900e-01	-3.545994e-02	0.0	6.812700e-01	-3.578289e-02	0.0	6.664700e-01	-3.607854e-02	0.0	6.515000e-01	-3.634949e-02	0.0	6.363800e-01	-3.659765e-02	0.0	6.211300e-01	-3.682517e-02	0.0	6.057600e-01	-3.703503e-02	0.0	5.902800e-01	-3.723105e-02	0.0	5.747100e-01	-3.741792e-02	0.0	5.590600e-01	-3.760126e-02	0.0	5.433600e-01	-3.778698e-02	0.0	5.276100e-01	-3.798150e-02	0.0	5.118400e-01	-3.819057e-02	0.0	4.960500e-01	-3.841963e-02	0.0	4.802700e-01	-3.867260e-02	0.0	4.645100e-01	-3.895228e-02	0.0	4.487800e-01	-3.925989e-02	0.0	4.331100e-01	-3.959452e-02	0.0	4.175000e-01	-3.995414e-02	0.0	4.019700e-01	-4.033463e-02	0.0	3.865400e-01	-4.073032e-02	0.0	3.712300e-01	-4.113423e-02	0.0	3.560400e-01	-4.153883e-02	0.0	3.409900e-01	-4.193527e-02	0.0	3.261100e-01	-4.231396e-02	0.0	3.114000e-01	-4.266578e-02	0.0	2.968700e-01	-4.298132e-02	0.0	2.825500e-01	-4.325094e-02	0.0	2.684500e-01	-4.346584e-02	0.0	2.545700e-01	-4.361774e-02	0.0	2.409400e-01	-4.369862e-02	0.0	2.275700e-01	-4.370141e-02	0.0	2.144700e-01	-4.361968e-02	0.0	2.016600e-01	-4.344784e-02	0.0	1.891400e-01	-4.318078e-02	0.0	1.769300e-01	-4.281440e-02	0.0	1.650400e-01	-4.234518e-02	0.0	1.534900e-01	-4.177081e-02	0.0	1.422900e-01	-4.108949e-02	0.0	1.314400e-01	-4.029935e-02	0.0	1.209500e-01	-3.939971e-02	0.0	1.108500e-01	-3.839279e-02	0.0	1.011300e-01	-3.727800e-02	0.0	9.181000e-02	-3.605858e-02	0.0	8.290000e-02	-3.473791e-02	0.0	7.440000e-02	-3.331870e-02	0.0	6.633000e-02	-3.180795e-02	0.0	5.869000e-02	-3.021034e-02	0.0	5.149000e-02	-2.853334e-02	0.0	4.474000e-02	-2.678569e-02	0.0	3.844000e-02	-2.497443e-02	0.0	3.260000e-02	-2.310994e-02	0.0	2.723000e-02	-2.120379e-02	0.0	2.232000e-02	-1.926031e-02	0.0	1.790000e-02	-1.729977e-02	0.0	1.395000e-02	-1.532100e-02	0.0	1.049000e-02	-1.333980e-02	0.0	7.520000e-03	-1.136106e-02	0.0	5.040000e-03	-9.385473e-03	0.0	3.050000e-03	-7.406595e-03	0.0	1.560000e-03	-5.420181e-03	0.0	5.600000e-04	-3.375718e-03	0.0	6.000000e-05	-1.192711e-03	0.0	0.000000e+00	0.000000e+00	0.0	6.000000e-05	1.149995e-03	0.0	5.600000e-04	3.155040e-03	0.0	1.560000e-03	4.940641e-03	0.0	3.050000e-03	6.604490e-03	0.0	5.040000e-03	8.205409e-03	0.0	7.520000e-03	9.759381e-03	0.0	1.049000e-02	1.128238e-02	0.0	1.395000e-02	1.278341e-02	0.0	1.790000e-02	1.426737e-02	0.0	2.232000e-02	1.573033e-02	0.0	2.723000e-02	1.718044e-02	0.0	3.260000e-02	1.860927e-02	0.0	3.844000e-02	2.001970e-02	0.0	4.474000e-02	2.140864e-02	0.0	5.149000e-02	2.277324e-02	0.0	5.869000e-02	2.411262e-02	0.0	6.633000e-02	2.542398e-02	0.0	7.440000e-02	2.670480e-02	0.0	8.290000e-02	2.795431e-02	0.0	9.181000e-02	2.916897e-02	0.0	1.011300e-01	3.034839e-02	0.0	1.108500e-01	3.149096e-02	0.0	1.209500e-01	3.259430e-02	0.0	1.314400e-01	3.365952e-02	0.0	1.422900e-01	3.468375e-02	0.0	1.534900e-01	3.566653e-02	0.0	1.650400e-01	3.660837e-02	0.0	1.769300e-01	3.750893e-02	0.0	1.891400e-01	3.836731e-02	0.0	2.016600e-01	3.918349e-02	0.0	2.144700e-01	3.995687e-02	0.0	2.275700e-01	4.068806e-02	0.0	2.409400e-01	4.137639e-02	0.0	2.545700e-01	4.202167e-02	0.0	2.684500e-01	4.262347e-02	0.0	2.825500e-01	4.318036e-02	0.0	2.968700e-01	4.369188e-02	0.0	3.114000e-01	4.415680e-02	0.0	3.261100e-01	4.457294e-02	0.0	3.409900e-01	4.493850e-02	0.0	3.560400e-01	4.525145e-02	0.0	3.712300e-01	4.550878e-02	0.0	3.865400e-01	4.570756e-02	0.0	4.019700e-01	4.584481e-02	0.0	4.175000e-01	4.591711e-02	0.0	4.331100e-01	4.592096e-02	0.0	4.487800e-01	4.585289e-02	0.0	4.645100e-01	4.570927e-02	0.0	4.802700e-01	4.548668e-02	0.0	4.960500e-01	4.518163e-02	0.0	5.118400e-01	4.479061e-02	0.0	5.276100e-01	4.431078e-02	0.0	5.433600e-01	4.373869e-02	0.0	5.590600e-01	4.307217e-02	0.0	5.747100e-01	4.230827e-02	0.0	5.902800e-01	4.144610e-02	0.0	6.057600e-01	4.048471e-02	0.0	6.211300e-01	3.942499e-02	0.0	6.363800e-01	3.826877e-02	0.0	6.515000e-01	3.701967e-02	0.0	6.664700e-01	3.568437e-02	0.0	6.812700e-01	3.427208e-02	0.0	6.958900e-01	3.279352e-02	0.0	7.103200e-01	3.126138e-02	0.0	7.245300e-01	2.969207e-02	0.0	7.385200e-01	2.809937e-02	0.0	7.522800e-01	2.649770e-02	0.0	7.657800e-01	2.490221e-02	0.0	7.790100e-01	2.332307e-02	0.0	7.919700e-01	2.176575e-02	0.0	8.046400e-01	2.023426e-02	0.0	8.170100e-01	1.872770e-02	0.0	8.290500e-01	1.724454e-02	0.0	8.407700e-01	1.577619e-02	0.0	8.521600e-01	1.431507e-02	0.0	8.631800e-01	1.285699e-02	0.0	8.738500e-01	1.138986e-02	0.0	8.841500e-01	9.907696e-03	0.0	8.940600e-01	8.407782e-03	0.0	9.035800e-01	6.891843e-03	0.0	9.127000e-01	5.377076e-03	0.0	9.214000e-01	3.903917e-03	0.0	9.296900e-01	2.533618e-03	0.0	9.375400e-01	1.355847e-03	0.0	9.449600e-01	4.595527e-04	0.0	9.519400e-01	-8.430395e-05	0.0	9.584700e-01	-2.562578e-04	0.0	9.645400e-01	-1.068244e-04	0.0	9.701500e-01	2.500386e-04	0.0	9.752800e-01	6.665757e-04	0.0	9.799500e-01	1.009759e-03	0.0	9.841300e-01	1.192053e-03	0.0	9.878400e-01	1.192894e-03	0.0	9.910500e-01	1.045326e-03	0.0	9.937800e-01	8.103430e-04	0.0	9.960200e-01	5.519970e-04	0.0	9.977600e-01	3.204730e-04	0.0	9.990000e-01	1.448304e-04	0.0	9.997500e-01	3.632226e-05	0.0	1.000000e+00	0.000000e+00	0.0	1.984229e+01	2.506660e+00	0.0	1.937166e+01	4.973800e+00	0.0	1.859553e+01	7.362490e+00	0.0	1.752613e+01	9.635070e+00	0.0	1.618034e+01	1.175571e+01	0.0	1.457937e+01	1.369094e+01	0.0	1.274848e+01	1.541027e+01	0.0	1.071654e+01	1.688656e+01	0.0	8.515590e+00	1.809654e+01	0.0	6.180340e+00	1.902113e+01	0.0	3.747630e+00	1.964575e+01	0.0	1.255810e+00	1.996053e+01	0.0	-1.255810e+00	1.996053e+01	0.0	-3.747630e+00	1.964574e+01	0.0	-6.180340e+00	1.902113e+01	0.0	-8.515590e+00	1.809654e+01	0.0	-1.071654e+01	1.688656e+01	0.0	-1.274848e+01	1.541026e+01	0.0	-1.457937e+01	1.369094e+01	0.0	-1.618034e+01	1.175570e+01	0.0	-1.752613e+01	9.635070e+00	0.0	-1.859553e+01	7.362490e+00	0.0	-1.937166e+01	4.973800e+00	0.0	-1.984229e+01	2.506660e+00	0.0	-2.000000e+01	0.000000e+00	0.0	-1.984229e+01	-2.506670e+00	0.0	-1.937166e+01	-4.973800e+00	0.0	-1.859553e+01	-7.362490e+00	0.0	-1.752613e+01	-9.635080e+00	0.0	-1.618034e+01	-1.175571e+01	0.0	-1.457937e+01	-1.369094e+01	0.0	-1.274848e+01	-1.541027e+01	0.0	-1.071653e+01	-1.688656e+01	0.0	-8.515580e+00	-1.809654e+01	0.0	-6.180340e+00	-1.902113e+01	0.0	-3.747620e+00	-1.964575e+01	0.0	-1.255810e+00	-1.996053e+01	0.0	1.255810e+00	-1.996053e+01	0.0	3.747630e+00	-1.964574e+01	0.0	6.180340e+00	-1.902113e+01	0.0	8.515590e+00	-1.809654e+01	0.0	1.071654e+01	-1.688656e+01	0.0	1.274848e+01	-1.541026e+01	0.0	1.457937e+01	-1.369094e+01	0.0	1.618034e+01	-1.175570e+01	0.0	1.752614e+01	-9.635070e+00	0.0	1.859553e+01	-7.362490e+00	0.0	1.937166e+01	-4.973790e+00	0.0	1.984229e+01	-2.506660e+00	0.0	2.000000e+01	0.000000e+00	0.0	6.108581e-02	-3.788879e-02	0.0	6.595930e-01	-4.999016e-02	0.0	4.255308e-01	6.011711e-02	0.0	6.897953e-01	4.674824e-02	0.0	3.792149e-01	-5.520973e-02	0.0	9.994688e-01	-7.269087e-04	0.0	9.985583e-01	-1.335996e-03	0.0	7.733892e-01	-4.482718e-02	0.0	6.892697e-01	-4.904628e-02	0.0	-8.069671e-04	4.869101e-03	0.0	7.462793e-01	-4.653142e-02	0.0	5.833497e-01	5.591072e-02	0.0	9.928489e-01	-3.867155e-03	0.0	9.899895e-01	-5.005748e-03	0.0	5.989309e-01	5.491122e-02	0.0	7.182070e-01	-4.790806e-02	0.0	-1.242138e-03	5.754319e-04	0.0	9.866531e-01	-6.375864e-03	0.0	9.828437e-01	-7.987025e-03	0.0	-8.965331e-04	-5.259011e-03	0.0	6.445173e-01	-5.040120e-02	0.0	8.242407e-01	-4.008131e-02	0.0	7.994091e-01	-4.271203e-02	0.0	3.484535e-01	5.885796e-02	0.0	8.477358e-01	-3.696789e-02	0.0	2.473336e-01	5.422855e-02	0.0	8.698282e-01	-3.351872e-02	0.0	1.068947e-02	1.527335e-02	0.0	8.904156e-01	-3.004383e-02	0.0	7.735476e-02	-4.169029e-02	0.0	9.094420e-01	-2.687000e-02	0.0	-1.453389e-03	-2.632310e-03	0.0	9.425586e-01	-2.131063e-02	0.0	9.268490e-01	-2.407766e-02	0.0	1.837338e-02	-2.230484e-02	0.0	4.257029e-01	-5.434911e-02	0.0	8.589665e-01	-3.526642e-02	0.0	9.564824e-01	-1.799839e-02	0.0	9.785491e-01	-9.850402e-03	0.0	9.685024e-01	-1.397863e-02	0.0	1.586129e-01	-5.257594e-02	0.0	9.001294e-01	-2.840526e-02	0.0	7.599648e-01	-4.572560e-02	0.0	9.971452e-01	-2.107925e-03	0.0	5.985225e-01	-5.143086e-02	0.0	4.413597e-01	-5.406187e-02	0.0	5.359481e-01	-5.248952e-02	0.0	4.728374e-01	-5.350885e-02	0.0	5.044016e-01	-5.298825e-02	0.0	4.886080e-01	-5.324370e-02	0.0	1.252862e-01	-4.934996e-02	0.0	2.824414e-02	-2.703347e-02	0.0	3.946185e-01	-5.492866e-02	0.0	4.658080e-02	-3.375379e-02	0.0	4.101158e-01	-5.464065e-02	0.0	3.189499e-01	-5.613052e-02	0.0	3.487819e-01	-5.573073e-02	0.0	3.389325e-02	-2.931845e-02	0.0	2.897977e-01	-5.635281e-02	0.0	9.349217e-01	-2.272687e-02	0.0	1.471497e-01	-5.161379e-02	0.0	1.950009e-01	-5.476612e-02	0.0	8.612664e-02	-4.344340e-02	0.0	1.049185e-01	-4.663069e-02	0.0	5.673634e-01	-5.199242e-02	0.0	1.704194e-01	-5.342289e-02	0.0	6.139740e-01	-5.111537e-02	0.0	8.803177e-01	-3.176305e-02	0.0	2.308129e-02	-2.469097e-02	0.0	9.952403e-01	-2.927507e-03	0.0	7.186273e-03	-1.507640e-02	0.0	1.867268e-02	1.915026e-02	0.0	9.183505e-01	-2.543768e-02	0.0	9.49
[...]
POINT_DATA 5233

SCALARS Conservative_1 float 1
LOOKUP_TABLE default
1.194699e+00	1.179840e+00	1.173452e+00	1.171409e+00	1.170544e+00	1.167925e+00	1.159525e+00	1.142365e+00	1.113659e+00	1.072700e+00	1.019655e+00	9.489296e-01	8.817949e-01	8.577952e-01	8.739159e-01	9.088716e-01	9.453410e-01	9.715414e-01	9.847793e-01	9.865212e-01	9.787920e-01	9.640213e-01	9.448717e-01	9.232098e-01	8.983017e-01	8.695863e-01	8.436357e-01	8.290214e-01	8.272775e-01	8.345156e-01	8.461014e-01	8.587498e-01	8.707488e-01	8.812735e-01	8.902712e-01	8.978577e-01	9.042860e-01	9.098405e-01	9.147320e-01	9.192166e-01	9.234276e-01	9.275052e-01	9.314736e-01	9.353504e-01	9.390669e-01	9.425618e-01	9.457259e-01	9.484743e-01	9.506997e-01	9.523247e-01	9.532630e-01	9.534682e-01	9.528938e-01	9.515237e-01	9.493421e-01	9.463583e-01	9.425802e-01	9.380380e-01	9.327833e-01	9.268829e-01	9.204064e-01	9.132870e-01	9.054311e-01	8.969596e-01	8.886140e-01	8.809410e-01	8.732011e-01	8.627472e-01	8.471038e-01	8.279490e-01	8.118747e-01	8.035047e-01	8.025297e-01	8.061611e-01	8.121084e-01	8.192158e-01	8.273886e-01	8.368045e-01	8.474376e-01	8.592342e-01	8.722172e-01	8.863459e-01	9.016740e-01	9.181903e-01	9.359422e-01	9.550198e-01	9.754382e-01	9.973105e-01	1.020831e+00	1.046053e+00	1.073321e+00	1.103122e+00	1.135829e+00	1.172404e+00	1.213506e+00	1.258739e+00	1.304218e+00	1.347097e+00	1.348962e+00	1.323816e+00	1.299072e+00	1.225712e+00	1.095562e+00	1.006120e+00	9.492144e-01	9.155275e-01	8.954820e-01	8.822317e-01	8.722927e-01	8.643360e-01	8.576706e-01	8.517941e-01	8.465608e-01	8.417446e-01	8.373119e-01	8.333037e-01	8.296006e-01	8.260968e-01	8.228120e-01	8.198085e-01	8.172145e-01	8.150484e-01	8.131841e-01	8.115058e-01	8.100680e-01	8.090518e-01	8.085589e-01	8.085648e-01	8.090980e-01	8.103444e-01	8.125024e-01	8.156251e-01	8.195090e-01	8.237204e-01	8.276860e-01	8.308675e-01	8.329559e-01	8.339209e-01	8.339359e-01	8.332605e-01	8.320856e-01	8.305102e-01	8.286562e-01	8.267500e-01	8.251393e-01	8.242744e-01	8.246574e-01	8.268027e-01	8.309061e-01	8.366280e-01	8.429890e-01	8.490961e-01	8.547761e-01	8.605394e-01	8.669054e-01	8.740616e-01	8.819343e-01	8.904693e-01	8.997032e-01	9.095883e-01	9.199761e-01	9.306814e-01	9.414926e-01	9.522229e-01	9.626505e-01	9.726059e-01	9.818945e-01	9.904140e-01	9.980655e-01	1.004920e+00	1.011046e+00	1.016616e+00	1.021872e+00	1.027086e+00	1.032570e+00	1.038672e+00	1.045790e+00	1.054430e+00	1.065115e+00	1.078353e+00	1.094219e+00	1.112138e+00	1.130579e+00	1.147489e+00	1.160490e+00	1.167269e+00	1.165810e+00	1.154816e+00	1.134141e+00	1.106119e+00	1.076941e+00	1.054427e+00	1.046065e+00	1.055031e+00	1.077029e+00	1.104108e+00	1.131084e+00	1.157447e+00	1.185886e+00	1.175228e+00	9.999823e-01	9.999862e-01	9.999799e-01	9.999676e-01	9.999557e-01	9.999418e-01	9.999194e-01	9.998856e-01	9.998458e-01	9.998103e-01	9.997851e-01	9.997893e-01	9.998237e-01	9.998955e-01	9.999579e-01	1.000008e+00	1.000035e+00	1.000050e+00	1.000058e+00	1.000061e+00	1.000061e+00	1.000061e+00	1.000061e+00	1.000061e+00	1.000062e+00	1.000064e+00	1.000067e+00	1.000072e+00	1.000078e+00	1.000087e+00	1.000097e+00	1.000111e+00	1.000122e+00	1.000136e+00	1.000142e+00	1.000138e+00	1.000123e+00	1.000101e+00	1.000084e+00	1.000075e+00	1.000074e+00	1.000072e+00	1.000067e+00	1.000060e+00	1.000050e+00	1.000037e+00	1.000029e+00	1.000024e+00	1.000001e+00	9.999784e-01	9.244272e-01	9.184149e-01	8.282086e-01	9.393144e-01	9.403489e-01	1.179533e+00	1.172982e+00	8.586986e-01	9.089331e-01	1.221538e+00	8.801785e-01	8.751420e-01	1.159142e+00	1.152050e+00	8.826486e-01	8.967449e-01	1.318308e+00	1.139684e+00	1.119724e+00	1.325437e+00	9.226071e-01	8.434680e-01	8.384801e-01	8.359999e-01	8.918674e-01	8.249882e-01	9.376316e-01	9.309503e-01	9.691996e-01	8.926290e-01	9.806988e-01	1.344538e+00	9.066783e-01	9.589223e-01	1.079082e+00	9.498675e-01	9.173713e-01	8.953778e-01	1.090988e+00	1.003694e+00	8.123590e-01	9.785033e-01	8.699260e-01	1.166809e+00	9.341746e-01	9.515445e-01	9.469779e-01	9.526833e-01	9.510237e-01	9.521869e-01	8.336281e-01	1.026718e+00	9.442602e-01	9.611090e-01	9.474365e-01	9.183536e-01	9.305010e-01	1.003295e+00	9.034464e-01	9.347188e-01	8.181513e-01	8.241103e-01	8.784939e-01	8.536278e-01	9.411417e-01	8.096221e-01	9.304455e-01	9.548748e-01	1.051899e+00	1.163315e+00	1.176051e+00	8.958980e-01	9.743931e-01	8.880201e-01	1.053828e+00	1.136630e+00	8.640372e-01	8.815469e-01	9.442449e-01	8.890949e-01	8.474635e-01	8.429914e-01	8.606805e-01	9.377641e-01	9.139190e-01	9.421362e-01	1.214283e+00	1.108576e+00	9.357385e-01	8.127903e-01	1.204742e+00	8.735919e-01	8.654977e-01	9.112774e-01	8.880877e-01	9.524808e-01	9.032953e-01	1.288381e+00	1.294191e+00	8.566289e-01	1.332742e+00	8.744838e-01	8.473658e-01	8.592340e-01	8.207602e-01	8.294294e-01	1.122504e+00	8.506118e-01	8.324426e-01	1.114580e+00	1.145310e+00	1.061883e+00	8.376305e-01	8.279655e-01	8.329941e-01	1.116718e+00	1.086571e+00	8.335819e-01	1.093757e+00	1.150950e+00	1.142657e+00	8.262257e-01	8.423641e-01	8.353837e-01	8.291053e-01	8.132327e-01	8.373052e-01	8.292333e-01	8.311531e-01	8.149156e-01	8.185285e-01	8.995419e-01	8.137761e-01	8.176259e-01	9.187803e-01	8.683582e-01	9.785544e-01	9.596871e-01	1.008476e+00	9.948916e-01	1.031260e+00	1.020074e+00	1.073284e+00	1.044286e+00	1.149763e+00	1.101382e+00	1.132787e+00	1.037387e+00	1.052329e+00	1.014439e+00	1.025590e+00	9.870808e-01	1.002015e+00	9.496051e-01	9.693816e-01	9.089054e-01	9.289764e-01	8.623236e-01	8.907809e-01	8.152045e-01	8.209880e-01	8.138077e-01	8.131878e-01	8.529420e-01	8.165448e-01	9.108765e-01	8.663466e-01	8.423074e-01	1.001590e+00	9.401462e-01	8.355840e-01	9.247039e-01	9.492676e-01	1.061247e+00	8.840928e-01	9.593733e-01	8.296874e-01	8.378005e-01	8.327299e-01	8.232748e-01	1.075499e+00	1.065315e+00	8.368758e-01	1.067111e+00	1.080134e+00	8.369318e-01	8.346584e-01	1.131069e+00	1.201630e+00	1.145561e+00	1.166076e+00	9.265892e-01	9.814688e-01	1.100170e+00	8.440547e-01	1.254968e+00	1.140846e+00	9.079274e-01	8.253979e-01	8.953834e-01	8.464555e-01	1.200793e+00	1.261654e+00	9.022284e-01	9.081189e-01	9.732006e-01	1.169573e+00	8.769995e-01	9.131607e-01	8.598352e-01	1.134638e+00	9.228022e-01	9.122079e-01	8.651803e-01	8.856169e-01	1.299328e+00	8.572292e-01	1.108058e+00	9.465288e-01	8.257502e-01	9.023402e-01	9.218869e-01	9.512296e-01	8.996019e-01	9.421711e-01	9.703627e-01	8.512362e-01	9.876796e-01	9.168726e-01	9.279879e-01	1.029736e+00	8.299592e-01	9.378060e-01	8.192428e-01	1.050285e+00	1.079350e+00	8.399639e-01	8.523566e-01	1.136542e+00	1.058913e+00	1.085164e+00	1.134891e+00	1.090628e+00	8.269938e-01	8.405610e-01	8.235608e-01	8.332592e-01	9.177226e-01	8.400433e-01	9.577178e-01	8.221164e-01	8.643911e-01	1.117396e+00	1.097938e+00	1.068790e+00	8.207227e-01	1.210057e+00	1.132632e+00	1.114342e+00	1.027529e+00	1.136763e+00	1.203024e+00	1.331368e+00	1.320484e+00	1.080278e+00	1.211960e+00	9.308572e-01	1.163177e+00	1.152301e+00	8.329321e-01	9.455341e-01	1.119202e+00	9.473504e-01	8.841447e-01	1.145263e+00	1.323613e+00	9.499950e-01	8.342164e-01	8.883046e-01	8.375743e-01	9.315811e-01	9.606195e-01	9.146724e-01	9.748961e-01	9.646628e-01	9.171330e-01	1.030346e+00	9.189568e-01	9.920635e-01	1.097362e+00	8.411598e-01	8.793664e-01	8.697571e-01	1.157755e+00	9.517830e-01	9.516848e-01	9.509493e-01	1.054560e+00	9.454694e-01	9.480835e-01	9.284678e-01	9.866011e-01	9.497965e-01	9.315108e-01	8.328906e-01	8.727046e-01	9.428468e-01	9.331641e-01	1.035065e+00	1.069371e+00	8.957488e-01	8.881408e-01	8.610035e-01	8.504913e-01	9.398561e-01	9.365954e-01	9.668402e-01	9.482696e-01	1.137699e+00	9.336022e-01	9.382030e-01	8.201803e-01	8.263915e-01	8.719121e-01	8.815712e-01	9.096534e-01	9.165854e-01	8.883701e-01	1.303253e+00	1.237922e+00	8.718843e-01	1.081285e+00	8.585925e-01	8.458239e-01	8.398921e-01	8.354925e-01	1.103852e+00	1.128308e+00	1.104479e+00	8.330927e-01	8.323982e-01	8.358495e-01	1.092026e+00	1.133471e+00	8.518172e-01	8.577507e-01	8.308360e-01	8.345456e-01	8.204087e-01	8.244034e-01	8.270494e-01	1.005801e+00	9.755608e-01	9.666140e-01	9.991178e-01	1.023858e+00	1.079893e+00	1.042693e+00	1.035927e+00	1.018077e+00	1.012119e+00	9.918348e-01	9.839789e-01	9.572629e-01	9.476085e-01	9.183219e-01	9.089819e-01	8.704268e-01	8.644337e-01	9.001377e-01	8.918437e-01	8.209252e-01	8.192478e-01	8.185221e-01	8.185882e-01	9.349151e-01	8.805381e-01	8.906436e-01	8.467619e-01	8.505096e-01	9.496524e-01	9.478143e-01	1.078505e+00	9.025003e-01	8.371108e-01	8.415270e-01	8.405123e-01	8.395755e-01	8.375065e-01	8.389184e-01	1.126395e+00	1.116327e+00	9.295563e-01	9.258252e-01	1.007698e+00	1.271803e+00	8.949246e-01	1.297044e+00	9.436825e-01	9.085696e-01	8.639268e-01	9.464746e-01	9.679478e-01	1.090957e+00	1.088130e+00	1.121424e+00	1.088335e+00	1.099404e+00	1.150356e+00	1.175606e+00	1.153004e+00	1.195384e+00	1.081446e+00	1.282235e+00	8.935743e-01	9.596646e-01	1.131315e+00	8.796368e-01	1.171009e+00	1.192433e+00	9.075851e-01	1.251149e+00	9.019105e-01	1.106992e+00	9.426466e-01	1.162851e+00	9.268230e-01	9.278609e-01	9.126613e-01	1.140625e+00	1.134398e+00	1.097756e+00	8.610323e-01	1.123966e+00	9.280666e-01	1.111491e+00	8.545595e-01	8.397734e-01	8.440338e-01	8.261919e-01	8.609891e-01	1.164129e+00	1.273177e+00	1.184526e+00	9.537792e-01	1.238971e+00	9.895518e-01	9.073581e-01	1.312522e+00	8.341004e-01	9.508450e-01	1.057198e+00	1.007179e+00	1.028184e+00	1.003541e+00	9.373603e-01	1.090734e+00	1.124471e+00	1.064567e+00	1.055829e+00	8.442599e-01	8.422667e-01	8.294874e-01	8.404477e-01	9.213581e-01	9.171993e-01	8.542977e-01	9.777144e-01	8.279013e-01	1.106649e+00	1.123594e+00	1.044097e+00	1.136361e+00	1.222238e+00	1.307908e+00	1.034028e+00	1.180681e+00	1.174366e+00	1.025061e+00	1.119204e+00	8.864875e-01	9.499979e-01	8.379220e-01	8.873915e-01	9.091740e-01	9.548843e-01	9.645478e-01	9.380129e-01	9.221889e-01	9.704357e-01	9.717161e-01	9.398416e-01	9.568690e-01	1.102925e+00	8.797938e-01	8.714594e-01	1.146583e+00	9.510870e-01	9.507070e-01	9.464310e-01	9.485200e-01	1.012498e+00	9.486086e-01	9.395326e-01	8.494368e-01	8.410693e-01	9.442042e-01	9.416114e-01	1.055589e+00	1.081483e+00	8.954081e-01	8.880240e-01	8.808623e-01	8.690599e-01	8.585709e-01	9.387145e-01	9.356099e-01	9.924082e-01	9.732044e-01	9.549833e-01	9.318051e-01	9.363435e-01	9.403036e-01	8.305316e-01	8.320073e-01	8.403448e-01	8.694959e-01	8.811965e-01	9.152355e-01	9.212990e-01	8.891076e-01	8.837699e-01	8.480832e-01	8.426663e-01	1.115140e+00	8.391472e-01	8.374606e-01	8.372179e-01	8.391942e-01	1.094629e+00	8.677776e-01	8.753285e-01	8.364761e-01	8.328613e-01	8.301952e-01	8.333183e-01	8.368197e-01	9.735040e-01	1.084313e+00	1.074067e+00	1.047944e+00	1.040840e+00	1.034392e+00	1.022133e+00	1.016166e+00	1.010006e+00	9.967703e-01	9.895058e-01	9.817240e-01	9.648686e-01	9.558886e-01	9.466944e-01	9.189043e-01	8.731001e-01	8.671631e-01	9.101112e-01	9.017319e-01	8.938446e-01	8.267671e-01	8.249280e-01	8.240359e-01	8.240628e-01	8.248697e-01	8.934794e-01	9.049880e-01	8.588964e-01	8.597612e-01	8.691256e-01	9.498001e-01	9.483441e-01	9.185051e-01	9.343693e-01	8.445481e-01	8.494112e-01	8.548938e-01	8.437468e-01	8.407141e-01	8.421924e-01	8.433283e-01	1.120086e+00	1.113379e+00	1.104645e+00	9.323045e-01	9.288507e-01	9.252035e-01	8.953379e-01	9.018023e-01	1.272044e+00	9.020946e-01	1.118195e+00	1.096062e+00	9.453597e-01	1.255973e+00	1.157804e+00	9.659360e-01	9.605120e-01	1.037046e+00	1.100507e+00	8.578278e-01	1.249734e+00	9.945651e-01	1.180099e+00	1.113702e+00	1.108529e+00	1.170408e+00	9.283363e-01	1.132072e+00	1.180604e+00	1.181627e+00	8.699265e-01	8.449571e-01	1.081717e+00	9.448660e-01	9.156588e-01	9.497585e-01	9.144962e-01	1.093925e+00	8.825855e-01	1.114373e+00	1.112612e+00	1.001791e+00	8.345678e-01	8.423204e-01	1.118163e+00	8.776659e-01	9.403065e-01	1.136363e+00	1.095255e+00	1.142894e+00	1.045946e+00	1.104771e+00	9.123568e-01	1.205867e+00	9.077991e-01	9.017380e-01	1.129481e+00	1.128195e+00	1.154785e+00	1.026339e+00	8.629640e-01	8.480705e-01	1.215193e+00	1.022643e+00	9.378838e-01	1.061050e+00	8.483020e-01	8.470436e-01	8.450954e-01	9.209332e-01	9.171713e-01	1.100623e+00	1.055106e+00	1.092674e+00	1.230401e+00	1.283949e+00	1.058859e+00	1.020400e+00	1.105080e+00	8.901317e-01	9.093578e-01	9.264220e-01	9.515093e-01	9.606095e-01	9.454044e-01	9.300743e-01	9.669314e-01	9.700256e-01	9.695756e-01	9.702171e-01	9.931579e-01	8.812866e-01	8.764944e-01	1.136380e+00	9.502934e-01	9.502547e-01	9.470635e-01	9.486851e-01	9.561878e-01	9.578807e-01	8.590856e-01	8.503932e-01	9.431641e-01	1.068683e+00	1.088644e+00	8.962127e-01	8.885643e-01	8.894502e-01	8.780527e-01	8.682352e-01	9.405793e-01	9.379023e-01	1.017346e+00	9.980021e-01	9.791256e-01	9.615542e-01	9.304038e-01	9.347975e-01	9.386508e-01	9.420377e-01	8.431761e-01	8.464772e-01	8.553489e-01	8.680319e-01	8.802974e-01	9.256190e-01	9.202616e-01	8.897318e-01	8.513566e-01	1.105984e+00	1.110706e+00	8.468056e-01	8.440201e-01	8.428107e-01	8.427701e-01	8.434611e-01	8.862937e-01	8.960061e-01	8.390800e-01	8.359238e-01	8.369423e-01	8.398976e-01	8.438743e-01	8.482014e-01	1.086655e+00	1.077947e+00	1.069388e+00	1.053232e+00	1.046076e+00	1.039479e+00	1.032438e+00	1.021086e+00	1.014278e+00	1.008141e+00	9.947865e-01	9.877805e-01	9.799404e-01	9.722629e-01	9.635691e-01	9.554326e-01	9.461362e-01	8.702176e-01	8.755429e-01	9.203765e-01	9.111407e-01	9.039875e-01	8.956278e-01	8.332540e-01	8.313742e-01	8.302485e-01	8.300382e-01	8.307265e-01	8.322629e-01	9.065351e-01	9.188350e-01	8.713670e-01	8.771739e-01	8.907417e-01	9.496729e-01	9.487598e-01	9.472073e-01	9.337128e-01	9.508080e-01	9.705800e-01	8.526586e-01	8.576182e-01	8.636705e-01	8.703534e-01	8.445841e-01	8.458950e-01	8.471878e-01	8.479335e-01	1.094959e+00	1.108445e+00	1.102542e+00	9.347890e-01	9.318025e-01	9.282680e-01	9.249751e-01	8.964193e-01	9.024415e-01	9.083698e-01	1.124451e+00	1.114989e+00	1.040953e+00	1.171362e+00	1.146993e+00	9.058290e-01	9.113035e-01	1.169002e+00	1.097801e+00	1.211989e+00	1.059996e+00	8.581830e-01	8.446452e-01	1.034581e+00	1.127516e+00	1.227021e+00	1.288398e+00	1.289760e+00	1.274678e+00	1.229164e+00	1.137119e+00	8.528693e-01	1.060153e+00	1.117180e+00	9.694496e-01	8.822216e-01	9.458739e-01	1.106335e+00	1.087708e+00	1.102734e+00	8.816843e-01	8.698624e-01	9.336622e-01	9.965523e-01	8.610696e-01	9.453779e-01	8.523050e-01	1.100994e+00	9.245580e-01	1.157482e+00	1.096647e+00	1.284059e+00	1.177132e+00	1.169518e+00	9.684016e-01	1.040638e+00	1.247271e+00	1.008439e+00	1.190948e+00	1.105954e+00	1.159255e+00	1.171795e+00	1.171985e+00	1.102685e+00	9.244426e-01	9.196471e-01	1.097584e+00	8.930254e-01	1.105324e+00	1.106207e+00	9.150417e-01	1.194500e+00	8.515421e-01	8.504521e-01	8.475748e-01	9.229092e-01	1.063121e+00	1.094566e+00	1.258750e+00	1.081748e+00	9.280173e-01	9.391784e-01	9.500604e-01	9.585597e-01	9.384486e-01	9.537425e-01	9.653365e-01	9.693935e-01	9.711115e-01	9.708991e-01	9.997315e-01	1.020409e+00	8.882107e-01	1.125851e+00	9.494966e-01	9.496886e-01	9.474639e-01	9.485607e-01	9.725779e-01	9.825341e-01	8.689681e-01	8.598306e-01	1.077772e+00	1.093221e+00	8.971045e-01	8.986554e-01	8.866628e-01	8.798132e-01	9.410936e-01	1.022051e+00	1.003483e+00	9.854422e-01	9.694503e-01	9.291844e-01	9.333759e-01	9.371871e-01	9.405752e-01	9.433471e-01	8.552708e-01	8.607635e-01	8.674101e-01	8.786247e-01	8.886077e-01	1.100226e+00	1.102949e+00	1.105070e+00	8.545023e-01	8.518742e-01	8.487585e-01	8.488795e-01	8.479797e-01	8.977978e-01	9.084765e-01	8.453057e-01	8.417867e-01	8.460957e-01	8.511825e-01	8.563592e-01	1.079719e+00	1.072782e+00	1.064898e+00	1.057745e+00	1.050548e+00	1.043963e+00	1.037097e+00	1.027756e+00	1.019393e+00	1.009229e+00	9.824068e-01	9.669961e-01	9.506121e-01	9.170105e-01	9.027528e-01	8.400808e-01	8.374404e-01	8.374014e-01	8.360327e-01	8.377876e-01	8.391612e-01	8.415006e-01	9.201953e-01	9.329302e-01	8.863420e-01	8.941215e-01	9.110836e-01	9.493966e-01	9.481901e-01	9.480485e-01	9.661145e-01	9.857852e-01	8.615773e-01	8.670447e-01	8.733421e-01	8.812766e-01	8.893404e-01	8.494224e-01	8.495523e-01	8.514253e-01	8.525363e-01	1.099061e+00	1.092688e+00	9.357870e-01	9.297453e-01	8.969911e-01	9.031883e-01	9.092053e-01	9.141289e-01	1.164036e+00	1.144554e+00	1.158171e+00	1.245842e+00	1.174607e+00	1.069864e+00	1.100618e+00	1.176808e+00	1.099018e+00	1.138937e+00	1.096152e+00	1.236842e+00	1.061190e+00	1.138785e+00	8.571544e-01	1.172459e+00	1.068347e+00	1.148614e+00	1.119117e+00	1.054890e+00	9.467366e-01	1.097994e+00	9.259697e-01	9.840208e-01	9.769660e-01	9.339860e-01	9.205979e-01	8.692088e-01	1.209703e+00	9.470407e-01	9.483265e-01	9.347085e-01	8.564847e-01	1.096953e+00	1.082464e+00	1.203676e+00	1.043277e+00	1.039085e+00	1.163999e+00	1.096823e+00	1.285404e+00	1.224823e+00	1.107054e+00	9.059336e-01	8.716543e-01	8.612448e-01	1.104802e+00	1.168086e+00	1.120088e+00	1.261890e+00	1.172094e+00	1.043910e+00	1.194529e+00	1.176921e+00	8.936117e-01	1.080414e+00	1.098807e+00	1.096389e+00	8.824171e-01	8.558074e-01	8.518048e-01	9.137497e-01	1.094873e+00	1.122095e+00	1.100379e+00	9.452914e-01	9.611468e-01	9.619494e-01	9.715904e-01	9.755085e-01	1.022662e+00	1.116367e+00	9.488009e-01	9.933841e-01	1.006685e+00	8.755859e-01	1.083662e+00	8.986642e-01	8.936549e-01	9.031646e-01	8.896439e-01	9.436093e-01	1.026523e+00	1.008060e+00	9.910724e-01	9.792134e-01	9.339635e-01	9.405111e-01	9.446559e-01	8.749451e-01	8.911356e-01	1.097768e+00	1.098658e+00	8.554346e-01	8.539575e-01	9.208346e-01	8.470095e-01	8.646047e-01	1.015583e+00	1.070467e+00	1.057146e+00	1.044404e+00	1.033688e+00	1.024780e+00	1.004387e+00	9.915376e-01	9.774943e-01	9.625271e-01	9.467003e-01	9.305042e-01	9.158385e-01	9.042327e-01	8.440347e-01	8.439767e-01	8.468737e-01	8.476867e-01	8.521523e-01	9.340108e-01	9.472419e-01	8.952067e-01	9.068944e-01	9.287471e-01	9.491924e-01	9.484819e-01	9.619467e-01	9.797038e-01	9.993055e-01	1.020022e+00	8.711590e-01	8.771295e-01	8.837126e-01	8.919986e-01	9.024343e-01	9.086441e-01	8.548022e-01	8.570038e-01	1.095359e+00	1.090464e+00	9.392211e-01	9.280739e-01	9.213753e-01	9.065168e-01	9.171524e-01	1.109447e+00	1.162799e+00	1.158735e+00	1.126809e+00	1.005801e+00	1.102701e+00	1.168720e+00	1.132988e+00	1.163951e+00	1.114120e+00	1.145756e+00	1.123258e+00	1.094002e+00	1.183828e+00	1.216297e+00	1.094191e+00	9.078140e-01	8.621723e-01	1.116216e+00	9.785769e-01	1.079202e+00	9.272736e-01	1.071772e+00	1.147953e+00	9.458589e-01	1.001294e+00	9.325459e-01	9.454184e-01	1.064618e+00	1.076514e+00	1.062301e+00	1.047362e+00	1.165253e+00	1.096804e+00	1.099098e+00	1.093296e+00	8.586295e-01	9.052155e-01	9.204574e-01	9.694986e-01	1.141368e+00	1.149059e+00	1.261403e+00	1.051920e+00	1.093773e+00	1.169252e+00	1.087747e+00	1.161716e+00	1.130896e+00	9.475568e-01	1.204705e+00	9.594169e-01	9.435093e-01	1.095366e+00	1.222427e+00	1.038875e+00	1.098020e+00	9.138231e-01	1.238291e+00	1.170896e+00	9.855130e-01	1.192119e+00	1.178713e+00	8.834734e-01	1.096930e+00	1.091460e+00	8.944511e-01	8.614434e-01	9.162193e-01	1.116558e+00	1.138804e+00	9.588227e-01	9.705818e-01	9.834273e-01	9.905074e-01	1.108063e+00	9.477471e-01	1.012996e+00	1.025636e+00	9.428653e-01	9.126208e-01	9.285895e-01	9.038179e-01	9.279822e-01	9.122536e-01	8.979086e-01	1.029574e+00	9.314944e-01	9.379951e-01	8.864689e-01	8.825034e-01	9.268179e-01	1.094594e+00	8.727440e-01	8.646385e-01	8.727041e-01	1.073190e+00	1.061968e+00	1.021173e+00	1.050210e+00	1.039431e+00	1.030070e+00	1.011248e+00	9.996894e-01	9.868769e-01	9.731989e-01	9.586964e-01	9.434716e-01	9.287883e-01	8.545827e-01	8.516716e-01	8.514812e-01	8.540216e-01	8.575083e-01	8.649080e-01	9.467142e-01	9.612504e-01	9.044320e-01	9.451021e-01	9.487610e-01	9.486392e-01	9.753463e-01	9.917739e-01	1.010631e+00	1.029737e+00	1.050083e+00	8.814595e-01	8.889906e-01	8.953137e-01	9.030599e-01	9.135542e-01	8.607880e-01	8.601482e-01	8.612673e-01	1.088622e+00	1.082164e+00	9.420493e-01	9.376483e-01	8.893142e-01	9.029175e-01	9.153002e-01	9.241416e-01	1.144187e+00	1.151331e+00	1.148874e+00	1.111868e+00	1.148281e+00	1.130270e+00	1.110871e+00	1.017599e+00	1.166725e+00	1.115984e+00	1.112679e+00	1.049841e+00	1.159246e+00	1.089897e+00	8.620879e-01	1.134655e+00	1.138746e+00	1.108452e+00	1.164090e+00	1.073957e+00	9.077063e-01	1.008325e+00	9.873211e-01	9.133182e-01	1.130352e+00	1.123584e+00	1.119871e+00	1.167235e+00	1.151712e+00	9.067676e-01	9.