# vtk DataFile Version 3.0
vtk output
ASCII
DATASET UNSTRUCTURED_GRID
POINTS 200 float
9.997500e-01	-3.633623e-05	0.0	9.990000e-01	-1.457123e-04	0.0	9.977600e-01	-3.301309e-04	0.0	9.960200e-01	-6.040203e-04	0.0	9.937800e-01	-9.976133e-04	0.0	9.910500e-01	-1.560110e-03	0.0	9.878400e-01	-2.354109e-03	0.0	9.841300e-01	-3.445030e-03	0.0	9.799500e-01	-4.849717e-03	0.0	9.752800e-01	-6.538158e-03	0.0	9.701500e-01	-8.392536e-03	0.0	9.645400e-01	-1.026304e-02	0.0	9.584700e-01	-1.198184e-02	0.0	9.519400e-01	-1.343625e-02	0.0	9.449600e-01	-1.459385e-02	0.0	9.375400e-01	-1.550837e-02	0.0	9.296900e-01	-1.629172e-02	0.0	9.214000e-01	-1.707371e-02	0.0	9.127000e-01	-1.795852e-02	0.0	9.035800e-01	-1.900987e-02	0.0	8.940600e-01	-2.023906e-02	0.0	8.841500e-01	-2.161761e-02	0.0	8.738500e-01	-2.309312e-02	0.0	8.631800e-01	-2.460052e-02	0.0	8.521600e-01	-2.607776e-02	0.0	8.407700e-01	-2.747898e-02	0.0	8.290500e-01	-2.876540e-02	0.0	8.170100e-01	-2.991790e-02	0.0	8.046400e-01	-3.093251e-02	0.0	7.919700e-01	-3.181244e-02	0.0	7.790100e-01	-3.257024e-02	0.0	7.657800e-01	-3.322200e-02	0.0	7.522800e-01	-3.378603e-02	0.0	7.385200e-01	-3.427912e-02	0.0	7.245300e-01	-3.471514e-02	0.0	7.103200e-01	-3.510581e-02	0.0	6.958900e-01	-3.545994e-02	0.0	6.812700e-01	-3.578289e-02	0.0	6.664700e-01	-3.607854e-02	0.0	6.515000e-01	-3.634949e-02	0.0	6.363800e-01	-3.659765e-02	0.0	6.211300e-01	-3.682517e-02	0.0	6.057600e-01	-3.703503e-02	0.0	5.902800e-01	-3.723105e-02	0.0	5.747100e-01	-3.741792e-02	0.0	5.590600e-01	-3.760126e-02	0.0	5.433600e-01	-3.778698e-02	0.0	5.276100e-01	-3.798150e-02	0.0	5.118400e-01	-3.819057e-02	0.0	4.960500e-01	-3.841963e-02	0.0	4.802700e-01	-3.867260e-02	0.0	4.645100e-01	-3.895228e-02	0.0	4.487800e-01	-3.925989e-02	0.0	4.331100e-01	-3.959452e-02	0.0	4.175000e-01	-3.995414e-02	0.0	4.019700e-01	-4.033463e-02	0.0	3.865400e-01	-4.073032e-02	0.0	3.712300e-01	-4.113423e-02	0.0	3.560400e-01	-4.153883e-02	0.0	3.409900e-01	-4.193527e-02	0.0	3.261100e-01	-4.231396e-02	0.0	3.114000e-01	-4.266578e-02	0.0	2.968700e-01	-4.298132e-02	0.0	2.825500e-01	-4.325094e-02	0.0	2.684500e-01	-4.346584e-02	0.0	2.545700e-01	-4.361774e-02	0.0	2.409400e-01	-4.369862e-02	0.0	2.275700e-01	-4.370141e-02	0.0	2.144700e-01	-4.361968e-02	0.0	2.016600e-01	-4.344784e-02	0.0	1.891400e-01	-4.318078e-02	0.0	1.769300e-01	-4.281440e-02	0.0	1.650400e-01	-4.234518e-02	0.0	1.534900e-01	-4.177081e-02	0.0	1.422900e-01	-4.108949e-02	0.0	1.314400e-01	-4.029935e-02	0.0	1.209500e-01	-3.939971e-02	0.0	1.108500e-01	-3.839279e-02	0.0	1.011300e-01	-3.727800e-02	0.0	9.181000e-02	-3.605858e-02	0.0	8.290000e-02	-3.473791e-02	0.0	7.440000e-02	-3.331870e-02	0.0	6.633000e-02	-3.180795e-02	0.0	5.869000e-02	-3.021034e-02	0.0	5.149000e-02	-2.853334e-02	0.0	4.474000e-02	-2.678569e-02	0.0	3.844000e-02	-2.497443e-02	0.0	3.260000e-02	-2.310994e-02	0.0	2.723000e-02	-2.120379e-02	0.0	2.232000e-02	-1.926031e-02	0.0	1.790000e-02	-1.729977e-02	0.0	1.395000e-02	-1.532100e-02	0.0	1.049000e-02	-1.333980e-02	0.0	7.520000e-03	-1.136106e-02	0.0	5.040000e-03	-9.385473e-03	0.0	3.050000e-03	-7.406595e-03	0.0	1.560000e-03	-5.420181e-03	0.0	5.600000e-04	-3.375718e-03	0.0	6.000000e-05	-1.192711e-03	0.0	0.000000e+00	0.000000e+00	0.0	6.000000e-05	1.149995e-03	0.0	5.600000e-04	3.155040e-03	0.0	1.560000e-03	4.940641e-03	0.0	3.050000e-03	6.604490e-03	0.0	5.040000e-03	8.205409e-03	0.0	7.520000e-03	9.759381e-03	0.0	1.049000e-02	1.128238e-02	0.0	1.395000e-02	1.278341e-02	0.0	1.790000e-02	1.426737e-02	0.0	2.232000e-02	1.573033e-02	0.0	2.723000e-02	1.718044e-02	0.0	3.260000e-02	1.860927e-02	0.0	3.844000e-02	2.001970e-02	0.0	4.474000e-02	2.140864e-02	0.0	5.149000e-02	2.277324e-02	0.0	5.869000e-02	2.411262e-02	0.0	6.633000e-02	2.542398e-02	0.0	7.440000e-02	2.670480e-02	0.0	8.290000e-02	2.795431e-02	0.0	9.181000e-02	2.916897e-02	0.0	1.011300e-01	3.034839e-02	0.0	1.108500e-01	3.149096e-02	0.0	1.209500e-01	3.259430e-02	0.0	1.314400e-01	3.365952e-02	0.0	1.422900e-01	3.468375e-02	0.0	1.534900e-01	3.566653e-02	0.0	1.650400e-01	3.660837e-02	0.0	1.769300e-01	3.750893e-02	0.0	1.891400e-01	3.836731e-02	0.0	2.016600e-01	3.918349e-02	0.0	2.144700e-01	3.995687e-02	0.0	2.275700e-01	4.068806e-02	0.0	2.409400e-01	4.137639e-02	0.0	2.545700e-01	4.202167e-02	0.0	2.684500e-01	4.262347e-02	0.0	2.825500e-01	4.318036e-02	0.0	2.968700e-01	4.369188e-02	0.0	3.114000e-01	4.415680e-02	0.0	3.261100e-01	4.457294e-02	0.0	3.409900e-01	4.493850e-02	0.0	3.560400e-01	4.525145e-02	0.0	3.712300e-01	4.550878e-02	0.0	3.865400e-01	4.570756e-02	0.0	4.019700e-01	4.584481e-02	0.0	4.175000e-01	4.591711e-02	0.0	4.331100e-01	4.592096e-02	0.0	4.487800e-01	4.585289e-02	0.0	4.645100e-01	4.570927e-02	0.0	4.802700e-01	4.548668e-02	0.0	4.960500e-01	4.518163e-02	0.0	5.118400e-01	4.479061e-02	0.0	5.276100e-01	4.431078e-02	0.0	5.433600e-01	4.373869e-02	0.0	5.590600e-01	4.307217e-02	0.0	5.747100e-01	4.230827e-02	0.0	5.902800e-01	4.144610e-02	0.0	6.057600e-01	4.048471e-02	0.0	6.211300e-01	3.942499e-02	0.0	6.363800e-01	3.826877e-02	0.0	6.515000e-01	3.701967e-02	0.0	6.664700e-01	3.568437e-02	0.0	6.812700e-01	3.427208e-02	0.0	6.958900e-01	3.279352e-02	0.0	7.103200e-01	3.126138e-02	0.0	7.245300e-01	2.969207e-02	0.0	7.385200e-01	2.809937e-02	0.0	7.522800e-01	2.649770e-02	0.0	7.657800e-01	2.490221e-02	0.0	7.790100e-01	2.332307e-02	0.0	7.919700e-01	2.176575e-02	0.0	8.046400e-01	2.023426e-02	0.0	8.170100e-01	1.872770e-02	0.0	8.290500e-01	1.724454e-02	0.0	8.407700e-01	1.577619e-02	0.0	8.521600e-01	1.431507e-02	0.0	8.631800e-01	1.285699e-02	0.0	8.738500e-01	1.138986e-02	0.0	8.841500e-01	9.907696e-03	0.0	8.940600e-01	8.407782e-03	0.0	9.035800e-01	6.891843e-03	0.0	9.127000e-01	5.377076e-03	0.0	9.214000e-01	3.903917e-03	0.0	9.296900e-01	2.533618e-03	0.0	9.375400e-01	1.355847e-03	0.0	9.449600e-01	4.595527e-04	0.0	9.519400e-01	-8.430395e-05	0.0	9.584700e-01	-2.562578e-04	0.0	9.645400e-01	-1.068244e-04	0.0	9.701500e-01	2.500386e-04	0.0	9.752800e-01	6.665757e-04	0.0	9.799500e-01	1.009759e-03	0.0	9.841300e-01	1.192053e-03	0.0	9.878400e-01	1.192894e-03	0.0	9.910500e-01	1.045326e-03	0.0	9.937800e-01	8.103430e-04	0.0	9.960200e-01	5.519970e-04	0.0	9.977600e-01	3.204730e-04	0.0	9.990000e-01	1.448304e-04	0.0	9.997500e-01	3.632226e-05	0.0	1.000000e+00	0.000000e+00	0.0	
CELLS 200	600
2	199	0	2	0	1	2	1	2	2	2	3	2	3	4	2	4	5	2	5	6	2	6	7	2	7	8	2	8	9	2	9	10	2	10	11	2	11	12	2	12	13	2	13	14	2	14	15	2	15	16	2	16	17	2	17	18	2	18	19	2	19	20	2	20	21	2	21	22	2	22	23	2	23	24	2	24	25	2	25	26	2	26	27	2	27	28	2	28	29	2	29	30	2	30	31	2	31	32	2	32	33	2	33	34	2	34	35	2	35	36	2	36	37	2	37	38	2	38	39	2	39	40	2	40	41	2	41	42	2	42	43	2	43	44	2	44	45	2	45	46	2	46	47	2	47	48	2	48	49	2	49	50	2	50	51	2	51	52	2	52	53	2	53	54	2	54	55	2	55	56	2	56	57	2	57	58	2	58	59	2	59	60	2	60	61	2	61	62	2	62	63	2	63	64	2	64	65	2	65	66	2	66	67	2	67	68	2	68	69	2	69	70	2	70	71	2	71	72	2	72	73	2	73	74	2	74	75	2	75	76	2	76	77	2	77	78	2	78	79	2	79	80	2	80	81	2	81	82	2	82	83	2	83	84	2	84	85	2	85	86	2	86	87	2	87	88	2	88	89	2	89	90	2	90	91	2	91	92	2	92	93	2	93	94	2	94	95	2	95	96	2	96	97	2	97	98	2	98	99	2	99	100	2	100	101	2	101	102	2	102	103	2	103	104	2	104	105	2	105	106	2	106	107	2	107	108	2	108	109	2	109	110	2	110	111	2	111	112	2	112	113	2	113	114	2	114	115	2	115	116	2	116	117	2	117	118	2	118	119	2	119	120	2	120	121	2	121	122	2	122	123	2	123	124	2	124	125	2	125	126	2	126	127	2	127	128	2	128	129	2	129	130	2	130	131	2	131	132	2	132	133	2	133	134	2	134	135	2	135	136	2	136	137	2	137	138	2	138	139	2	139	140	2	140	141	2	141	142	2	142	143	2	143	144	2	144	145	2	145	146	2	146	147	2	147	148	2	148	149	2	149	150	2	150	151	2	151	152	2	152	153	2	153	154	2	154	155	2	155	156	2	156	157	2	157	158	2	158	159	2	159	160	2	160	161	2	161	162	2	162	163	2	163	164	2	164	165	2	165	166	2	166	167	2	167	168	2	168	169	2	169	170	2	170	171	2	171	172	2	172	173	2	173	174	2	174	175	2	175	176	2	176	177	2	177	178	2	178	179	2	179	180	2	180	181	2	181	182	2	182	183	2	183	184	2	184	185	2	185	186	2	186	187	2	187	188	2	188	189	2	189	190	2	190	191	2	191	192	2	192	193	2	193	194	2	194	195	2	195	196	2	196	197	2	197	198	2	198	199	
CELL_TYPES 200
3	3	3	3	3	3	3	3	3	3	3	3	3	3	3	3	3	3	3	3	3	3	3	3	3	3	3	3	3	3	3	3	3	3	3	3	3	3	3	3	3	3	3	3	3	3	3	3	3	3	3	3	3	3	3	3	3	3	3	3	3	3	3	3	3	3	3	3	3	3	3	3	3	3	3	3	3	3	3	3	3	3	3	3	3	3	3	3	3	3	3	3	3	3	3	3	3	3	3	3	3	3	3	3	3	3	3	3	3	3	3	3	3	3	3	3	3	3	3	3	3	3	3	3	3	3	3	3	3	3	3	3	3	3	3	3	3	3	3	3	3	3	3	3	3	3	3	3	3	3	3	3	3	3	3	3	3	3	3	3	3	3	3	3	3	3	3	3	3	3	3	3	3	3	3	3	3	3	3	3	3	3	3	3	3	3	3	3	3	3	3	3	3	3	3	3	3	3	3	3	
POINT_DATA 200

SCALARS Conservative_1 float 1
LOOKUP_TABLE default
1.194699e+00	1.179840e+00	1.173452e+00	1.171409e+00	1.170544e+00	1.167925e+00	1.159525e+00	1.142365e+00	1.113659e+00	1.072700e+00	1.019655e+00	9.489296e-01	8.817949e-01	8.577952e-01	8.739159e-01	9.088716e-01	9.453410e-01	9.715414e-01	9.847793e-01	9.865212e-01	9.787920e-01	9.640213e-01	9.448717e-01	9.232098e-01	8.983017e-01	8.695863e-01	8.436357e-01	8.290214e-01	8.272775e-01	8.345156e-01	8.461014e-01	8.587498e-01	8.707488e-01	8.812735e-01	8.902712e-01	8.978577e-01	9.042860e-01	9.098405e-01	9.147320e-01	9.192166e-01	9.234276e-01	9.275052e-01	9.314736e-01	9.353504e-01	9.390669e-01	9.425618e-01	9.457259e-01	9.484743e-01	9.506997e-01	9.523247e-01	9.532630e-01	9.534682e-01	9.528938e-01	9.515237e-01	9.493421e-01	9.463583e-01	9.425802e-01	9.380380e-01	9.327833e-01	9.268829e-01	9.204064e-01	9.132870e-01	9.054311e-01	8.969596e-01	8.886140e-01	8.809410e-01	8.732011e-01	8.627472e-01	8.471038e-01	8.279490e-01	8.118747e-01	8.035047e-01	8.025297e-01	8.061611e-01	8.121084e-01	8.192158e-01	8.273886e-01	8.368045e-01	8.474376e-01	8.592342e-01	8.722172e-01	8.863459e-01	9.016740e-01	9.181903e-01	9.359422e-01	9.550198e-01	9.754382e-01	9.973105e-01	1.020831e+00	1.046053e+00	1.073321e+00	1.103122e+00	1.135829e+00	1.172404e+00	1.213506e+00	1.258739e+00	1.304218e+00	1.347097e+00	1.348962e+00	1.323816e+00	1.299072e+00	1.225712e+00	1.095562e+00	1.006120e+00	9.492144e-01	9.155275e-01	8.954820e-01	8.822317e-01	8.722927e-01	8.643360e-01	8.576706e-01	8.517941e-01	8.465608e-01	8.417446e-01	8.373119e-01	8.333037e-01	8.296006e-01	8.260968e-01	8.228120e-01	8.198085e-01	8.172145e-01	8.150484e-01	8.131841e-01	8.115058e-01	8.100680e-01	8.090518e-01	8.085589e-01	8.085648e-01	8.090980e-01	8.103444e-01	8.125024e-01	8.156251e-01	8.195090e-01	8.237204e-01	8.276860e-01	8.308675e-01	8.329559e-01	8.339209e-01	8.339359e-01	8.332605e-01	8.320856e-01	8.305102e-01	8.286562e-01	8.267500e-01	8.251393e-01	8.242744e-01	8.246574e-01	8.268027e-01	8.309061e-01	8.366280e-01	8.429890e-01	8.490961e-01	8.547761e-01	8.605394e-01	8.669054e-01	8.740616e-01	8.819343e-01	8.904693e-01	8.997032e-01	9.095883e-01	9.199761e-01	9.306814e-01	9.414926e-01	9.522229e-01	9.626505e-01	9.726059e-01	9.818945e-01	9.904140e-01	9.980655e-01	1.004920e+00	1.011046e+00	1.016616e+00	1.021872e+00	1.027086e+00	1.032570e+00	1.038672e+00	1.045790e+00	1.054430e+00	1.065115e+00	1.078353e+00	1.094219e+00	1.112138e+00	1.130579e+00	1.147489e+00	1.160490e+00	1.167269e+00	1.165810e+00	1.154816e+00	1.134141e+00	1.106119e+00	1.076941e+00	1.054427e+00	1.046065e+00	1.055031e+00	1.077029e+00	1.104108e+00	1.131084e+00	1.157447e+00	1.185886e+00	1.175228e+00	
SCALARS Conservative_2 float 1
LOOKUP_TABLE default
7.063737e-01	7.282755e-01	7.403393e-01	7.440282e-01	7.427716e-01	7.421645e-01	7.458965e-01	7.585576e-01	7.828803e-01	8.187234e-01	8.625600e-01	9.072630e-01	9.401276e-01	9.623068e-01	9.739973e-01	9.724346e-01	9.638984e-01	9.539907e-01	9.460899e-01	9.428958e-01	9.445030e-01	9.496590e-01	9.564829e-01	9.635645e-01	9.700767e-01	9.748568e-01	9.768089e-01	9.774364e-01	9.780623e-01	9.787790e-01	9.793421e-01	9.795087e-01	9.793566e-01	9.787564e-01	9.779675e-01	9.770301e-01	9.760732e-01	9.751580e-01	9.742058e-01	9.732852e-01	9.723126e-01	9.713315e-01	9.702853e-01	9.692264e-01	9.681347e-01	9.670782e-01	9.660628e-01	9.651645e-01	9.644000e-01	9.638343e-01	9.634792e-01	9.633927e-01	9.635674e-01	9.640242e-01	9.647448e-01	9.657292e-01	9.669342e-01	9.683316e-01	9.698623e-01	9.714591e-01	9.731042e-01	9.747399e-01	9.763750e-01	9.778282e-01	9.789603e-01	9.796587e-01	9.802260e-01	9.809029e-01	9.815520e-01	9.810966e-01	9.794370e-01	9.778016e-01	9.770118e-01	9.767082e-01	9.766680e-01	9.764524e-01	9.760287e-01	9.752336e-01	9.737664e-01	9.714702e-01	9.682427e-01	9.637705e-01	9.578431e-01	9.501059e-01	9.401819e-01	9.275662e-01	9.116716e-01	8.918963e-01	8.672970e-01	8.365396e-01	7.980330e-01	7.494019e-01	6.869290e-01	6.062020e-01	5.007844e-01	3.655490e-01	2.084394e-01	6.033169e-02	-8.584056e-03	7.257880e-03	7.816261e-02	2.444111e-01	4.733121e-01	6.454307e-01	7.563484e-01	8.258067e-01	8.689779e-01	8.969706e-01	9.156928e-01	9.288968e-01	9.385667e-01	9.457704e-01	9.513495e-01	9.557395e-01	9.592190e-01	9.620322e-01	9.642844e-01	9.660867e-01	9.676027e-01	9.688565e-01	9.699165e-01	9.708333e-01	9.715932e-01	9.721904e-01	9.727258e-01	9.732497e-01	9.737711e-01	9.742739e-01	9.747845e-01	9.753504e-01	9.759858e-01	9.766731e-01	9.773448e-01	9.779295e-01	9.783852e-01	9.787167e-01	9.789583e-01	9.791423e-01	9.792721e-01	9.793668e-01	9.794278e-01	9.794374e-01	9.794173e-01	9.793899e-01	9.793867e-01	9.794589e-01	9.796238e-01	9.799288e-01	9.802541e-01	9.805500e-01	9.806741e-01	9.806474e-01	9.805145e-01	9.802849e-01	9.798722e-01	9.792122e-01	9.782663e-01	9.769444e-01	9.752112e-01	9.730158e-01	9.703350e-01	9.671809e-01	9.635857e-01	9.596241e-01	9.553998e-01	9.510414e-01	9.466799e-01	9.424656e-01	9.384074e-01	9.346327e-01	9.310743e-01	9.276306e-01	9.241928e-01	9.205635e-01	9.164900e-01	9.116753e-01	9.056834e-01	8.979952e-01	8.878581e-01	8.746444e-01	8.579210e-01	8.381425e-01	8.169422e-01	7.974043e-01	7.832533e-01	7.780174e-01	7.841263e-01	8.021041e-01	8.296919e-01	8.619856e-01	8.912926e-01	9.093077e-01	9.117542e-01	9.000602e-01	8.773086e-01	8.476610e-01	8.136178e-01	7.754933e-01	7.324145e-01	6.608670e-01	
SCALARS Conservative_3 float 1
LOOKUP_TABLE default
1.006096e-01	1.052463e-01	1.128823e-01	1.238669e-01	1.420957e-01	1.687046e-01	2.023952e-01	2.391417e-01	2.727800e-01	2.946355e-01	2.968986e-01	2.796733e-01	2.381587e-01	1.855563e-01	1.395295e-01	1.069294e-01	9.213507e-02	9.278222e-02	1.022883e-01	1.149651e-01	1.264528e-01	1.339203e-01	1.358328e-01	1.320477e-01	1.241658e-01	1.140977e-01	1.017885e-01	8.813261e-02	7.482179e-02	6.284923e-02	5.266914e-02	4.431203e-02	3.769787e-02	3.252917e-02	2.847839e-02	2.526690e-02	2.264937e-02	2.043441e-02	1.849657e-02	1.675944e-02	1.520359e-02	1.384762e-02	1.273248e-02	1.190930e-02	1.142822e-02	1.132337e-02	1.161223e-02	1.228402e-02	1.331270e-02	1.463901e-02	1.619721e-02	1.789488e-02	1.964199e-02	2.133415e-02	2.287251e-02	2.415976e-02	2.510846e-02	2.563547e-02	2.567317e-02	2.514646e-02	2.399652e-02	2.220946e-02	1.982232e-02	1.682759e-02	1.305906e-02	8.306953e-03	2.553382e-03	-3.714779e-03	-9.855360e-03	-1.615542e-02	-2.380161e-02	-3.282385e-02	-4.280319e-02	-5.347958e-02	-6.487080e-02	-7.704607e-02	-9.014873e-02	-1.042055e-01	-1.192284e-01	-1.352717e-01	-1.523525e-01	-1.704686e-01	-1.896499e-01	-2.098769e-01	-2.311208e-01	-2.533636e-01	-2.765856e-01	-3.007335e-01	-3.256447e-01	-3.511834e-01	-3.770473e-01	-4.023492e-01	-4.255682e-01	-4.430883e-01	-4.465700e-01	-4.200204e-01	-3.363875e-01	-1.650431e-01	7.704693e-02	2.752423e-01	4.593217e-01	6.465655e-01	6.848878e-01	6.234051e-01	5.407815e-01	4.670520e-01	4.076914e-01	3.600780e-01	3.213959e-01	2.892187e-01	2.621843e-01	2.390237e-01	2.189195e-01	2.012554e-01	1.855646e-01	1.715094e-01	1.588264e-01	1.472718e-01	1.367055e-01	1.269886e-01	1.180308e-01	1.097765e-01	1.021355e-01	9.500955e-02	8.834890e-02	8.212464e-02	7.633228e-02	7.090897e-02	6.580303e-02	6.098291e-02	5.643861e-02	5.216633e-02	4.813131e-02	4.428476e-02	4.056548e-02	3.690241e-02	3.325531e-02	2.960110e-02	2.592917e-02	2.222795e-02	1.847839e-02	1.464378e-02	1.067942e-02	6.554093e-03	2.259269e-03	-2.220114e-03	-6.886877e-03	-1.172058e-02	-1.669731e-02	-2.180156e-02	-2.709274e-02	-3.270312e-02	-3.864683e-02	-4.485406e-02	-5.121180e-02	-5.768226e-02	-6.424656e-02	-7.085154e-02	-7.738396e-02	-8.371099e-02	-8.967127e-02	-9.513887e-02	-9.993880e-02	-1.039802e-01	-1.071604e-01	-1.095018e-01	-1.110384e-01	-1.119305e-01	-1.123761e-01	-1.126320e-01	-1.129646e-01	-1.136241e-01	-1.148270e-01	-1.167266e-01	-1.194241e-01	-1.229880e-01	-1.273975e-01	-1.324801e-01	-1.377276e-01	-1.420453e-01	-1.435915e-01	-1.399226e-01	-1.285414e-01	-1.079014e-01	-7.802104e-02	-4.105154e-02	-1.385565e-03	3.466046e-02	5.959900e-02	6.664225e-02	5.256955e-02	2.088248e-02	-1.954008e-02	-5.819204e-02	-8.694075e-02	-1.031156e-01	-1.091897e-01	-1.070683e-01	-1.003623e-01	3.622536e-03	
SCALARS Conservative_4 float 1
LOOKUP_TABLE default
3.429942e+00	3.392724e+00	3.377426e+00	3.372770e+00	3.370746e+00	3.364417e+00	3.343466e+00	3.300592e+00	3.228698e+00	3.125857e+00	2.992028e+00	2.811686e+00	2.639050e+00	2.578949e+00	2.622713e+00	2.713461e+00	2.807559e+00	2.874847e+00	2.908453e+00	2.912659e+00	2.892741e+00	2.854854e+00	2.805659e+00	2.749830e+00	2.685329e+00	2.610507e+00	2.542390e+00	2.503821e+00	2.499090e+00	2.518018e+00	2.548423e+00	2.581619e+00	2.613114e+00	2.640663e+00	2.664178e+00	2.683955e+00	2.700687e+00	2.715136e+00	2.727830e+00	2.739465e+00	2.750368e+00	2.760924e+00	2.771180e+00	2.781197e+00	2.790786e+00	2.799803e+00	2.807956e+00	2.815039e+00	2.820768e+00	2.824954e+00	2.827368e+00	2.827900e+00	2.826425e+00	2.822904e+00	2.817292e+00	2.809616e+00	2.799886e+00	2.788179e+00	2.774621e+00	2.759373e+00	2.742621e+00	2.724176e+00	2.703800e+00	2.681766e+00	2.660000e+00	2.639910e+00	2.619634e+00	2.592280e+00	2.551337e+00	2.500953e+00	2.458394e+00	2.436072e+00	2.433388e+00	2.442939e+00	2.458692e+00	2.477501e+00	2.499131e+00	2.524019e+00	2.552028e+00	2.583003e+00	2.617014e+00	2.653898e+00	2.693789e+00	2.736609e+00	2.782442e+00	2.831470e+00	2.883676e+00	2.939329e+00	2.998860e+00	3.062294e+00	3.130464e+00	3.204510e+00	3.285180e+00	3.374894e+00	3.475102e+00	3.584848e+00	3.695065e+00	3.802104e+00	3.804725e+00	3.741360e+00	3.687273e+00	3.512209e+00	3.179876e+00	2.951601e+00	2.806905e+00	2.722248e+00	2.672252e+00	2.639179e+00	2.614115e+00	2.593875e+00	2.576819e+00	2.561668e+00	2.548129e+00	2.535629e+00	2.524087e+00	2.513633e+00	2.503947e+00	2.494754e+00	2.486138e+00	2.478252e+00	2.471441e+00	2.465758e+00	2.460859e+00	2.456430e+00	2.452642e+00	2.449980e+00	2.448710e+00	2.448757e+00	2.450202e+00	2.453545e+00	2.459307e+00	2.467624e+00	2.477941e+00	2.489100e+00	2.499586e+00	2.507987e+00	2.513500e+00	2.516054e+00	2.516101e+00	2.514331e+00	2.511245e+00	2.507096e+00	2.502213e+00	2.497197e+00	2.492971e+00	2.490731e+00	2.491797e+00	2.497534e+00	2.508420e+00	2.523558e+00	2.540342e+00	2.556439e+00	2.571407e+00	2.586593e+00	2.603339e+00	2.622124e+00	2.642751e+00	2.665057e+00	2.689133e+00	2.714846e+00	2.741800e+00	2.769510e+00	2.797422e+00	2.825057e+00	2.851848e+00	2.877373e+00	2.901138e+00	2.922907e+00	2.942410e+00	2.959870e+00	2.975454e+00	2.989602e+00	3.002943e+00	3.016159e+00	3.030042e+00	3.045464e+00	3.063407e+00	3.085137e+00	3.111909e+00	3.144986e+00	3.184496e+00	3.228993e+00	3.274665e+00	3.316542e+00	3.348867e+00	3.366000e+00	3.362943e+00	3.336332e+00	3.285450e+00	3.215804e+00	3.142732e+00	3.085578e+00	3.063496e+00	3.085352e+00	3.140326e+00	3.207943e+00	3.274785e+00	3.339656e+00	3.410047e+00	3.367249e+00	
SCALARS Pressure float 1
LOOKUP_TABLE default
1.286753e+00	1.265304e+00	1.255382e+00	1.251974e+00	1.250583e+00	1.246571e+00	1.234357e+00	1.209485e+00	1.168046e+00	1.109182e+00	1.033588e+00	9.347040e-01	8.422915e-01	8.076414e-01	8.275219e-01	8.747798e-01	9.246637e-01	9.608152e-01	9.794724e-01	9.821441e-01	9.715462e-01	9.511187e-01	9.247109e-01	8.950180e-01	8.611817e-01	8.226345e-01	7.882987e-01	7.691701e-01	7.670164e-01	7.766643e-01	7.920003e-01	8.087403e-01	8.246170e-01	8.386204e-01	8.506284e-01	8.608029e-01	8.694495e-01	8.769297e-01	8.835478e-01	8.896180e-01	8.953401e-01	9.008826e-01	9.062943e-01	9.115826e-01	9.166663e-01	9.214475e-01	9.257864e-01	9.295541e-01	9.326105e-01	9.348401e-01	9.361310e-01	9.364088e-01	9.356167e-01	9.337282e-01	9.307270e-01	9.266235e-01	9.214371e-01	9.152109e-01	9.080239e-01	8.999769e-01	8.911594e-01	8.814969e-01	8.708577e-01	8.594458e-01	8.482633e-01	8.380605e-01	8.277785e-01	8.138608e-01	7.930439e-01	7.678037e-01	7.469015e-01	7.361790e-01	7.350129e-01	7.397990e-01	7.475259e-01	7.567774e-01	7.674136e-01	7.796997e-01	7.936708e-01	8.092685e-01	8.265151e-01	8.454106e-01	8.660356e-01	8.884227e-01	9.126741e-01	9.389644e-01	9.673706e-01	9.980699e-01	1.031397e+00	1.067540e+00	1.107025e+00	1.150633e+00	1.199093e+00	1.253778e+00	1.315841e+00	1.384677e+00	1.454011e+00	1.516257e+00	1.520999e+00	1.485091e+00	1.441487e+00	1.326923e+00	1.145422e+00	1.020577e+00	9.406098e-01	8.922706e-01	8.631266e-01	8.438875e-01	8.297119e-01	8.185386e-01	8.092794e-01	8.012298e-01	7.941075e-01	7.875934e-01	7.816348e-01	7.762641e-01	7.713306e-01	7.666908e-01	7.623382e-01	7.583662e-01	7.549364e-01	7.520673e-01	7.496059e-01	7.474089e-01	7.455207e-01	7.441705e-01	7.434946e-01	7.434705e-01	7.441305e-01	7.457089e-01	7.484661e-01	7.524782e-01	7.574950e-01	7.629623e-01	7.681323e-01	7.722921e-01	7.750242e-01	7.762807e-01	7.762919e-01	7.753956e-01	7.738437e-01	7.717727e-01	7.693362e-01	7.668263e-01	7.646934e-01	7.635191e-01	7.639650e-01	7.666974e-01	7.720117e-01	7.794636e-01	7.877932e-01	7.958075e-01	8.032636e-01	8.108312e-01	8.192186e-01	8.286859e-01	8.391404e-01	8.505317e-01	8.629108e-01	8.762244e-01	8.902817e-01	9.048364e-01	9.196076e-01	9.343354e-01	9.487128e-01	9.624924e-01	9.753983e-01	9.872650e-01	9.979703e-01	1.007571e+00	1.016172e+00	1.024014e+00	1.031427e+00	1.038793e+00	1.046562e+00	1.055232e+00	1.065389e+00	1.077772e+00	1.093182e+00	1.112369e+00	1.135499e+00	1.161746e+00	1.188881e+00	1.213762e+00	1.232769e+00	1.242397e+00	1.239696e+00	1.222901e+00	1.192160e+00	1.151171e+00	1.109050e+00	1.077316e+00	1.066388e+00	1.079928e+00	1.111802e+00	1.151096e+00	1.190754e+00	1.229965e+00	1.271851e+00	1.272572e+00	
SCALARS Temperature float 1
LOOKUP_TABLE default
1.077051e+00	1.072437e+00	1.069820e+00	1.068776e+00	1.068377e+00	1.067338e+00	1.064537e+00	1.058755e+00	1.048837e+00	1.034009e+00	1.013664e+00	9.850088e-01	9.552012e-01	9.415317e-01	9.469125e-01	9.624899e-01	9.781271e-01	9.889597e-01	9.946110e-01	9.955631e-01	9.925972e-01	9.866159e-01	9.786629e-01	9.694633e-01	9.586776e-01	9.460068e-01	9.344066e-01	9.278049e-01	9.271573e-01	9.306767e-01	9.360584e-01	9.417649e-01	9.470206e-01	9.516006e-01	9.554711e-01	9.587298e-01	9.614763e-01	9.638280e-01	9.659090e-01	9.678003e-01	9.695834e-01	9.712965e-01	9.729683e-01	9.745894e-01	9.761458e-01	9.775990e-01	9.789162e-01	9.800519e-01	9.809728e-01	9.816401e-01	9.820281e-01	9.821080e-01	9.818688e-01	9.812978e-01	9.803917e-01	9.791466e-01	9.775689e-01	9.756651e-01	9.734564e-01	9.709715e-01	9.682238e-01	9.651915e-01	9.618155e-01	9.581767e-01	9.545914e-01	9.513242e-01	9.479816e-01	9.433363e-01	9.361826e-01	9.273564e-01	9.199714e-01	9.162099e-01	9.158700e-01	9.176813e-01	9.204755e-01	9.237827e-01	9.275129e-01	9.317585e-01	9.365536e-01	9.418486e-01	9.476024e-01	9.538156e-01	9.604752e-01	9.675801e-01	9.751394e-01	9.831884e-01	9.917293e-01	1.000761e+00	1.010351e+00	1.020541e+00	1.031402e+00	1.043070e+00	1.055699e+00	1.069408e+00	1.084330e+00	1.100050e+00	1.114853e+00	1.125574e+00	1.127533e+00	1.121825e+00	1.109628e+00	1.082574e+00	1.045511e+00	1.014369e+00	9.909350e-01	9.745972e-01	9.638682e-01	9.565373e-01	9.511851e-01	9.470144e-01	9.435784e-01	9.406378e-01	9.380395e-01	9.356679e-01	9.335050e-01	9.315500e-01	9.297613e-01	9.280882e-01	9.265034e-01	9.250528e-01	9.237922e-01	9.227271e-01	9.218157e-01	9.210149e-01	9.203187e-01	9.198057e-01	9.195305e-01	9.194940e-01	9.197039e-01	9.202370e-01	9.211864e-01	9.225785e-01	9.243279e-01	9.262394e-01	9.280480e-01	9.295009e-01	9.304503e-01	9.308805e-01	9.308772e-01	9.305560e-01	9.300049e-01	9.292754e-01	9.284142e-01	9.275189e-01	9.267446e-01	9.262924e-01	9.264029e-01	9.273040e-01	9.291202e-01	9.316728e-01	9.345237e-01	9.372409e-01	9.397357e-01	9.422359e-01	9.449919e-01	9.480864e-01	9.514773e-01	9.551500e-01	9.591061e-01	9.633197e-01	9.677227e-01	9.722301e-01	9.767549e-01	9.812150e-01	9.855215e-01	9.896016e-01	9.933840e-01	9.968205e-01	9.999046e-01	1.002638e+00	1.005070e+00	1.007277e+00	1.009350e+00	1.011398e+00	1.013551e+00	1.015943e+00	1.018741e+00	1.022137e+00	1.026351e+00	1.031544e+00	1.037726e+00	1.044606e+00	1.051568e+00	1.057756e+00	1.062283e+00	1.064363e+00	1.063377e+00	1.058957e+00	1.051156e+00	1.040731e+00	1.029815e+00	1.021708e+00	1.019428e+00	1.023599e+00	1.032286e+00	1.042557e+00	1.052755e+00	1.062653e+00	1.072490e+00	1.082830e+00	
SCALARS Pressure_Coefficient float 1
LOOKUP_TABLE default
6.400726e-01	5.921961e-01	5.700485e-01	5.624410e-01	5.593373e-01	5.503809e-01	5.231186e-01	4.675993e-01	3.751035e-01	2.437092e-01	7.497291e-02	-1.457499e-01	-3.520279e-01	-4.293719e-01	-3.849958e-01	-2.795094e-01	-1.681614e-01	-8.746601e-02	-4.582060e-02	-3.985697e-02	-6.351301e-02	-1.091101e-01	-1.680561e-01	-2.343348e-01	-3.098623e-01	-3.959051e-01	-4.725475e-01	-5.152453e-01	-5.200526e-01	-4.985172e-01	-4.642851e-01	-4.269189e-01	-3.914798e-01	-3.602223e-01	-3.334188e-01	-3.107078e-01	-2.914073e-01	-2.747104e-01	-2.599379e-01	-2.463883e-01	-2.336158e-01	-2.212443e-01	-2.091645e-01	-1.973604e-01	-1.860128e-01	-1.753403e-01	-1.656554e-01	-1.572454e-01	-1.504231e-01	-1.454462e-01	-1.425647e-01	-1.419447e-01	-1.437127e-01	-1.479282e-01	-1.546271e-01	-1.637868e-01	-1.753635e-01	-1.892614e-01	-2.053038e-01	-2.232659e-01	-2.429477e-01	-2.645160e-01	-2.882640e-01	-3.137370e-01	-3.386980e-01	-3.614720e-01	-3.844229e-01	-4.154893e-01	-4.619556e-01	-5.182952e-01	-5.649520e-01	-5.888861e-01	-5.914891e-01	-5.808058e-01	-5.635583e-01	-5.429077e-01	-5.191661e-01	-4.917417e-01	-4.605563e-01	-4.257399e-01	-3.872430e-01	-3.450657e-01	-2.990277e-01	-2.490564e-01	-1.949239e-01	-1.362402e-01	-7.283339e-02	-4.308275e-03	7.008270e-02	1.507585e-01	2.388947e-01	3.362345e-01	4.444050e-01	5.664681e-01	7.050022e-01	8.586531e-01	1.013417e+00	1.152359e+00	1.162944e+00	1.082791e+00	9.854631e-01	7.297399e-01	3.246035e-01	4.593077e-02	-1.325673e-01	-2.404675e-01	-3.055209e-01	-3.484653e-01	-3.801074e-01	-4.050478e-01	-4.257155e-01	-4.436836e-01	-4.595815e-01	-4.741219e-01	-4.874222e-01	-4.994105e-01	-5.104229e-01	-5.207796e-01	-5.304952e-01	-5.393613e-01	-5.470169e-01	-5.534212e-01	-5.589154e-01	-5.638194e-01	-5.680340e-01	-5.710481e-01	-5.725567e-01	-5.726106e-01	-5.711372e-01	-5.676140e-01	-5.614596e-01	-5.525041e-01	-5.413058e-01	-5.291021e-01	-5.175618e-01	-5.082767e-01	-5.021782e-01	-4.993734e-01	-4.993484e-01	-5.013491e-01	-5.048133e-01	-5.094360e-01	-5.148746e-01	-5.204770e-01	-5.252380e-01	-5.278591e-01	-5.268639e-01	-5.207647e-01	-5.089025e-01	-4.922688e-01	-4.736759e-01	-4.557868e-01	-4.391437e-01	-4.222519e-01	-4.035298e-01	-3.823976e-01	-3.590616e-01	-3.336346e-01	-3.060028e-01	-2.762849e-01	-2.449068e-01	-2.124187e-01	-1.794474e-01	-1.465727e-01	-1.144804e-01	-8.372241e-02	-5.491462e-02	-2.842634e-02	-4.530687e-03	1.689894e-02	3.609716e-02	5.360267e-02	7.014874e-02	8.659050e-02	1.039337e-01	1.232856e-01	1.459587e-01	1.735985e-01	2.079950e-01	2.508227e-01	3.024541e-01	3.610408e-01	4.216084e-01	4.771484e-01	5.195734e-01	5.410648e-01	5.350352e-01	4.975465e-01	4.289285e-01	3.374363e-01	2.434158e-01	1.725811e-01	1.481873e-01	1.784115e-01	2.495580e-01	3.372673e-01	4.257912e-01	5.133142e-01	6.068100e-01	6.084204e-01	
SCALARS Mach float 1
LOOKUP_TABLE default
4.863565e-01	5.089921e-01	5.214789e-01	5.263929e-01	5.282581e-01	5.331021e-01	5.459855e-01	5.718701e-01	6.143365e-01	6.741822e-01	7.509978e-01	8.519754e-01	9.510736e-01	9.951207e-01	9.778682e-01	9.272687e-01	8.752983e-01	8.384436e-01	8.188916e-01	8.155739e-01	8.258862e-01	8.464843e-01	8.734933e-01	9.042551e-01	9.397498e-01	9.807796e-01	1.017813e+00	1.038697e+00	1.040738e+00	1.029628e+00	1.012567e+00	9.943754e-01	9.775203e-01	9.627472e-01	9.501964e-01	9.395794e-01	9.305938e-01	9.228716e-01	9.160159e-01	9.097661e-01	9.038566e-01	8.981633e-01	8.925918e-01	8.871741e-01	8.819584e-01	8.770757e-01	8.726391e-01	8.688051e-01	8.656907e-01	8.634303e-01	8.621147e-01	8.618435e-01	8.626548e-01	8.645900e-01	8.676567e-01	8.718620e-01	8.771770e-01	8.835709e-01	8.909619e-01	8.992446e-01	9.083638e-01	9.183821e-01	9.294816e-01	9.413847e-01	9.530546e-01	9.636410e-01	9.744273e-01	9.893462e-01	1.012172e+00	1.040111e+00	1.063321e+00	1.075091e+00	1.076153e+00	1.070491e+00	1.061741e+00	1.051360e+00	1.039618e+00	1.026205e+00	1.010992e+00	9.941075e-01	9.756484e-01	9.555724e-01	9.338731e-01	9.104945e-01	8.853328e-01	8.581746e-01	8.288913e-01	7.973289e-01	7.630495e-01	7.256061e-01	6.843325e-01	6.380747e-01	5.851979e-01	5.234229e-01	4.487668e-01	3.564553e-01	2.428722e-01	1.039161e-01	4.574103e-02	1.659632e-01	2.877594e-01	4.580728e-01	6.281035e-01	7.484178e-01	8.316363e-01	8.871478e-01	9.227394e-01	9.467279e-01	9.640908e-01	9.775404e-01	9.885708e-01	9.979770e-01	1.006264e+00	1.013808e+00	1.020672e+00	1.026865e+00	1.032521e+00	1.037803e+00	1.042799e+00	1.047366e+00	1.051330e+00	1.054677e+00	1.057538e+00	1.060050e+00	1.062233e+00	1.063841e+00	1.064703e+00	1.064817e+00	1.064160e+00	1.062489e+00	1.059512e+00	1.055144e+00	1.049646e+00	1.043631e+00	1.037930e+00	1.033344e+00	1.030343e+00	1.028983e+00	1.028994e+00	1.030009e+00	1.031751e+00	1.034056e+00	1.036774e+00	1.039599e+00	1.042039e+00	1.043464e+00	1.043116e+00	1.040276e+00	1.034546e+00	1.026476e+00	1.017441e+00	1.008806e+00	1.000857e+00	9.928688e-01	9.840382e-01	9.740899e-01	9.631462e-01	9.512402e-01	9.383505e-01	9.245429e-01	9.100228e-01	8.950539e-01	8.799134e-01	8.648704e-01	8.502256e-01	8.362345e-01	8.231573e-01	8.111808e-01	8.003519e-01	7.906865e-01	7.820322e-01	7.741293e-01	7.666683e-01	7.592513e-01	7.514111e-01	7.426415e-01	7.323027e-01	7.196362e-01	7.037178e-01	6.837790e-01	6.595338e-01	6.318122e-01	6.028625e-01	5.762535e-01	5.561867e-01	5.467810e-01	5.512533e-01	5.709786e-01	6.046019e-01	6.475290e-01	6.904603e-01	7.212429e-01	7.297539e-01	7.141398e-01	6.808997e-01	6.401569e-01	5.978249e-01	5.545203e-01	5.087365e-01	4.567244e-01	