# vtk DataFile Version 3.0
vtk output
ASCII
DATASET UNSTRUCTURED_GRID
POINTS 5233 float
9.997500e-01	-3.633243e-05	0.0	9.990000e-01	-1.454723e-04	0.0	9.977600e-01	-3.275074e-04	0.0	9.960200e-01	-5.899273e-04	0.0	9.937800e-01	-9.470955e-04	0.0	9.910500e-01	-1.422098e-03	0.0	9.878400e-01	-2.045522e-03	0.0	9.841300e-01	-2.853685e-03	0.0	9.799500e-01	-3.858903e-03	0.0	9.752800e-01	-5.058334e-03	0.0	9.701500e-01	-6.405163e-03	0.0	9.645400e-01	-7.840914e-03	0.0	9.584700e-01	-9.290249e-03	0.0	9.519400e-01	-1.069781e-02	0.0	9.449600e-01	-1.203565e-02	0.0	9.375400e-01	-1.330816e-02	0.0	9.296900e-01	-1.454266e-02	0.0	9.214000e-01	-1.577743e-02	0.0	9.127000e-01	-1.703971e-02	0.0	9.035800e-01	-1.835055e-02	0.0	8.940600e-01	-1.971358e-02	0.0	8.841500e-01	-2.112419e-02	0.0	8.738500e-01	-2.257419e-02	0.0	8.631800e-01	-2.405146e-02	0.0	8.521600e-01	-2.554535e-02	0.0	8.407700e-01	-2.705271e-02	0.0	8.290500e-01	-2.856429e-02	0.0	8.170100e-01	-3.007624e-02	0.0	8.046400e-01	-3.158774e-02	0.0	7.919700e-01	-3.309314e-02	0.0	7.790100e-01	-3.458918e-02	0.0	7.657800e-01	-3.607123e-02	0.0	7.522800e-01	-3.753675e-02	0.0	7.385200e-01	-3.898189e-02	0.0	7.245300e-01	-4.040077e-02	0.0	7.103200e-01	-4.178976e-02	0.0	6.958900e-01	-4.314631e-02	0.0	6.812700e-01	-4.446522e-02	0.0	6.664700e-01	-4.574348e-02	0.0	6.515000e-01	-4.697832e-02	0.0	6.363800e-01	-4.816644e-02	0.0	6.211300e-01	-4.930491e-02	0.0	6.057600e-01	-5.039189e-02	0.0	5.902800e-01	-5.142573e-02	0.0	5.747100e-01	-5.240439e-02	0.0	5.590600e-01	-5.332670e-02	0.0	5.433600e-01	-5.419058e-02	0.0	5.276100e-01	-5.499582e-02	0.0	5.118400e-01	-5.574080e-02	0.0	4.960500e-01	-5.642543e-02	0.0	4.802700e-01	-5.704840e-02	0.0	4.645100e-01	-5.760930e-02	0.0	4.487800e-01	-5.810766e-02	0.0	4.331100e-01	-5.854240e-02	0.0	4.175000e-01	-5.891330e-02	0.0	4.019700e-01	-5.921947e-02	0.0	3.865400e-01	-5.946001e-02	0.0	3.712300e-01	-5.963403e-02	0.0	3.560400e-01	-5.974075e-02	0.0	3.409900e-01	-5.977901e-02	0.0	3.261100e-01	-5.974770e-02	0.0	3.114000e-01	-5.964568e-02	0.0	2.968700e-01	-5.947158e-02	0.0	2.825500e-01	-5.922431e-02	0.0	2.684500e-01	-5.890258e-02	0.0	2.545700e-01	-5.850472e-02	0.0	2.409400e-01	-5.802986e-02	0.0	2.275700e-01	-5.747671e-02	0.0	2.144700e-01	-5.684400e-02	0.0	2.016600e-01	-5.613103e-02	0.0	1.891400e-01	-5.533613e-02	0.0	1.769300e-01	-5.445888e-02	0.0	1.650400e-01	-5.349845e-02	0.0	1.534900e-01	-5.245504e-02	0.0	1.422900e-01	-5.132839e-02	0.0	1.314400e-01	-5.011724e-02	0.0	1.209500e-01	-4.882133e-02	0.0	1.108500e-01	-4.744345e-02	0.0	1.011300e-01	-4.598144e-02	0.0	9.181000e-02	-4.443739e-02	0.0	8.290000e-02	-4.281244e-02	0.0	7.440000e-02	-4.110594e-02	0.0	6.633000e-02	-3.932143e-02	0.0	5.869000e-02	-3.745860e-02	0.0	5.149000e-02	-3.551949e-02	0.0	4.474000e-02	-3.350660e-02	0.0	3.844000e-02	-3.141964e-02	0.0	3.260000e-02	-2.926144e-02	0.0	2.723000e-02	-2.703570e-02	0.0	2.232000e-02	-2.473739e-02	0.0	1.790000e-02	-2.238049e-02	0.0	1.395000e-02	-1.995419e-02	0.0	1.049000e-02	-1.746976e-02	0.0	7.520000e-03	-1.492810e-02	0.0	5.040000e-03	-1.232939e-02	0.0	3.050000e-03	-9.672093e-03	0.0	1.560000e-03	-6.971451e-03	0.0	5.600000e-04	-4.206312e-03	0.0	6.000000e-05	-1.384029e-03	0.0	0.000000e+00	0.000000e+00	0.0	6.000000e-05	1.263731e-03	0.0	5.600000e-04	3.625018e-03	0.0	1.560000e-03	5.788797e-03	0.0	3.050000e-03	7.806822e-03	0.0	5.040000e-03	9.724114e-03	0.0	7.520000e-03	1.154843e-02	0.0	1.049000e-02	1.329474e-02	0.0	1.395000e-02	1.497358e-02	0.0	1.790000e-02	1.659285e-02	0.0	2.232000e-02	1.815217e-02	0.0	2.723000e-02	1.966469e-02	0.0	3.260000e-02	2.112628e-02	0.0	3.844000e-02	2.254464e-02	0.0	4.474000e-02	2.392113e-02	0.0	5.149000e-02	2.525712e-02	0.0	5.869000e-02	2.655564e-02	0.0	6.633000e-02	2.781742e-02	0.0	7.440000e-02	2.904312e-02	0.0	8.290000e-02	3.023465e-02	0.0	9.181000e-02	3.139091e-02	0.0	1.011300e-01	3.251341e-02	0.0	1.108500e-01	3.360212e-02	0.0	1.209500e-01	3.465591e-02	0.0	1.314400e-01	3.567663e-02	0.0	1.422900e-01	3.666200e-02	0.0	1.534900e-01	3.761176e-02	0.0	1.650400e-01	3.852625e-02	0.0	1.769300e-01	3.940481e-02	0.0	1.891400e-01	4.024596e-02	0.0	2.016600e-01	4.104891e-02	0.0	2.144700e-01	4.181216e-02	0.0	2.275700e-01	4.253531e-02	0.0	2.409400e-01	4.321664e-02	0.0	2.545700e-01	4.385491e-02	0.0	2.684500e-01	4.444871e-02	0.0	2.825500e-01	4.499574e-02	0.0	2.968700e-01	4.549482e-02	0.0	3.114000e-01	4.594416e-02	0.0	3.261100e-01	4.634133e-02	0.0	3.409900e-01	4.668442e-02	0.0	3.560400e-01	4.697158e-02	0.0	3.712300e-01	4.720024e-02	0.0	3.865400e-01	4.736810e-02	0.0	4.019700e-01	4.747299e-02	0.0	4.175000e-01	4.751249e-02	0.0	4.331100e-01	4.748423e-02	0.0	4.487800e-01	4.738598e-02	0.0	4.645100e-01	4.721539e-02	0.0	4.802700e-01	4.697049e-02	0.0	4.960500e-01	4.664926e-02	0.0	5.118400e-01	4.624977e-02	0.0	5.276100e-01	4.577089e-02	0.0	5.433600e-01	4.521092e-02	0.0	5.590600e-01	4.456950e-02	0.0	5.747100e-01	4.384552e-02	0.0	5.902800e-01	4.303961e-02	0.0	6.057600e-01	4.215204e-02	0.0	6.211300e-01	4.118420e-02	0.0	6.363800e-01	4.013748e-02	0.0	6.515000e-01	3.901383e-02	0.0	6.664700e-01	3.781660e-02	0.0	6.812700e-01	3.655001e-02	0.0	6.958900e-01	3.521821e-02	0.0	7.103200e-01	3.382600e-02	0.0	7.245300e-01	3.238094e-02	0.0	7.385200e-01	3.088838e-02	0.0	7.522800e-01	2.935527e-02	0.0	7.657800e-01	2.779150e-02	0.0	7.790100e-01	2.620544e-02	0.0	7.919700e-01	2.460475e-02	0.0	8.046400e-01	2.299994e-02	0.0	8.170100e-01	2.140066e-02	0.0	8.290500e-01	1.981926e-02	0.0	8.407700e-01	1.826253e-02	0.0	8.521600e-01	1.673891e-02	0.0	8.631800e-01	1.525924e-02	0.0	8.738500e-01	1.382400e-02	0.0	8.841500e-01	1.243642e-02	0.0	8.940600e-01	1.109769e-02	0.0	9.035800e-01	9.806136e-03	0.0	9.127000e-01	8.564454e-03	0.0	9.214000e-01	7.383592e-03	0.0	9.296900e-01	6.280110e-03	0.0	9.375400e-01	5.284972e-03	0.0	9.449600e-01	4.427321e-03	0.0	9.519400e-01	3.732071e-03	0.0	9.584700e-01	3.205339e-03	0.0	9.645400e-01	2.826950e-03	0.0	9.701500e-01	2.552044e-03	0.0	9.752800e-01	2.324824e-03	0.0	9.799500e-01	2.093054e-03	0.0	9.841300e-01	1.827020e-03	0.0	9.878400e-01	1.519897e-03	0.0	9.910500e-01	1.190200e-03	0.0	9.937800e-01	8.630210e-04	0.0	9.960200e-01	5.666261e-04	0.0	9.977600e-01	3.231882e-04	0.0	9.990000e-01	1.450783e-04	0.0	9.997500e-01	3.632619e-05	0.0	1.000000e+00	0.000000e+00	0.0	1.984229e+01	2.506660e+00	0.0	1.937166e+01	4.973800e+00	0.0	1.859553e+01	7.362490e+00	0.0	1.752613e+01	9.635070e+00	0.0	1.618034e+01	1.175571e+01	0.0	1.457937e+01	1.369094e+01	0.0	1.274848e+01	1.541027e+01	0.0	1.071654e+01	1.688656e+01	0.0	8.515590e+00	1.809654e+01	0.0	6.180340e+00	1.902113e+01	0.0	3.747630e+00	1.964575e+01	0.0	1.255810e+00	1.996053e+01	0.0	-1.255810e+00	1.996053e+01	0.0	-3.747630e+00	1.964574e+01	0.0	-6.180340e+00	1.902113e+01	0.0	-8.515590e+00	1.809654e+01	0.0	-1.071654e+01	1.688656e+01	0.0	-1.274848e+01	1.541026e+01	0.0	-1.457937e+01	1.369094e+01	0.0	-1.618034e+01	1.175570e+01	0.0	-1.752613e+01	9.635070e+00	0.0	-1.859553e+01	7.362490e+00	0.0	-1.937166e+01	4.973800e+00	0.0	-1.984229e+01	2.506660e+00	0.0	-2.000000e+01	0.000000e+00	0.0	-1.984229e+01	-2.506670e+00	0.0	-1.937166e+01	-4.973800e+00	0.0	-1.859553e+01	-7.362490e+00	0.0	-1.752613e+01	-9.635080e+00	0.0	-1.618034e+01	-1.175571e+01	0.0	-1.457937e+01	-1.369094e+01	0.0	-1.274848e+01	-1.541027e+01	0.0	-1.071653e+01	-1.688656e+01	0.0	-8.515580e+00	-1.809654e+01	0.0	-6.180340e+00	-1.902113e+01	0.0	-3.747620e+00	-1.964575e+01	0.0	-1.255810e+00	-1.996053e+01	0.0	1.255810e+00	-1.996053e+01	0.0	3.747630e+00	-1.964574e+01	0.0	6.180340e+00	-1.902113e+01	0.0	8.515590e+00	-1.809654e+01	0.0	1.071654e+01	-1.688656e+01	0.0	1.274848e+01	-1.541026e+01	0.0	1.457937e+01	-1.369094e+01	0.0	1.618034e+01	-1.175570e+01	0.0	1.752614e+01	-9.635070e+00	0.0	1.859553e+01	-7.362490e+00	0.0	1.937166e+01	-4.973790e+00	0.0	1.984229e+01	-2.506660e+00	0.0	2.000000e+01	0.000000e+00	0.0	6.074235e-02	-4.532167e-02	0.0	6.601883e-01	-6.002213e-02	0.0	4.255533e-01	6.172252e-02	0.0	6.897642e-01	4.910586e-02	0.0	3.791232e-01	-7.360593e-02	0.0	9.994675e-01	-7.275897e-04	0.0	9.985544e-01	-1.331422e-03	0.0	7.738131e-01	-4.740027e-02	0.0	6.898600e-01	-5.714834e-02	0.0	-1.127177e-03	5.516651e-03	0.0	7.467800e-01	-5.080768e-02	0.0	5.833311e-01	5.753379e-02	0.0	9.928160e-01	-3.736236e-03	0.0	9.899359e-01	-4.744188e-03	0.0	5.989072e-01	5.659893e-02	0.0	7.187646e-01	-5.406380e-02	0.0	-1.468686e-03	5.998030e-04	0.0	9.865725e-01	-5.906489e-03	0.0	9.827328e-01	-7.226393e-03	0.0	-1.302066e-03	-6.473120e-03	0.0	6.451051e-01	-6.137273e-02	0.0	8.244819e-01	-4.029806e-02	0.0	7.997421e-01	-4.389439e-02	0.0	3.484809e-01	6.060796e-02	0.0	8.479020e-01	-3.666764e-02	0.0	2.473656e-01	5.609782e-02	0.0	8.699420e-01	-3.302734e-02	0.0	1.046397e-02	1.734351e-02	0.0	8.904957e-01	-2.943330e-02	0.0	7.702147e-02	-4.969966e-02	0.0	9.094909e-01	-2.594030e-02	0.0	-1.766778e-03	-3.207017e-03	0.0	9.424825e-01	-1.916833e-02	0.0	9.268474e-01	-2.255025e-02	0.0	1.794780e-02	-2.749718e-02	0.0	4.257416e-01	-7.303676e-02	0.0	8.591035e-01	-3.484328e-02	0.0	9.563355e-01	-1.566699e-02	0.0	9.784088e-01	-8.725358e-03	0.0	9.683300e-01	-1.208069e-02	0.0	1.582633e-01	-6.357415e-02	0.0	9.001950e-01	-2.767220e-02	0.0	7.604294e-01	-4.911979e-02	0.0	9.971359e-01	-2.087282e-03	0.0	5.990500e-01	-6.504537e-02	0.0	4.414441e-01	-7.268691e-02	0.0	5.363196e-01	-6.898038e-02	0.0	4.730157e-01	-7.175446e-02	0.0	5.046766e-01	-7.051704e-02	0.0	4.888342e-01	-7.117268e-02	0.0	1.249493e-01	-5.906576e-02	0.0	2.784415e-02	-3.297692e-02	0.0	3.945689e-01	-7.349795e-02	0.0	4.621899e-02	-4.062358e-02	0.0	4.101097e-01	-7.330855e-02	0.0	3.187146e-01	-7.321389e-02	0.0	3.486125e-01	-7.358063e-02	0.0	3.350770e-02	-3.559026e-02	0.0	2.895104e-01	-7.250845e-02	0.0	9.348849e-01	-2.086616e-02	0.0	1.468045e-01	-6.216204e-02	0.0	1.946434e-01	-6.723403e-02	0.0	8.579567e-02	-5.175735e-02	0.0	1.045869e-01	-5.560459e-02	0.0	5.678223e-01	-6.716063e-02	0.0	1.700658e-01	-6.489245e-02	0.0	6.145275e-01	-6.388367e-02	0.0	8.804131e-01	-3.122188e-02	0.0	2.266812e-02	-3.027755e-02	0.0	9.952218e-01	-2.870138e-03	0.0	6.736351e-03	-1.882175e-02	0.0	1.849215e-02	2.151220e-02	0.0	9.183776e-01	-2.423579e-02	0.0	9.49640
[...]
POINT_DATA 5233

SCALARS Conservative_1 float 1
LOOKUP_TABLE default
1.199829e+00	1.181604e+00	1.171179e+00	1.164740e+00	1.160167e+00	1.155702e+00	1.148817e+00	1.137899e+00	1.121718e+00	1.100363e+00	1.075074e+00	1.048463e+00	1.024895e+00	1.008361e+00	9.999871e-01	9.979289e-01	9.990382e-01	1.000481e+00	1.000508e+00	9.985198e-01	9.947362e-01	9.897145e-01	9.840401e-01	9.781845e-01	9.724255e-01	9.668738e-01	9.615209e-01	9.563203e-01	9.512071e-01	9.461502e-01	9.411334e-01	9.361129e-01	9.310548e-01	9.259754e-01	9.209260e-01	9.159551e-01	9.110813e-01	9.063091e-01	9.016499e-01	8.971200e-01	8.927192e-01	8.884582e-01	8.843194e-01	8.803195e-01	8.764734e-01	8.728325e-01	8.693865e-01	8.660713e-01	8.627399e-01	8.593828e-01	8.562022e-01	8.535519e-01	8.515457e-01	8.498916e-01	8.479169e-01	8.448704e-01	8.402525e-01	8.342111e-01	8.276256e-01	8.217527e-01	8.174787e-01	8.149966e-01	8.140340e-01	8.141582e-01	8.150592e-01	8.165381e-01	8.185454e-01	8.209976e-01	8.238085e-01	8.268654e-01	8.301875e-01	8.339377e-01	8.383630e-01	8.435313e-01	8.493663e-01	8.557216e-01	8.626619e-01	8.703654e-01	8.788894e-01	8.882730e-01	8.986280e-01	9.100134e-01	9.225806e-01	9.364473e-01	9.518036e-01	9.689265e-01	9.880442e-01	1.009516e+00	1.033826e+00	1.061290e+00	1.092440e+00	1.127742e+00	1.167044e+00	1.209885e+00	1.254555e+00	1.298041e+00	1.331744e+00	1.350900e+00	1.339534e+00	1.308269e+00	1.284256e+00	1.221091e+00	1.099447e+00	1.001966e+00	9.259706e-01	8.702653e-01	8.322875e-01	8.072873e-01	7.904586e-01	7.790619e-01	7.714018e-01	7.663095e-01	7.632254e-01	7.614121e-01	7.604955e-01	7.604722e-01	7.612136e-01	7.624830e-01	7.639588e-01	7.653140e-01	7.665656e-01	7.680373e-01	7.699877e-01	7.722666e-01	7.744748e-01	7.763846e-01	7.780878e-01	7.797314e-01	7.814184e-01	7.832191e-01	7.851886e-01	7.873107e-01	7.895126e-01	7.916938e-01	7.938111e-01	7.958390e-01	7.977676e-01	7.995586e-01	8.012212e-01	8.028703e-01	8.047183e-01	8.069208e-01	8.095274e-01	8.125021e-01	8.158500e-01	8.196340e-01	8.238848e-01	8.285687e-01	8.335118e-01	8.385064e-01	8.433483e-01	8.480973e-01	8.530532e-01	8.585676e-01	8.647019e-01	8.712251e-01	8.779144e-01	8.847683e-01	8.919543e-01	8.995204e-01	9.074157e-01	9.155524e-01	9.238810e-01	9.323891e-01	9.410474e-01	9.498426e-01	9.587246e-01	9.676755e-01	9.766211e-01	9.855639e-01	9.944209e-01	1.003112e+00	1.011573e+00	1.019722e+00	1.027510e+00	1.034919e+00	1.041994e+00	1.048914e+00	1.055941e+00	1.063462e+00	1.071775e+00	1.080977e+00	1.090685e+00	1.100037e+00	1.107783e+00	1.112588e+00	1.113362e+00	1.109742e+00	1.102492e+00	1.093778e+00	1.086676e+00	1.084159e+00	1.088063e+00	1.098278e+00	1.112852e+00	1.130017e+00	1.148479e+00	1.168636e+00	1.192714e+00	1.181127e+00	9.999764e-01	9.999694e-01	9.999527e-01	9.999288e-01	9.999046e-01	9.998764e-01	9.998368e-01	9.997815e-01	9.997188e-01	9.996667e-01	9.996323e-01	9.996438e-01	9.996982e-01	9.998089e-01	9.999040e-01	9.999809e-01	1.000023e+00	1.000049e+00	1.000064e+00	1.000070e+00	1.000073e+00	1.000074e+00	1.000074e+00	1.000076e+00	1.000077e+00	1.000080e+00	1.000085e+00	1.000092e+00	1.000101e+00	1.000114e+00	1.000129e+00	1.000150e+00	1.000169e+00	1.000196e+00	1.000213e+00	1.000224e+00	1.000226e+00	1.000213e+00	1.000203e+00	1.000190e+00	1.000183e+00	1.000168e+00	1.000151e+00	1.000130e+00	1.000106e+00	1.000078e+00	1.000060e+00	1.000046e+00	1.000013e+00	9.999797e-01	9.443272e-01	9.020654e-01	8.213853e-01	9.232673e-01	8.406856e-01	1.183062e+00	1.173570e+00	9.408024e-01	9.112706e-01	1.217008e+00	9.308293e-01	8.720771e-01	1.151718e+00	1.144987e+00	8.786921e-01	9.208880e-01	1.307638e+00	1.136015e+00	1.123648e+00	1.337687e+00	8.976483e-01	9.609021e-01	9.507414e-01	8.072989e-01	9.714729e-01	7.943575e-01	9.825790e-01	8.784217e-01	9.931890e-01	9.171274e-01	1.000617e+00	1.344665e+00	1.006087e+00	1.003001e+00	1.100367e+00	8.522888e-01	9.769826e-01	1.025355e+00	1.107396e+00	1.065588e+00	8.484483e-01	9.974977e-01	9.358356e-01	1.164147e+00	8.851338e-01	8.538360e-01	8.706346e-01	8.576904e-01	8.639690e-01	8.606399e-01	8.683290e-01	1.042988e+00	8.461746e-01	9.775486e-01	8.499733e-01	8.197386e-01	8.278163e-01	1.018710e+00	8.182284e-01	1.003611e+00	8.544712e-01	8.348241e-01	9.053918e-01	8.849970e-01	8.774969e-01	8.431820e-01	8.891873e-01	9.880852e-01	1.070114e+00	1.157649e+00	1.209200e+00	8.234973e-01	1.002355e+00	1.012767e+00	1.087634e+00	1.133870e+00	9.661195e-01	8.225122e-01	8.739859e-01	9.258240e-01	9.457549e-01	8.762311e-01	8.280110e-01	8.812287e-01	9.066142e-01	9.600903e-01	1.248743e+00	1.133829e+00	8.341484e-01	8.387142e-01	1.211159e+00	8.250556e-01	8.947142e-01	8.183314e-01	8.204867e-01	8.554531e-01	9.160301e-01	1.279729e+00	1.318487e+00	8.546526e-01	1.324587e+00	7.951297e-01	7.745929e-01	7.811527e-01	7.756239e-01	8.177775e-01	1.140214e+00	8.498522e-01	8.349105e-01	1.097231e+00	1.105872e+00	1.052286e+00	8.400187e-01	8.254559e-01	8.117461e-01	1.083647e+00	1.067049e+00	7.730711e-01	1.092477e+00	1.106616e+00	1.099063e+00	7.740045e-01	7.731964e-01	8.004058e-01	7.964398e-01	7.836772e-01	8.039592e-01	8.299979e-01	8.145740e-01	7.808047e-01	7.772263e-01	8.923411e-01	7.865822e-01	7.901888e-01	9.072764e-01	8.656819e-01	9.569852e-01	9.398924e-01	9.915054e-01	9.742837e-01	1.023932e+00	1.008233e+00	1.059447e+00	1.038438e+00	1.104232e+00	1.075186e+00	1.102348e+00	1.031326e+00	1.045366e+00	9.999613e-01	1.016231e+00	9.656304e-01	9.829372e-01	9.315055e-01	9.483913e-01	8.996296e-01	9.151760e-01	8.598359e-01	8.853991e-01	7.882851e-01	7.922490e-01	7.823038e-01	7.850735e-01	7.771755e-01	7.790885e-01	8.464869e-01	7.868984e-01	8.312921e-01	9.814620e-01	1.043720e+00	9.557832e-01	8.228462e-01	8.673386e-01	1.053426e+00	8.069101e-01	9.226147e-01	7.735527e-01	7.728055e-01	7.984589e-01	7.745805e-01	1.090301e+00	1.092375e+00	8.022481e-01	1.099372e+00	1.110420e+00	8.055843e-01	8.093124e-01	1.091889e+00	1.206471e+00	1.157952e+00	1.174455e+00	8.933518e-01	9.969992e-01	1.124415e+00	8.450375e-01	1.286683e+00	1.170398e+00	9.300544e-01	8.611218e-01	8.190177e-01	7.851256e-01	1.199586e+00	1.259538e+00	8.238805e-01	9.165109e-01	1.003319e+00	1.199631e+00	8.735090e-01	9.118631e-01	9.456816e-01	1.133353e+00	8.258189e-01	9.762944e-01	9.657735e-01	9.126311e-01	1.317253e+00	8.363979e-01	1.132826e+00	1.041624e+00	8.603821e-01	9.212405e-01	9.028909e-01	8.580271e-01	9.245757e-01	8.471617e-01	9.965497e-01	9.505746e-01	9.565240e-01	8.548458e-01	9.153195e-01	1.020541e+00	7.830716e-01	9.231588e-01	7.883634e-01	1.041857e+00	1.100606e+00	8.103861e-01	8.519500e-01	1.099647e+00	1.048672e+00	1.108354e+00	1.100928e+00	1.094589e+00	7.975341e-01	8.086966e-01	7.956055e-01	7.829369e-01	9.073316e-01	8.402407e-01	9.139800e-01	7.860580e-01	7.940017e-01	1.098098e+00	1.119028e+00	1.055547e+00	8.542386e-01	1.215365e+00	1.145818e+00	1.131612e+00	1.009091e+00	1.133513e+00	1.234089e+00	1.331025e+00	1.315059e+00	1.102264e+00	1.217657e+00	9.519853e-01	1.163047e+00	1.148576e+00	8.237853e-01	8.755331e-01	1.123031e+00	9.869506e-01	8.799748e-01	1.141661e+00	1.332380e+00	8.564854e-01	8.203401e-01	9.709822e-01	8.033987e-01	9.816524e-01	9.919993e-01	9.376457e-01	1.000358e+00	1.005625e+00	1.017435e+00	1.048645e+00	1.027463e+00	1.058816e+00	1.110019e+00	8.747646e-01	9.359151e-01	9.408165e-01	1.155386e+00	8.599542e-01	8.625930e-01	8.657139e-01	1.074343e+00	8.516675e-01	8.546381e-01	8.296469e-01	1.004273e+00	1.007901e+00	1.011330e+00	8.672677e-01	9.017275e-01	8.789459e-01	8.903288e-01	1.077036e+00	1.094514e+00	9.260431e-01	9.309746e-01	8.918706e-01	8.829159e-01	8.825735e-01	8.863659e-01	9.852000e-01	9.678231e-01	1.165344e+00	8.350771e-01	8.413122e-01	8.489965e-01	8.443966e-01	8.329291e-01	8.298584e-01	8.232769e-01	8.238098e-01	8.272961e-01	1.298359e+00	1.267562e+00	8.001646e-01	1.095900e+00	8.567218e-01	8.470315e-01	8.419335e-01	8.368382e-01	1.095746e+00	1.100204e+00	1.077312e+00	8.320596e-01	8.276884e-01	8.172990e-01	1.069903e+00	1.096250e+00	7.868115e-01	7.896370e-01	7.995060e-01	8.014627e-01	7.872051e-01	7.849555e-01	7.838525e-01	9.889545e-01	9.557137e-01	9.474258e-01	9.807226e-01	1.012980e+00	1.062591e+00	1.034944e+00	1.027849e+00	1.005210e+00	9.971755e-01	9.723808e-01	9.640358e-01	9.392296e-01	9.311256e-01	9.076799e-01	9.002961e-01	8.672977e-01	8.617021e-01	8.932672e-01	8.865192e-01	7.937828e-01	7.921697e-01	7.907663e-01	7.895419e-01	8.808006e-01	8.086161e-01	8.199853e-01	9.555552e-01	9.606326e-01	8.689900e-01	8.722301e-01	1.069722e+00	8.350120e-01	7.833731e-01	7.840920e-01	8.070334e-01	8.052652e-01	8.146324e-01	8.123170e-01	1.091039e+00	1.084526e+00	8.943907e-01	8.985908e-01	1.025305e+00	1.297444e+00	8.252589e-01	1.311609e+00	8.534825e-01	8.292059e-01	9.510664e-01	8.777083e-01	1.007442e+00	1.107321e+00	1.101255e+00	1.096613e+00	1.081185e+00	1.115974e+00	1.160563e+00	1.181452e+00	1.153144e+00	1.200927e+00	1.103906e+00	1.283258e+00	9.202843e-01	1.010849e+00	1.131558e+00	8.756510e-01	1.172914e+00	1.220863e+00	9.222683e-01	1.275977e+00	9.269359e-01	1.131352e+00	9.863619e-01	1.190709e+00	8.325212e-01	9.812342e-01	9.176627e-01	1.139454e+00	1.160738e+00	1.095995e+00	8.593568e-01	1.093256e+00	9.162949e-01	1.125966e+00	8.544578e-01	8.065640e-01	8.136886e-01	7.935636e-01	7.998297e-01	1.171571e+00	1.293314e+00	1.184884e+00	9.088704e-01	1.240742e+00	1.055117e+00	9.323241e-01	1.312120e+00	8.665424e-01	8.627445e-01	1.078027e+00	9.819599e-01	1.017743e+00	9.871805e-01	9.238641e-01	1.097524e+00	1.095650e+00	1.051741e+00	1.045114e+00	8.120003e-01	8.084494e-01	8.010068e-01	7.918063e-01	9.087118e-01	9.131381e-01	8.458262e-01	9.421829e-01	7.927054e-01	1.095971e+00	1.136242e+00	1.028971e+00	1.134219e+00	1.249582e+00	1.315000e+00	1.053693e+00	1.186192e+00	1.178452e+00	1.070322e+00	1.122723e+00	8.819621e-01	8.611109e-01	8.265186e-01	9.708767e-01	9.760463e-01	9.913486e-01	9.960364e-01	9.598044e-01	9.454923e-01	1.000284e+00	1.004063e+00	1.029628e+00	1.041165e+00	1.112210e+00	9.414402e-01	9.462661e-01	1.145974e+00	8.650178e-01	8.679873e-01	8.572351e-01	8.595389e-01	1.031620e+00	1.015033e+00	1.021002e+00	8.815517e-01	8.736968e-01	8.810452e-01	8.845614e-01	1.085512e+00	1.099623e+00	9.317141e-01	9.366244e-01	9.092612e-01	8.990485e-01	8.898619e-01	8.882486e-01	8.921120e-01	1.011541e+00	9.928095e-01	9.755049e-01	8.368384e-01	8.424619e-01	8.483585e-01	8.605053e-01	8.551642e-01	8.503132e-01	8.417981e-01	8.381812e-01	8.289205e-01	8.298757e-01	8.350762e-01	8.181489e-01	8.493149e-01	8.440688e-01	1.096483e+00	8.390781e-01	8.344431e-01	8.302518e-01	8.232530e-01	1.071764e+00	8.042153e-01	8.102024e-01	8.046597e-01	8.028107e-01	7.921293e-01	7.919483e-01	7.917787e-01	9.552733e-01	1.065110e+00	1.058365e+00	1.038450e+00	1.031738e+00	1.024908e+00	1.010342e+00	1.002819e+00	9.950663e-01	9.793011e-01	9.713089e-01	9.632894e-01	9.473159e-01	9.393962e-01	9.315885e-01	9.089030e-01	8.695611e-01	8.642977e-01	9.018071e-01	8.949920e-01	8.883935e-01	7.993283e-01	7.977939e-01	7.965120e-01	7.954139e-01	7.944797e-01	8.287533e-01	8.425700e-01	9.559162e-01	9.608714e-01	9.658228e-01	8.711921e-01	8.744249e-01	8.600707e-01	8.817378e-01	7.926822e-01	7.944808e-01	7.967818e-01	8.102819e-01	8.203895e-01	8.178624e-01	8.155902e-01	1.089391e+00	1.084279e+00	1.078289e+00	8.960870e-01	9.001856e-01	9.043884e-01	8.324637e-01	8.304908e-01	1.289945e+00	9.281004e-01	1.129356e+00	1.097677e+00	8.830959e-01	1.261893e+00	1.159457e+00	1.013179e+00	1.018103e+00	1.057419e+00	1.112694e+00	8.576276e-01	1.271270e+00	9.660522e-01	1.206348e+00	1.092416e+00	1.120629e+00	1.172031e+00	9.172820e-01	1.130611e+00	1.185407e+00	1.188067e+00	9.563950e-01	8.739536e-01	1.104105e+00	8.600136e-01	9.402526e-01	8.662796e-01	8.357810e-01	1.101034e+00	8.780720e-01	1.090333e+00	1.087298e+00	9.861671e-01	7.998853e-01	8.103180e-01	1.122118e+00	8.186931e-01	9.865898e-01	1.146693e+00	1.106000e+00	1.144057e+00	1.078630e+00	1.128381e+00	9.234006e-01	1.231575e+00	9.285105e-01	9.326035e-01	1.154393e+00	1.129950e+00	1.180682e+00	1.015150e+00	8.615680e-01	8.157831e-01	1.219410e+00	1.002401e+00	9.253595e-01	1.048417e+00	8.175448e-01	8.140174e-01	8.121424e-01	9.144776e-01	9.194771e-01	1.095702e+00	1.042546e+00	1.086581e+00	1.254720e+00	1.296767e+00	1.080052e+00	1.065698e+00	1.113091e+00	8.850288e-01	9.764871e-01	9.814728e-01	9.914626e-01	9.961960e-01	9.674017e-01	9.532869e-01	1.000616e+00	1.004879e+00	1.009006e+00	1.041510e+00	1.053086e+00	9.468057e-01	9.520321e-01	1.137239e+00	8.682059e-01	8.708981e-01	8.628962e-01	8.647497e-01	1.024026e+00	1.031681e+00	8.891081e-01	8.806297e-01	8.871886e-01	1.091098e+00	1.102743e+00	9.377231e-01	9.429960e-01	9.169108e-01	9.067765e-01	8.977962e-01	8.901679e-01	8.945547e-01	1.037360e+00	1.017933e+00	9.994131e-01	9.825739e-01	8.403628e-01	8.449263e-01	8.502789e-01	8.555057e-01	8.679463e-01	8.623777e-01	8.571408e-01	8.524397e-01	8.482173e-01	8.373012e-01	8.358080e-01	8.445400e-01	8.519989e-01	1.094599e+00	1.093693e+00	8.468553e-01	8.420076e-01	8.375465e-01	8.335310e-01	8.299736e-01	8.268093e-01	8.370809e-01	8.085105e-01	8.068882e-01	7.996770e-01	7.999831e-01	8.007504e-01	8.015045e-01	1.067029e+00	1.060915e+00	1.054738e+00	1.042057e+00	1.035724e+00	1.029369e+00	1.021898e+00	1.008910e+00	1.000846e+00	9.934078e-01	9.781938e-01	9.709387e-01	9.627674e-01	9.555946e-01	9.473365e-01	9.403347e-01	9.321194e-01	8.673807e-01	8.717414e-01	9.108750e-01	9.031631e-01	8.972457e-01	8.900177e-01	8.053086e-01	8.039486e-01	8.026250e-01	8.016065e-01	8.007138e-01	8.001204e-01	8.492086e-01	8.647120e-01	9.616009e-01	9.667656e-01	9.715207e-01	8.740795e-01	8.764163e-01	8.803358e-01	8.841591e-01	9.071246e-01	9.339720e-01	8.026120e-01	8.049001e-01	8.086928e-01	8.131269e-01	8.268498e-01	8.241325e-01	8.216973e-01	8.193579e-01	1.072927e+00	1.083240e+00	1.078467e+00	8.978114e-01	9.024297e-01	9.059261e-01	9.107490e-01	8.413368e-01	8.387467e-01	8.368139e-01	1.148052e+00	1.125343e+00	1.073701e+00	1.177465e+00	1.171259e+00	9.363799e-01	9.362938e-01	1.193494e+00	1.096515e+00	1.235366e+00	1.081065e+00	8.826959e-01	8.076839e-01	1.018707e+00	1.127166e+00	1.234988e+00	1.292320e+00	1.294372e+00	1.281517e+00	1.250850e+00	1.138724e+00	8.218687e-01	1.084565e+00	1.121530e+00	1.026545e+00	9.595732e-01	8.664524e-01	1.115925e+00	1.068626e+00	1.081998e+00	8.773997e-01	8.678332e-01	9.226617e-01	9.813169e-01	8.606388e-01	8.874904e-01	8.229470e-01	1.109673e+00	9.483819e-01	1.165199e+00	1.099799e+00	1.292576e+00	1.182391e+00	1.173230e+00	1.019720e+00	1.061230e+00	1.266771e+00	9.858882e-01	1.215152e+00	1.088026e+00	1.162028e+00	1.177068e+00	1.178082e+00	1.125471e+00	8.423689e-01	8.430935e-01	1.104119e+00	8.873907e-01	1.085385e+00	1.113477e+00	9.275524e-01	1.200181e+00	8.193579e-01	8.182289e-01	8.157022e-01	9.187703e-01	1.053286e+00	1.090002e+00	1.275307e+00	1.103694e+00	9.825620e-01	9.866799e-01	9.920574e-01	9.964851e-01	9.611973e-01	9.754554e-01	1.001611e+00	1.005603e+00	1.010546e+00	1.015615e+00	1.052037e+00	1.062704e+00	9.507962e-01	1.128574e+00	8.712880e-01	8.741591e-01	8.679888e-01	8.702930e-01	1.033977e+00	1.042187e+00	8.964390e-01	8.873698e-01	1.095030e+00	1.104728e+00	9.443561e-01	9.247684e-01	9.139027e-01	9.071985e-01	8.946964e-01	1.042325e+00	1.023731e+00	1.005929e+00	9.904272e-01	8.452049e-01	8.475751e-01	8.527407e-01	8.570492e-01	8.623096e-01	8.749192e-01	8.704795e-01	8.634216e-01	8.598963e-01	8.541880e-01	1.094058e+00	1.092109e+00	1.090214e+00	8.543541e-01	8.501353e-01	8.446812e-01	8.411809e-01	8.365163e-01	8.442563e-01	8.563831e-01	8.147522e-01	8.124384e-01	8.070682e-01	8.098559e-01	8.118431e-01	1.062733e+00	1.057300e+00	1.051226e+00	1.045390e+00	1.039175e+00	1.033231e+00	1.026392e+00	1.016498e+00	1.007093e+00	9.954021e-01	9.666366e-01	9.518484e-01	9.371570e-01	9.086579e-01	8.962895e-01	8.118586e-01	8.097791e-01	8.095662e-01	8.076451e-01	8.080135e-01	8.072937e-01	8.072707e-01	8.706298e-01	8.867918e-01	9.677437e-01	9.722231e-01	9.772686e-01	8.772644e-01	8.811114e-01	9.067101e-01	9.305707e-01	9.565297e-01	8.138294e-01	8.168146e-01	8.216832e-01	8.286953e-01	8.357977e-01	8.339223e-01	8.301577e-01	8.285454e-01	8.257584e-01	1.078201e+00	1.072942e+00	9.023145e-01	9.103393e-01	8.516331e-01	8.471330e-01	8.457379e-01	8.427915e-01	1.166078e+00	1.154375e+00	1.181134e+00	1.254996e+00	1.180683e+00	1.088606e+00	1.106554e+00	1.183411e+00	1.086403e+00	1.141046e+00	1.105939e+00	1.255339e+00	1.081815e+00	1.161524e+00	8.282765e-01	1.177728e+00	1.060980e+00	1.152352e+00	1.141413e+00	1.079418e+00	8.887996e-01	1.101716e+00	8.496563e-01	1.035165e+00	1.024796e+00	9.106091e-01	9.442009e-01	8.864937e-01	1.231222e+00	8.726342e-01	9.701545e-01	9.573014e-01	8.172558e-01	1.094246e+00	1.066031e+00	1.212905e+00	1.031031e+00	1.070053e+00	1.170731e+00	1.097582e+00	1.291356e+00	1.244999e+00	1.113742e+00	9.441403e-01	8.700874e-01	8.599686e-01	1.112130e+00	1.173869e+00	1.129521e+00	1.275257e+00	1.176732e+00	1.064257e+00	1.216966e+00	1.199795e+00	8.879978e-01	1.101541e+00	1.083946e+00	1.080338e+00	8.786998e-01	8.245619e-01	8.210651e-01	9.358637e-01	1.091855e+00	1.122781e+00	1.122176e+00	9.901246e-01	9.994887e-01	9.830038e-01	1.009058e+00	1.017510e+00	1.060615e+00	1.120995e+00	8.760566e-01	1.043362e+00	1.051497e+00	8.996430e-01	1.097454e+00	9.513557e-01	9.587457e-01	9.280336e-01	9.145870e-01	8.954349e-01	1.046653e+00	1.028097e+00	1.011329e+00	9.997705e-01	8.534501e-01	8.612421e-01	8.688093e-01	8.740462e-01	8.636743e-01	1.091457e+00	1.088963e+00	8.503258e-01	8.421745e-01	8.759976e-01	8.182460e-01	8.225183e-01	1.003201e+00	1.056071e+00	1.044842e+00	1.033302e+00	1.022715e+00	1.013323e+00	9.908560e-01	9.771703e-01	9.630742e-01	9.489393e-01	9.347873e-01	9.208137e-01	9.080923e-01	8.975920e-01	8.161952e-01	8.148854e-01	8.150979e-01	8.138335e-01	8.158957e-01	8.921854e-01	9.090303e-01	9.672445e-01	9.753263e-01	9.832585e-01	8.800643e-01	8.837878e-01	9.281717e-01	9.512356e-01	9.763589e-01	1.002457e+00	8.263333e-01	8.299343e-01	8.354849e-01	8.439636e-01	8.548085e-01	8.607988e-01	8.360075e-01	8.325330e-01	1.077797e+00	1.073292e+00	9.028458e-01	9.187238e-01	9.272086e-01	8.557840e-01	8.507873e-01	1.117389e+00	1.166019e+00	1.161178e+00	1.136253e+00	1.025472e+00	1.108370e+00	1.173798e+00	1.135621e+00	1.185597e+00	1.135184e+00	1.147604e+00	1.126775e+00	1.092509e+00	1.193614e+00	1.235630e+00	1.088367e+00	9.515840e-01	8.358880e-01	1.125044e+00	1.017128e+00	1.099451e+00	8.876475e-01	1.066667e+00	1.169561e+00	8.756816e-01	1.043570e+00	9.189945e-01	8.966370e-01	1.083528e+00	1.091447e+00	1.082185e+00	1.067014e+00	1.171389e+00	1.098736e+00	1.103073e+00	1.082831e+00	8.283508e-01	8.985366e-01	9.355836e-01	9.897509e-01	1.150518e+00	1.157258e+00	1.272005e+00	1.075361e+00	1.085452e+00	1.175645e+00	1.099194e+00	1.169040e+00	1.152264e+00	8.908613e-01	1.224909e+00	9.799737e-01	9.646802e-01	1.094849e+00	1.233601e+00	1.067210e+00	1.106562e+00	9.438997e-01	1.254313e+00	1.176116e+00	1.005256e+00	1.213096e+00	1.200148e+00	8.801908e-01	1.117597e+00	1.079350e+00	8.891366e-01	8.319015e-01	9.086254e-01	1.118332e+00	1.143435e+00	9.980310e-01	1.007579e+00	1.025398e+00	1.034305e+00	1.114269e+00	8.793721e-01	1.051245e+00	1.059001e+00	8.698634e-01	9.748679e-01	9.828002e-01	9.588326e-01	9.500510e-01	9.347800e-01	9.199763e-01	1.049058e+00	8.581115e-01	8.628199e-01	9.055694e-01	8.916435e-01	9.271655e-01	1.091450e+00	8.707250e-01	8.609082e-01	8.332056e-01	1.059487e+00	1.049544e+00	1.009808e+00	1.038879e+00	1.028574e+00	1.019147e+00	9.991179e-01	9.867745e-01	9.735554e-01	9.600788e-01	9.464842e-01	9.328385e-01	9.199183e-01	8.255131e-01	8.236999e-01	8.228177e-01	8.228529e-01	8.230350e-01	8.274046e-01	9.123131e-01	9.305362e-01	9.666061e-01	9.900209e-01	8.826182e-01	8.863455e-01	9.484982e-01	9.694038e-01	9.929342e-01	1.016440e+00	1.041008e+00	8.402649e-01	8.460670e-01	8.514146e-01	8.596240e-01	8.717148e-01	8.520793e-01	8.450885e-01	8.400781e-01	1.074559e+00	1.067819e+00	9.035854e-01	9.111404e-01	8.791533e-01	8.690394e-01	8.617363e-01	8.577956e-01	1.152328e+00	1.152977e+00	1.149675e+00	1.121132e+00	1.156072e+00	1.140384e+00	1.113591e+00	1.050483e+00	1.172800e+00	1.120685e+00	1.117931e+00	1.071726e+00	1.166005e+00	1.084786e+00	8.331545e-01	1.137607e+00	1.141597e+00	1.128290e+00	1.169441e+00	1.070947e+00	9.260620e-01	1.027034e+00	1.024946e+00	9.594705e-01	1.132801e+00	1.131997e+00	1.128187e+00	1.171839e+00	1.172190e+00	9.002161e-01	9.