# vtk DataFile Version 3.0
vtk output
ASCII
DATASET UNSTRUCTURED_GRID
POINTS 200 float
9.997500e-01	-3.633243e-05	0.0	9.990000e-01	-1.454723e-04	0.0	9.977600e-01	-3.275074e-04	0.0	9.960200e-01	-5.899273e-04	0.0	9.937800e-01	-9.470955e-04	0.0	9.910500e-01	-1.422098e-03	0.0	9.878400e-01	-2.045522e-03	0.0	9.841300e-01	-2.853685e-03	0.0	9.799500e-01	-3.858903e-03	0.0	9.752800e-01	-5.058334e-03	0.0	9.701500e-01	-6.405163e-03	0.0	9.645400e-01	-7.840914e-03	0.0	9.584700e-01	-9.290249e-03	0.0	9.519400e-01	-1.069781e-02	0.0	9.449600e-01	-1.203565e-02	0.0	9.375400e-01	-1.330816e-02	0.0	9.296900e-01	-1.454266e-02	0.0	9.214000e-01	-1.577743e-02	0.0	9.127000e-01	-1.703971e-02	0.0	9.035800e-01	-1.835055e-02	0.0	8.940600e-01	-1.971358e-02	0.0	8.841500e-01	-2.112419e-02	0.0	8.738500e-01	-2.257419e-02	0.0	8.631800e-01	-2.405146e-02	0.0	8.521600e-01	-2.554535e-02	0.0	8.407700e-01	-2.705271e-02	0.0	8.290500e-01	-2.856429e-02	0.0	8.170100e-01	-3.007624e-02	0.0	8.046400e-01	-3.158774e-02	0.0	7.919700e-01	-3.309314e-02	0.0	7.790100e-01	-3.458918e-02	0.0	7.657800e-01	-3.607123e-02	0.0	7.522800e-01	-3.753675e-02	0.0	7.385200e-01	-3.898189e-02	0.0	7.245300e-01	-4.040077e-02	0.0	7.103200e-01	-4.178976e-02	0.0	6.958900e-01	-4.314631e-02	0.0	6.812700e-01	-4.446522e-02	0.0	6.664700e-01	-4.574348e-02	0.0	6.515000e-01	-4.697832e-02	0.0	6.363800e-01	-4.816644e-02	0.0	6.211300e-01	-4.930491e-02	0.0	6.057600e-01	-5.039189e-02	0.0	5.902800e-01	-5.142573e-02	0.0	5.747100e-01	-5.240439e-02	0.0	5.590600e-01	-5.332670e-02	0.0	5.433600e-01	-5.419058e-02	0.0	5.276100e-01	-5.499582e-02	0.0	5.118400e-01	-5.574080e-02	0.0	4.960500e-01	-5.642543e-02	0.0	4.802700e-01	-5.704840e-02	0.0	4.645100e-01	-5.760930e-02	0.0	4.487800e-01	-5.810766e-02	0.0	4.331100e-01	-5.854240e-02	0.0	4.175000e-01	-5.891330e-02	0.0	4.019700e-01	-5.921947e-02	0.0	3.865400e-01	-5.946001e-02	0.0	3.712300e-01	-5.963403e-02	0.0	3.560400e-01	-5.974075e-02	0.0	3.409900e-01	-5.977901e-02	0.0	3.261100e-01	-5.974770e-02	0.0	3.114000e-01	-5.964568e-02	0.0	2.968700e-01	-5.947158e-02	0.0	2.825500e-01	-5.922431e-02	0.0	2.684500e-01	-5.890258e-02	0.0	2.545700e-01	-5.850472e-02	0.0	2.409400e-01	-5.802986e-02	0.0	2.275700e-01	-5.747671e-02	0.0	2.144700e-01	-5.684400e-02	0.0	2.016600e-01	-5.613103e-02	0.0	1.891400e-01	-5.533613e-02	0.0	1.769300e-01	-5.445888e-02	0.0	1.650400e-01	-5.349845e-02	0.0	1.534900e-01	-5.245504e-02	0.0	1.422900e-01	-5.132839e-02	0.0	1.314400e-01	-5.011724e-02	0.0	1.209500e-01	-4.882133e-02	0.0	1.108500e-01	-4.744345e-02	0.0	1.011300e-01	-4.598144e-02	0.0	9.181000e-02	-4.443739e-02	0.0	8.290000e-02	-4.281244e-02	0.0	7.440000e-02	-4.110594e-02	0.0	6.633000e-02	-3.932143e-02	0.0	5.869000e-02	-3.745860e-02	0.0	5.149000e-02	-3.551949e-02	0.0	4.474000e-02	-3.350660e-02	0.0	3.844000e-02	-3.141964e-02	0.0	3.260000e-02	-2.926144e-02	0.0	2.723000e-02	-2.703570e-02	0.0	2.232000e-02	-2.473739e-02	0.0	1.790000e-02	-2.238049e-02	0.0	1.395000e-02	-1.995419e-02	0.0	1.049000e-02	-1.746976e-02	0.0	7.520000e-03	-1.492810e-02	0.0	5.040000e-03	-1.232939e-02	0.0	3.050000e-03	-9.672093e-03	0.0	1.560000e-03	-6.971451e-03	0.0	5.600000e-04	-4.206312e-03	0.0	6.000000e-05	-1.384029e-03	0.0	0.000000e+00	0.000000e+00	0.0	6.000000e-05	1.263731e-03	0.0	5.600000e-04	3.625018e-03	0.0	1.560000e-03	5.788797e-03	0.0	3.050000e-03	7.806822e-03	0.0	5.040000e-03	9.724114e-03	0.0	7.520000e-03	1.154843e-02	0.0	1.049000e-02	1.329474e-02	0.0	1.395000e-02	1.497358e-02	0.0	1.790000e-02	1.659285e-02	0.0	2.232000e-02	1.815217e-02	0.0	2.723000e-02	1.966469e-02	0.0	3.260000e-02	2.112628e-02	0.0	3.844000e-02	2.254464e-02	0.0	4.474000e-02	2.392113e-02	0.0	5.149000e-02	2.525712e-02	0.0	5.869000e-02	2.655564e-02	0.0	6.633000e-02	2.781742e-02	0.0	7.440000e-02	2.904312e-02	0.0	8.290000e-02	3.023465e-02	0.0	9.181000e-02	3.139091e-02	0.0	1.011300e-01	3.251341e-02	0.0	1.108500e-01	3.360212e-02	0.0	1.209500e-01	3.465591e-02	0.0	1.314400e-01	3.567663e-02	0.0	1.422900e-01	3.666200e-02	0.0	1.534900e-01	3.761176e-02	0.0	1.650400e-01	3.852625e-02	0.0	1.769300e-01	3.940481e-02	0.0	1.891400e-01	4.024596e-02	0.0	2.016600e-01	4.104891e-02	0.0	2.144700e-01	4.181216e-02	0.0	2.275700e-01	4.253531e-02	0.0	2.409400e-01	4.321664e-02	0.0	2.545700e-01	4.385491e-02	0.0	2.684500e-01	4.444871e-02	0.0	2.825500e-01	4.499574e-02	0.0	2.968700e-01	4.549482e-02	0.0	3.114000e-01	4.594416e-02	0.0	3.261100e-01	4.634133e-02	0.0	3.409900e-01	4.668442e-02	0.0	3.560400e-01	4.697158e-02	0.0	3.712300e-01	4.720024e-02	0.0	3.865400e-01	4.736810e-02	0.0	4.019700e-01	4.747299e-02	0.0	4.175000e-01	4.751249e-02	0.0	4.331100e-01	4.748423e-02	0.0	4.487800e-01	4.738598e-02	0.0	4.645100e-01	4.721539e-02	0.0	4.802700e-01	4.697049e-02	0.0	4.960500e-01	4.664926e-02	0.0	5.118400e-01	4.624977e-02	0.0	5.276100e-01	4.577089e-02	0.0	5.433600e-01	4.521092e-02	0.0	5.590600e-01	4.456950e-02	0.0	5.747100e-01	4.384552e-02	0.0	5.902800e-01	4.303961e-02	0.0	6.057600e-01	4.215204e-02	0.0	6.211300e-01	4.118420e-02	0.0	6.363800e-01	4.013748e-02	0.0	6.515000e-01	3.901383e-02	0.0	6.664700e-01	3.781660e-02	0.0	6.812700e-01	3.655001e-02	0.0	6.958900e-01	3.521821e-02	0.0	7.103200e-01	3.382600e-02	0.0	7.245300e-01	3.238094e-02	0.0	7.385200e-01	3.088838e-02	0.0	7.522800e-01	2.935527e-02	0.0	7.657800e-01	2.779150e-02	0.0	7.790100e-01	2.620544e-02	0.0	7.919700e-01	2.460475e-02	0.0	8.046400e-01	2.299994e-02	0.0	8.170100e-01	2.140066e-02	0.0	8.290500e-01	1.981926e-02	0.0	8.407700e-01	1.826253e-02	0.0	8.521600e-01	1.673891e-02	0.0	8.631800e-01	1.525924e-02	0.0	8.738500e-01	1.382400e-02	0.0	8.841500e-01	1.243642e-02	0.0	8.940600e-01	1.109769e-02	0.0	9.035800e-01	9.806136e-03	0.0	9.127000e-01	8.564454e-03	0.0	9.214000e-01	7.383592e-03	0.0	9.296900e-01	6.280110e-03	0.0	9.375400e-01	5.284972e-03	0.0	9.449600e-01	4.427321e-03	0.0	9.519400e-01	3.732071e-03	0.0	9.584700e-01	3.205339e-03	0.0	9.645400e-01	2.826950e-03	0.0	9.701500e-01	2.552044e-03	0.0	9.752800e-01	2.324824e-03	0.0	9.799500e-01	2.093054e-03	0.0	9.841300e-01	1.827020e-03	0.0	9.878400e-01	1.519897e-03	0.0	9.910500e-01	1.190200e-03	0.0	9.937800e-01	8.630210e-04	0.0	9.960200e-01	5.666261e-04	0.0	9.977600e-01	3.231882e-04	0.0	9.990000e-01	1.450783e-04	0.0	9.997500e-01	3.632619e-05	0.0	1.000000e+00	0.000000e+00	0.0	
CELLS 200	600
2	199	0	2	0	1	2	1	2	2	2	3	2	3	4	2	4	5	2	5	6	2	6	7	2	7	8	2	8	9	2	9	10	2	10	11	2	11	12	2	12	13	2	13	14	2	14	15	2	15	16	2	16	17	2	17	18	2	18	19	2	19	20	2	20	21	2	21	22	2	22	23	2	23	24	2	24	25	2	25	26	2	26	27	2	27	28	2	28	29	2	29	30	2	30	31	2	31	32	2	32	33	2	33	34	2	34	35	2	35	36	2	36	37	2	37	38	2	38	39	2	39	40	2	40	41	2	41	42	2	42	43	2	43	44	2	44	45	2	45	46	2	46	47	2	47	48	2	48	49	2	49	50	2	50	51	2	51	52	2	52	53	2	53	54	2	54	55	2	55	56	2	56	57	2	57	58	2	58	59	2	59	60	2	60	61	2	61	62	2	62	63	2	63	64	2	64	65	2	65	66	2	66	67	2	67	68	2	68	69	2	69	70	2	70	71	2	71	72	2	72	73	2	73	74	2	74	75	2	75	76	2	76	77	2	77	78	2	78	79	2	79	80	2	80	81	2	81	82	2	82	83	2	83	84	2	84	85	2	85	86	2	86	87	2	87	88	2	88	89	2	89	90	2	90	91	2	91	92	2	92	93	2	93	94	2	94	95	2	95	96	2	96	97	2	97	98	2	98	99	2	99	100	2	100	101	2	101	102	2	102	103	2	103	104	2	104	105	2	105	106	2	106	107	2	107	108	2	108	109	2	109	110	2	110	111	2	111	112	2	112	113	2	113	114	2	114	115	2	115	116	2	116	117	2	117	118	2	118	119	2	119	120	2	120	121	2	121	122	2	122	123	2	123	124	2	124	125	2	125	126	2	126	127	2	127	128	2	128	129	2	129	130	2	130	131	2	131	132	2	132	133	2	133	134	2	134	135	2	135	136	2	136	137	2	137	138	2	138	139	2	139	140	2	140	141	2	141	142	2	142	143	2	143	144	2	144	145	2	145	146	2	146	147	2	147	148	2	148	149	2	149	150	2	150	151	2	151	152	2	152	153	2	153	154	2	154	155	2	155	156	2	156	157	2	157	158	2	158	159	2	159	160	2	160	161	2	161	162	2	162	163	2	163	164	2	164	165	2	165	166	2	166	167	2	167	168	2	168	169	2	169	170	2	170	171	2	171	172	2	172	173	2	173	174	2	174	175	2	175	176	2	176	177	2	177	178	2	178	179	2	179	180	2	180	181	2	181	182	2	182	183	2	183	184	2	184	185	2	185	186	2	186	187	2	187	188	2	188	189	2	189	190	2	190	191	2	191	192	2	192	193	2	193	194	2	194	195	2	195	196	2	196	197	2	197	198	2	198	199	
CELL_TYPES 200
3	3	3	3	3	3	3	3	3	3	3	3	3	3	3	3	3	3	3	3	3	3	3	3	3	3	3	3	3	3	3	3	3	3	3	3	3	3	3	3	3	3	3	3	3	3	3	3	3	3	3	3	3	3	3	3	3	3	3	3	3	3	3	3	3	3	3	3	3	3	3	3	3	3	3	3	3	3	3	3	3	3	3	3	3	3	3	3	3	3	3	3	3	3	3	3	3	3	3	3	3	3	3	3	3	3	3	3	3	3	3	3	3	3	3	3	3	3	3	3	3	3	3	3	3	3	3	3	3	3	3	3	3	3	3	3	3	3	3	3	3	3	3	3	3	3	3	3	3	3	3	3	3	3	3	3	3	3	3	3	3	3	3	3	3	3	3	3	3	3	3	3	3	3	3	3	3	3	3	3	3	3	3	3	3	3	3	3	3	3	3	3	3	3	3	3	3	3	3	3	
POINT_DATA 200

SCALARS Conservative_1 float 1
LOOKUP_TABLE default
1.199829e+00	1.181604e+00	1.171179e+00	1.164740e+00	1.160167e+00	1.155702e+00	1.148817e+00	1.137899e+00	1.121718e+00	1.100363e+00	1.075074e+00	1.048463e+00	1.024895e+00	1.008361e+00	9.999871e-01	9.979289e-01	9.990382e-01	1.000481e+00	1.000508e+00	9.985198e-01	9.947362e-01	9.897145e-01	9.840401e-01	9.781845e-01	9.724255e-01	9.668738e-01	9.615209e-01	9.563203e-01	9.512071e-01	9.461502e-01	9.411334e-01	9.361129e-01	9.310548e-01	9.259754e-01	9.209260e-01	9.159551e-01	9.110813e-01	9.063091e-01	9.016499e-01	8.971200e-01	8.927192e-01	8.884582e-01	8.843194e-01	8.803195e-01	8.764734e-01	8.728325e-01	8.693865e-01	8.660713e-01	8.627399e-01	8.593828e-01	8.562022e-01	8.535519e-01	8.515457e-01	8.498916e-01	8.479169e-01	8.448704e-01	8.402525e-01	8.342111e-01	8.276256e-01	8.217527e-01	8.174787e-01	8.149966e-01	8.140340e-01	8.141582e-01	8.150592e-01	8.165381e-01	8.185454e-01	8.209976e-01	8.238085e-01	8.268654e-01	8.301875e-01	8.339377e-01	8.383630e-01	8.435313e-01	8.493663e-01	8.557216e-01	8.626619e-01	8.703654e-01	8.788894e-01	8.882730e-01	8.986280e-01	9.100134e-01	9.225806e-01	9.364473e-01	9.518036e-01	9.689265e-01	9.880442e-01	1.009516e+00	1.033826e+00	1.061290e+00	1.092440e+00	1.127742e+00	1.167044e+00	1.209885e+00	1.254555e+00	1.298041e+00	1.331744e+00	1.350900e+00	1.339534e+00	1.308269e+00	1.284256e+00	1.221091e+00	1.099447e+00	1.001966e+00	9.259706e-01	8.702653e-01	8.322875e-01	8.072873e-01	7.904586e-01	7.790619e-01	7.714018e-01	7.663095e-01	7.632254e-01	7.614121e-01	7.604955e-01	7.604722e-01	7.612136e-01	7.624830e-01	7.639588e-01	7.653140e-01	7.665656e-01	7.680373e-01	7.699877e-01	7.722666e-01	7.744748e-01	7.763846e-01	7.780878e-01	7.797314e-01	7.814184e-01	7.832191e-01	7.851886e-01	7.873107e-01	7.895126e-01	7.916938e-01	7.938111e-01	7.958390e-01	7.977676e-01	7.995586e-01	8.012212e-01	8.028703e-01	8.047183e-01	8.069208e-01	8.095274e-01	8.125021e-01	8.158500e-01	8.196340e-01	8.238848e-01	8.285687e-01	8.335118e-01	8.385064e-01	8.433483e-01	8.480973e-01	8.530532e-01	8.585676e-01	8.647019e-01	8.712251e-01	8.779144e-01	8.847683e-01	8.919543e-01	8.995204e-01	9.074157e-01	9.155524e-01	9.238810e-01	9.323891e-01	9.410474e-01	9.498426e-01	9.587246e-01	9.676755e-01	9.766211e-01	9.855639e-01	9.944209e-01	1.003112e+00	1.011573e+00	1.019722e+00	1.027510e+00	1.034919e+00	1.041994e+00	1.048914e+00	1.055941e+00	1.063462e+00	1.071775e+00	1.080977e+00	1.090685e+00	1.100037e+00	1.107783e+00	1.112588e+00	1.113362e+00	1.109742e+00	1.102492e+00	1.093778e+00	1.086676e+00	1.084159e+00	1.088063e+00	1.098278e+00	1.112852e+00	1.130017e+00	1.148479e+00	1.168636e+00	1.192714e+00	1.181127e+00	
SCALARS Conservative_2 float 1
LOOKUP_TABLE default
7.195754e-01	7.459508e-01	7.640414e-01	7.748505e-01	7.807422e-01	7.855155e-01	7.913213e-01	8.009864e-01	8.159959e-01	8.364029e-01	8.604916e-01	8.849348e-01	9.060893e-01	9.215744e-01	9.308009e-01	9.347638e-01	9.355179e-01	9.351573e-01	9.351408e-01	9.360802e-01	9.380290e-01	9.406862e-01	9.436762e-01	9.467086e-01	9.495967e-01	9.522747e-01	9.547377e-01	9.570277e-01	9.591551e-01	9.611522e-01	9.630541e-01	9.648529e-01	9.665631e-01	9.681822e-01	9.696977e-01	9.710975e-01	9.723961e-01	9.735747e-01	9.746433e-01	9.756173e-01	9.764776e-01	9.772592e-01	9.779357e-01	9.785442e-01	9.790521e-01	9.795002e-01	9.798659e-01	9.802012e-01	9.804743e-01	9.807243e-01	9.808923e-01	9.810053e-01	9.810481e-01	9.810777e-01	9.811132e-01	9.811869e-01	9.812257e-01	9.811488e-01	9.808248e-01	9.803294e-01	9.798254e-01	9.794122e-01	9.791625e-01	9.790112e-01	9.789590e-01	9.789151e-01	9.789023e-01	9.788490e-01	9.787687e-01	9.785940e-01	9.783388e-01	9.779490e-01	9.774266e-01	9.766915e-01	9.757311e-01	9.744050e-01	9.727333e-01	9.706212e-01	9.678383e-01	9.642296e-01	9.597049e-01	9.539725e-01	9.467689e-01	9.376773e-01	9.261822e-01	9.115555e-01	8.928652e-01	8.690366e-01	8.384974e-01	7.990977e-01	7.483517e-01	6.832119e-01	6.000145e-01	4.965550e-01	3.728415e-01	2.366344e-01	1.074511e-01	1.080594e-02	-2.157924e-02	5.237545e-03	7.306909e-02	2.105267e-01	4.135593e-01	5.903215e-01	7.153230e-01	7.968882e-01	8.484640e-01	8.813682e-01	9.026335e-01	9.169616e-01	9.269990e-01	9.341650e-01	9.396339e-01	9.439105e-01	9.473418e-01	9.502837e-01	9.527984e-01	9.549720e-01	9.569022e-01	9.585673e-01	9.600531e-01	9.614727e-01	9.628419e-01	9.640730e-01	9.651708e-01	9.661340e-01	9.670187e-01	9.678295e-01	9.686087e-01	9.693531e-01	9.700951e-01	9.708141e-01	9.715138e-01	9.721627e-01	9.727747e-01	9.733345e-01	9.738549e-01	9.743268e-01	9.747644e-01	9.751851e-01	9.756371e-01	9.760995e-01	9.765789e-01	9.770587e-01	9.775350e-01	9.780059e-01	9.784405e-01	9.788400e-01	9.791216e-01	9.793175e-01	9.794119e-01	9.794419e-01	9.793879e-01	9.792216e-01	9.788785e-01	9.783294e-01	9.776102e-01	9.766659e-01	9.755015e-01	9.740590e-01	9.723361e-01	9.703072e-01	9.679770e-01	9.653293e-01	9.623595e-01	9.590612e-01	9.554331e-01	9.515151e-01	9.472415e-01	9.427236e-01	9.379680e-01	9.329932e-01	9.279153e-01	9.227889e-01	9.176691e-01	9.125817e-01	9.074711e-01	9.022142e-01	8.965186e-01	8.900880e-01	8.825868e-01	8.740078e-01	8.647767e-01	8.559762e-01	8.491459e-01	8.458518e-01	8.471032e-01	8.528048e-01	8.614974e-01	8.705156e-01	8.765535e-01	8.769689e-01	8.704550e-01	8.577448e-01	8.395704e-01	8.174795e-01	7.911829e-01	7.596452e-01	7.213187e-01	6.623528e-01	
SCALARS Conservative_3 float 1
LOOKUP_TABLE default
1.010185e-01	1.066669e-01	1.128621e-01	1.197579e-01	1.301707e-01	1.447851e-01	1.632547e-01	1.836665e-01	2.028723e-01	2.169503e-01	2.227182e-01	2.185992e-01	2.055596e-01	1.873939e-01	1.688269e-01	1.535266e-01	1.431311e-01	1.373997e-01	1.349810e-01	1.342428e-01	1.338893e-01	1.331570e-01	1.317604e-01	1.297270e-01	1.272251e-01	1.244543e-01	1.215481e-01	1.185957e-01	1.156229e-01	1.126174e-01	1.095679e-01	1.064538e-01	1.032639e-01	9.999057e-02	9.661988e-02	9.316670e-02	8.962746e-02	8.602065e-02	8.235264e-02	7.863538e-02	7.488213e-02	7.109969e-02	6.730659e-02	6.350433e-02	5.970043e-02	5.588630e-02	5.206571e-02	4.825069e-02	4.446480e-02	4.071237e-02	3.695711e-02	3.314220e-02	2.924519e-02	2.525308e-02	2.119816e-02	1.712435e-02	1.307666e-02	9.041924e-03	4.912520e-03	5.520208e-04	-4.076253e-03	-8.950747e-03	-1.406012e-02	-1.939297e-02	-2.498755e-02	-3.087189e-02	-3.710230e-02	-4.369562e-02	-5.068544e-02	-5.809170e-02	-6.596131e-02	-7.435836e-02	-8.335320e-02	-9.297835e-02	-1.032765e-01	-1.142995e-01	-1.261584e-01	-1.389198e-01	-1.526597e-01	-1.675022e-01	-1.835658e-01	-2.009629e-01	-2.198491e-01	-2.403592e-01	-2.626137e-01	-2.867309e-01	-3.127817e-01	-3.407115e-01	-3.701343e-01	-4.003191e-01	-4.297909e-01	-4.554441e-01	-4.722054e-01	-4.716598e-01	-4.408891e-01	-3.644619e-01	-2.306566e-01	-3.806866e-02	1.858067e-01	3.519039e-01	4.964132e-01	6.611447e-01	7.236611e-01	6.884043e-01	6.111939e-01	5.275141e-01	4.530502e-01	3.913009e-01	3.411256e-01	3.001244e-01	2.665581e-01	2.386407e-01	2.151977e-01	1.952769e-01	1.781426e-01	1.632809e-01	1.503066e-01	1.388677e-01	1.287103e-01	1.195625e-01	1.112257e-01	1.036311e-01	9.672903e-02	9.042699e-02	8.459472e-02	7.908632e-02	7.387625e-02	6.893994e-02	6.426791e-02	5.980981e-02	5.553377e-02	5.140826e-02	4.740201e-02	4.347715e-02	3.960939e-02	3.577891e-02	3.197194e-02	2.816706e-02	2.433506e-02	2.045569e-02	1.653240e-02	1.256732e-02	8.549594e-03	4.447322e-03	2.425280e-04	-4.071151e-03	-8.490585e-03	-1.300742e-02	-1.763832e-02	-2.239279e-02	-2.729211e-02	-3.235663e-02	-3.753618e-02	-4.280204e-02	-4.810276e-02	-5.345793e-02	-5.888352e-02	-6.435975e-02	-6.982892e-02	-7.524739e-02	-8.057454e-02	-8.579717e-02	-9.085707e-02	-9.572539e-02	-1.003321e-01	-1.046530e-01	-1.086174e-01	-1.121908e-01	-1.153178e-01	-1.179543e-01	-1.200596e-01	-1.215999e-01	-1.225763e-01	-1.230143e-01	-1.229865e-01	-1.226388e-01	-1.221457e-01	-1.216850e-01	-1.213284e-01	-1.209117e-01	-1.199028e-01	-1.174062e-01	-1.123048e-01	-1.037147e-01	-9.144655e-02	-7.642200e-02	-6.080341e-02	-4.767628e-02	-4.028432e-02	-4.083027e-02	-4.940944e-02	-6.378787e-02	-8.016008e-02	-9.479901e-02	-1.049847e-01	-1.097970e-01	-1.102825e-01	-1.061986e-01	-1.003424e-01	2.575622e-03	
SCALARS Conservative_4 float 1
LOOKUP_TABLE default
3.446401e+00	3.400791e+00	3.375503e+00	3.359983e+00	3.348833e+00	3.337960e+00	3.320864e+00	3.293676e+00	3.253303e+00	3.199975e+00	3.136708e+00	3.069894e+00	3.010547e+00	2.968891e+00	2.947823e+00	2.942634e+00	2.945381e+00	2.948939e+00	2.948914e+00	2.943783e+00	2.934111e+00	2.921296e+00	2.906810e+00	2.891845e+00	2.877105e+00	2.862873e+00	2.849128e+00	2.835758e+00	2.822594e+00	2.809558e+00	2.796617e+00	2.783650e+00	2.770571e+00	2.757423e+00	2.744338e+00	2.731441e+00	2.718785e+00	2.706377e+00	2.694248e+00	2.682446e+00	2.670964e+00	2.659841e+00	2.649021e+00	2.638559e+00	2.628483e+00	2.618942e+00	2.609898e+00	2.601200e+00	2.592450e+00	2.583634e+00	2.575266e+00	2.568283e+00	2.562979e+00	2.558602e+00	2.553391e+00	2.545383e+00	2.533247e+00	2.517355e+00	2.499976e+00	2.484428e+00	2.473079e+00	2.466459e+00	2.463879e+00	2.464182e+00	2.466563e+00	2.470471e+00	2.475790e+00	2.482280e+00	2.489723e+00	2.497808e+00	2.506594e+00	2.516497e+00	2.528174e+00	2.541788e+00	2.557148e+00	2.573836e+00	2.592048e+00	2.612244e+00	2.634525e+00	2.658982e+00	2.685921e+00	2.715457e+00	2.747975e+00	2.783739e+00	2.823202e+00	2.867021e+00	2.915710e+00	2.970149e+00	3.031489e+00	3.100381e+00	3.178087e+00	3.265654e+00	3.362445e+00	3.467275e+00	3.575828e+00	3.681279e+00	3.762485e+00	3.809724e+00	3.781238e+00	3.702864e+00	3.649626e+00	3.499820e+00	3.190725e+00	2.942811e+00	2.747825e+00	2.604083e+00	2.505859e+00	2.441122e+00	2.397383e+00	2.367665e+00	2.347664e+00	2.334305e+00	2.326235e+00	2.321513e+00	2.319155e+00	2.319190e+00	2.321246e+00	2.324692e+00	2.328698e+00	2.332383e+00	2.335801e+00	2.339821e+00	2.345113e+00	2.351248e+00	2.357183e+00	2.362319e+00	2.366911e+00	2.371340e+00	2.375887e+00	2.380731e+00	2.386026e+00	2.391720e+00	2.397626e+00	2.403468e+00	2.409140e+00	2.414568e+00	2.419730e+00	2.424523e+00	2.428975e+00	2.433393e+00	2.438346e+00	2.444235e+00	2.451193e+00	2.459121e+00	2.468033e+00	2.478095e+00	2.489379e+00	2.501801e+00	2.514879e+00	2.528083e+00	2.540871e+00	2.553414e+00	2.566492e+00	2.581026e+00	2.597159e+00	2.614280e+00	2.631815e+00	2.649745e+00	2.668517e+00	2.688243e+00	2.708791e+00	2.729926e+00	2.751518e+00	2.773532e+00	2.795890e+00	2.818556e+00	2.841398e+00	2.864379e+00	2.887281e+00	2.910143e+00	2.932742e+00	2.954864e+00	2.976370e+00	2.997046e+00	3.016780e+00	3.035521e+00	3.053386e+00	3.070832e+00	3.088498e+00	3.107368e+00	3.128166e+00	3.151145e+00	3.175351e+00	3.198671e+00	3.218030e+00	3.230132e+00	3.232247e+00	3.223405e+00	3.205425e+00	3.183663e+00	3.165773e+00	3.159220e+00	3.168679e+00	3.194030e+00	3.230161e+00	3.272672e+00	3.318104e+00	3.367492e+00	3.426997e+00	3.383859e+00	
SCALARS Pressure float 1
LOOKUP_TABLE default
1.290549e+00	1.264206e+00	1.248338e+00	1.238436e+00	1.231531e+00	1.224775e+00	1.214691e+00	1.198776e+00	1.175264e+00	1.144282e+00	1.107708e+00	1.069460e+00	1.035762e+00	1.012140e+00	1.000148e+00	9.972105e-01	9.988438e-01	1.000982e+00	1.001114e+00	9.983947e-01	9.931292e-01	9.861181e-01	9.782018e-01	9.700482e-01	9.620521e-01	9.543660e-01	9.469776e-01	9.398147e-01	9.327927e-01	9.258637e-01	9.189983e-01	9.121438e-01	9.052528e-01	8.983473e-01	8.914975e-01	8.847693e-01	8.781833e-01	8.717513e-01	8.654855e-01	8.594032e-01	8.535106e-01	8.478112e-01	8.422913e-01	8.369616e-01	8.318527e-01	8.270202e-01	8.224586e-01	8.180682e-01	8.136664e-01	8.092280e-01	8.050390e-01	8.015580e-01	7.989417e-01	7.967882e-01	7.942037e-01	7.901841e-01	7.840879e-01	7.761287e-01	7.675080e-01	7.598696e-01	7.543447e-01	7.511648e-01	7.499454e-01	7.501317e-01	7.513085e-01	7.532386e-01	7.558449e-01	7.590367e-01	7.626903e-01	7.666742e-01	7.710039e-01	7.759070e-01	7.817008e-01	7.884912e-01	7.961685e-01	8.045712e-01	8.137595e-01	8.239778e-01	8.353490e-01	8.479392e-01	8.618821e-01	8.772958e-01	8.943936e-01	9.133752e-01	9.345391e-01	9.583219e-01	9.851098e-01	1.015440e+00	1.050077e+00	1.089616e+00	1.134889e+00	1.186694e+00	1.245068e+00	1.309377e+00	1.377182e+00	1.443417e+00	1.495270e+00	1.523658e+00	1.507271e+00	1.462210e+00	1.420643e+00	1.321075e+00	1.149914e+00	1.012971e+00	9.079264e-01	8.317428e-01	7.800298e-01	7.460658e-01	7.233648e-01	7.080880e-01	6.978474e-01	6.911012e-01	6.869953e-01	6.845585e-01	6.832974e-01	6.831702e-01	6.840421e-01	6.856074e-01	6.874274e-01	6.890934e-01	6.906168e-01	6.924067e-01	6.948150e-01	6.976777e-01	7.004608e-01	7.028645e-01	7.049966e-01	7.070564e-01	7.091696e-01	7.114346e-01	7.139157e-01	7.165992e-01	7.193870e-01	7.221559e-01	7.248436e-01	7.274219e-01	7.298739e-01	7.321516e-01	7.342630e-01	7.363564e-01	7.386989e-01	7.415053e-01	7.448386e-01	7.486549e-01	7.529606e-01	7.578380e-01	7.633361e-01	7.694064e-01	7.758434e-01	7.823586e-01	7.886862e-01	7.948930e-01	8.013802e-01	8.086174e-01	8.167023e-01	8.253358e-01	8.342105e-01	8.433398e-01	8.529384e-01	8.630833e-01	8.737054e-01	8.846949e-01	8.959845e-01	9.075605e-01	9.193856e-01	9.314426e-01	9.436675e-01	9.560251e-01	9.684400e-01	9.808847e-01	9.932536e-01	1.005442e+00	1.017342e+00	1.028836e+00	1.039854e+00	1.050361e+00	1.060427e+00	1.070303e+00	1.080378e+00	1.091202e+00	1.103225e+00	1.116575e+00	1.130696e+00	1.144300e+00	1.155523e+00	1.162390e+00	1.163331e+00	1.157881e+00	1.147239e+00	1.134595e+00	1.124448e+00	1.121062e+00	1.127017e+00	1.141997e+00	1.163404e+00	1.188658e+00	1.216115e+00	1.246309e+00	1.281864e+00	1.279255e+00	
SCALARS Temperature float 1
LOOKUP_TABLE default
1.075611e+00	1.069907e+00	1.065882e+00	1.063272e+00	1.061512e+00	1.059768e+00	1.057341e+00	1.053499e+00	1.047735e+00	1.039914e+00	1.030355e+00	1.020026e+00	1.010603e+00	1.003748e+00	1.000161e+00	9.992801e-01	9.998054e-01	1.000501e+00	1.000606e+00	9.998747e-01	9.983845e-01	9.963662e-01	9.940670e-01	9.916822e-01	9.893325e-01	9.870636e-01	9.848747e-01	9.827406e-01	9.806410e-01	9.785590e-01	9.764804e-01	9.743951e-01	9.722874e-01	9.701633e-01	9.680446e-01	9.659527e-01	9.638912e-01	9.618697e-01	9.598909e-01	9.579579e-01	9.560795e-01	9.542500e-01	9.524740e-01	9.507475e-01	9.490907e-01	9.475131e-01	9.460219e-01	9.445737e-01	9.431190e-01	9.416386e-01	9.402440e-01	9.390852e-01	9.382253e-01	9.375174e-01	9.366527e-01	9.352725e-01	9.331575e-01	9.303745e-01	9.273614e-01	9.246938e-01	9.227700e-01	9.216784e-01	9.212703e-01	9.213587e-01	9.217840e-01	9.224782e-01	9.234001e-01	9.245297e-01	9.258102e-01	9.272055e-01	9.287106e-01	9.304136e-01	9.324133e-01	9.347504e-01	9.373677e-01	9.402254e-01	9.433122e-01	9.467033e-01	9.504597e-01	9.545931e-01	9.591089e-01	9.640471e-01	9.694477e-01	9.753621e-01	9.818613e-01	9.890553e-01	9.970301e-01	1.005869e+00	1.015720e+00	1.026690e+00	1.038857e+00	1.052275e+00	1.066857e+00	1.082233e+00	1.097745e+00	1.111996e+00	1.122791e+00	1.127884e+00	1.125220e+00	1.117668e+00	1.106199e+00	1.081881e+00	1.045903e+00	1.010984e+00	9.805133e-01	9.557348e-01	9.372119e-01	9.241639e-01	9.151205e-01	9.088983e-01	9.046484e-01	9.018565e-01	9.001212e-01	8.990644e-01	8.984897e-01	8.983501e-01	8.986204e-01	8.991774e-01	8.998226e-01	9.004061e-01	9.009234e-01	9.015274e-01	9.023716e-01	9.034156e-01	9.044332e-01	9.053046e-01	9.060630e-01	9.067947e-01	9.075414e-01	9.083469e-01	9.092283e-01	9.101861e-01	9.111786e-01	9.121656e-01	9.131185e-01	9.140316e-01	9.148953e-01	9.156947e-01	9.164299e-01	9.171549e-01	9.179596e-01	9.189320e-01	9.200907e-01	9.214191e-01	9.229155e-01	9.246054e-01	9.265083e-01	9.285970e-01	9.308127e-01	9.330383e-01	9.351845e-01	9.372663e-01	9.394258e-01	9.418215e-01	9.444901e-01	9.473278e-01	9.502185e-01	9.531759e-01	9.562579e-01	9.594927e-01	9.628502e-01	9.662964e-01	9.698051e-01	9.733710e-01	9.769812e-01	9.806284e-01	9.842947e-01	9.879604e-01	9.916231e-01	9.952522e-01	9.988262e-01	1.002323e+00	1.005703e+00	1.008939e+00	1.012013e+00	1.014921e+00	1.017691e+00	1.020392e+00	1.023143e+00	1.026085e+00	1.029344e+00	1.032931e+00	1.036684e+00	1.040237e+00	1.043095e+00	1.044762e+00	1.044881e+00	1.043379e+00	1.040587e+00	1.037318e+00	1.034759e+00	1.034039e+00	1.035801e+00	1.039807e+00	1.045425e+00	1.051895e+00	1.058892e+00	1.066464e+00	1.074745e+00	1.083081e+00	
SCALARS Pressure_Coefficient float 1
LOOKUP_TABLE default
6.485465e-01	5.897457e-01	5.543267e-01	5.322223e-01	5.168103e-01	5.017309e-01	4.792211e-01	4.436957e-01	3.912134e-01	3.220590e-01	2.404187e-01	1.550445e-01	7.982617e-02	2.709745e-02	3.306096e-04	-6.226641e-03	-2.580836e-03	2.191564e-03	2.487715e-03	-3.583344e-03	-1.533666e-02	-3.098633e-02	-4.865669e-02	-6.685677e-02	-8.470521e-02	-1.018616e-01	-1.183535e-01	-1.343421e-01	-1.500163e-01	-1.654827e-01	-1.808073e-01	-1.961075e-01	-2.114892e-01	-2.269033e-01	-2.421931e-01	-2.572115e-01	-2.719123e-01	-2.862695e-01	-3.002555e-01	-3.138321e-01	-3.269854e-01	-3.397071e-01	-3.520284e-01	-3.639251e-01	-3.753288e-01	-3.861155e-01	-3.962977e-01	-4.060977e-01	-4.159232e-01	-4.258304e-01	-4.351808e-01	-4.429510e-01	-4.487908e-01	-4.535977e-01	-4.593668e-01	-4.683392e-01	-4.819466e-01	-4.997128e-01	-5.189553e-01	-5.360055e-01	-5.483376e-01	-5.554357e-01	-5.581577e-01	-5.577417e-01	-5.551150e-01	-5.508067e-01	-5.449890e-01	-5.378645e-01	-5.297092e-01	-5.208165e-01	-5.111519e-01	-5.002076e-01	-4.872751e-01	-4.721179e-01	-4.549810e-01	-4.362250e-01	-4.157154e-01	-3.929067e-01	-3.675246e-01	-3.394215e-01	-3.082988e-01	-2.738933e-01	-2.357285e-01	-1.933589e-01	-1.461180e-01	-9.303151e-02	-3.323696e-02	3.446488e-02	1.117798e-01	2.000362e-01	3.010905e-01	4.167277e-01	5.470275e-01	6.905734e-01	8.419240e-01	9.897703e-01	1.105513e+00	1.168879e+00	1.132302e+00	1.031719e+00	9.389342e-01	7.166852e-01	3.346297e-01	2.895337e-02	-2.055213e-01	-3.755740e-01	-4.910050e-01	-5.668174e-01	-6.174892e-01	-6.515892e-01	-6.744477e-01	-6.895062e-01	-6.986711e-01	-7.041105e-01	-7.069254e-01	-7.072093e-01	-7.052631e-01	-7.017691e-01	-6.977067e-01	-6.939880e-01	-6.905874e-01	-6.865922e-01	-6.812164e-01	-6.748265e-01	-6.686143e-01	-6.632488e-01	-6.584897e-01	-6.538921e-01	-6.491750e-01	-6.441191e-01	-6.385811e-01	-6.325910e-01	-6.263684e-01	-6.201878e-01	-6.141884e-01	-6.084331e-01	-6.029601e-01	-5.978759e-01	-5.931630e-01	-5.884902e-01	-5.832614e-01	-5.769970e-01	-5.695566e-01	-5.610381e-01	-5.514273e-01	-5.405402e-01	-5.282676e-01	-5.147178e-01	-5.003496e-01	-4.858067e-01	-4.716826e-01	-4.578281e-01	-4.433478e-01	-4.271933e-01	-4.091466e-01	-3.898755e-01	-3.700658e-01	-3.496880e-01	-3.282625e-01	-3.056176e-01	-2.819076e-01	-2.573774e-01	-2.321774e-01	-2.063381e-01	-1.799428e-01	-1.530298e-01	-1.257422e-01	-9.815817e-02	-7.044634e-02	-4.266815e-02	-1.505883e-02	1.214766e-02	3.871007e-02	6.436702e-02	8.895941e-02	1.124125e-01	1.348827e-01	1.569271e-01	1.794151e-01	2.035760e-01	2.304129e-01	2.602110e-01	2.917319e-01	3.220979e-01	3.471505e-01	3.624784e-01	3.645778e-01	3.524137e-01	3.286587e-01	3.004352e-01	2.777855e-01	2.702284e-01	2.835203e-01	3.169584e-01	3.647407e-01	4.211125e-01	4.823998e-01	5.497960e-01	6.291606e-01	6.233380e-01	
SCALARS Mach float 1
LOOKUP_TABLE default
4.935185e-01	5.210707e-01	5.398366e-01	5.517329e-01	5.596475e-01	5.674065e-01	5.780714e-01	5.946584e-01	6.189252e-01	6.508129e-01	6.883848e-01	7.275290e-01	7.621407e-01	7.867488e-01	7.994516e-01	8.025547e-01	8.007052e-01	7.982537e-01	7.978818e-01	8.004610e-01	8.057029e-01	8.127731e-01	8.207878e-01	8.290579e-01	8.371648e-01	8.449548e-01	8.524366e-01	8.597000e-01	8.668171e-01	8.738471e-01	8.808388e-01	8.878278e-01	8.948662e-01	9.019346e-01	9.089607e-01	9.158752e-01	9.226672e-01	9.293074e-01	9.357883e-01	9.421018e-01	9.482211e-01	9.541662e-01	9.599238e-01	9.655086e-01	9.708567e-01	9.759391e-01	9.807343e-01	9.853832e-01	9.900456e-01	9.947823e-01	9.992375e-01	1.002935e+00	1.005675e+00	1.007929e+00	1.010680e+00	1.015067e+00	1.021777e+00	1.030586e+00	1.040098e+00	1.048499e+00	1.054545e+00	1.057972e+00	1.059252e+00	1.058975e+00	1.057641e+00	1.055461e+00	1.052566e+00	1.049015e+00	1.044986e+00	1.040590e+00	1.035842e+00	1.030463e+00	1.024135e+00	1.016725e+00	1.008406e+00	9.992969e-01	9.894267e-01	9.785442e-01	9.664383e-01	9.530525e-01	9.383446e-01	9.221543e-01	9.043105e-01	8.845901e-01	8.626841e-01	8.381185e-01	8.104511e-01	7.791811e-01	7.434663e-01	7.024324e-01	6.550373e-01	5.998722e-01	5.353384e-01	4.598666e-01	3.712568e-01	2.683054e-01	1.523981e-01	2.331178e-02	1.112587e-01	2.150575e-01	3.139537e-01	4.617070e-01	6.264986e-01	7.607593e-01	8.672490e-01	9.493423e-01	1.008901e+00	1.050165e+00	1.078497e+00	1.097884e+00	1.111081e+00	1.119733e+00	1.125103e+00	1.128371e+00	1.130148e+00	1.130580e+00	1.129744e+00	1.128022e+00	1.126027e+00	1.124222e+00	1.122621e+00	1.120751e+00	1.118137e+00	1.114903e+00	1.111748e+00	1.109045e+00	1.106692e+00	1.104420e+00	1.102101e+00	1.099598e+00	1.096858e+00	1.093878e+00	1.090788e+00	1.087714e+00	1.084744e+00	1.081896e+00	1.079200e+00	1.076704e+00	1.074407e+00	1.072141e+00	1.069624e+00	1.066580e+00	1.062951e+00	1.058786e+00	1.054088e+00	1.048777e+00	1.042787e+00	1.036201e+00	1.029201e+00	1.022155e+00	1.015347e+00	1.008729e+00	1.001849e+00	9.941975e-01	9.856515e-01	9.765353e-01	9.672175e-01	9.576501e-01	9.476405e-01	9.370902e-01	9.260891e-01	9.147408e-01	9.031242e-01	8.912508e-01	8.791566e-01	8.668596e-01	8.544138e-01	8.418800e-01	8.292624e-01	8.166616e-01	8.041511e-01	7.918063e-01	7.797739e-01	7.681559e-01	7.570220e-01	7.464006e-01	7.361980e-01	7.261675e-01	7.158611e-01	7.047352e-01	6.922783e-01	6.783951e-01	6.636652e-01	6.495145e-01	6.379776e-01	6.311787e-01	6.306935e-01	6.368250e-01	6.481112e-01	6.611573e-01	6.712488e-01	6.740695e-01	6.671505e-01	6.512409e-01	6.284609e-01	6.014842e-01	5.712716e-01	5.371522e-01	4.977784e-01	4.554091e-01	