# vtk DataFile Version 3.0
vtk output
ASCII
DATASET UNSTRUCTURED_GRID
POINTS 5233 float
9.997500e-01	-3.632897e-05	0.0	9.990000e-01	-1.452538e-04	0.0	9.977600e-01	-3.251112e-04	0.0	9.960200e-01	-5.769984e-04	0.0	9.937800e-01	-9.004365e-04	0.0	9.910500e-01	-1.293364e-03	0.0	9.878400e-01	-1.753610e-03	0.0	9.841300e-01	-2.283177e-03	0.0	9.799500e-01	-2.876826e-03	0.0	9.752800e-01	-3.536324e-03	0.0	9.701500e-01	-4.256269e-03	0.0	9.645400e-01	-5.038225e-03	0.0	9.584700e-01	-5.878077e-03	0.0	9.519400e-01	-6.774429e-03	0.0	9.449600e-01	-7.724467e-03	0.0	9.375400e-01	-8.725349e-03	0.0	9.296900e-01	-9.774221e-03	0.0	9.214000e-01	-1.087086e-02	0.0	9.127000e-01	-1.200973e-02	0.0	9.035800e-01	-1.319056e-02	0.0	8.940600e-01	-1.440916e-02	0.0	8.841500e-01	-1.566269e-02	0.0	8.738500e-01	-1.694956e-02	0.0	8.631800e-01	-1.826569e-02	0.0	8.521600e-01	-1.960709e-02	0.0	8.407700e-01	-2.097463e-02	0.0	8.290500e-01	-2.236196e-02	0.0	8.170100e-01	-2.376642e-02	0.0	8.046400e-01	-2.518764e-02	0.0	7.919700e-01	-2.662063e-02	0.0	7.790100e-01	-2.806277e-02	0.0	7.657800e-01	-2.951034e-02	0.0	7.522800e-01	-3.096181e-02	0.0	7.385200e-01	-3.241453e-02	0.0	7.245300e-01	-3.386377e-02	0.0	7.103200e-01	-3.530689e-02	0.0	6.958900e-01	-3.674225e-02	0.0	6.812700e-01	-3.816515e-02	0.0	6.664700e-01	-3.957289e-02	0.0	6.515000e-01	-4.096270e-02	0.0	6.363800e-01	-4.233084e-02	0.0	6.211300e-01	-4.367359e-02	0.0	6.057600e-01	-4.498807e-02	0.0	5.902800e-01	-4.627133e-02	0.0	5.747100e-01	-4.751951e-02	0.0	5.590600e-01	-4.872956e-02	0.0	5.433600e-01	-4.989684e-02	0.0	5.276100e-01	-5.101898e-02	0.0	5.118400e-01	-5.209138e-02	0.0	4.960500e-01	-5.311154e-02	0.0	4.802700e-01	-5.407492e-02	0.0	4.645100e-01	-5.497836e-02	0.0	4.487800e-01	-5.581860e-02	0.0	4.331100e-01	-5.659142e-02	0.0	4.175000e-01	-5.729417e-02	0.0	4.019700e-01	-5.792324e-02	0.0	3.865400e-01	-5.847521e-02	0.0	3.712300e-01	-5.894684e-02	0.0	3.560400e-01	-5.933562e-02	0.0	3.409900e-01	-5.963848e-02	0.0	3.261100e-01	-5.985254e-02	0.0	3.114000e-01	-5.997565e-02	0.0	2.968700e-01	-6.000550e-02	0.0	2.825500e-01	-5.994005e-02	0.0	2.684500e-01	-5.977766e-02	0.0	2.545700e-01	-5.951658e-02	0.0	2.409400e-01	-5.915586e-02	0.0	2.275700e-01	-5.869457e-02	0.0	2.144700e-01	-5.813197e-02	0.0	2.016600e-01	-5.746811e-02	0.0	1.891400e-01	-5.670228e-02	0.0	1.769300e-01	-5.583514e-02	0.0	1.650400e-01	-5.486709e-02	0.0	1.534900e-01	-5.379978e-02	0.0	1.422900e-01	-5.263443e-02	0.0	1.314400e-01	-5.137134e-02	0.0	1.209500e-01	-5.001187e-02	0.0	1.108500e-01	-4.856067e-02	0.0	1.011300e-01	-4.701715e-02	0.0	9.181000e-02	-4.538527e-02	0.0	8.290000e-02	-4.366791e-02	0.0	7.440000e-02	-4.186608e-02	0.0	6.633000e-02	-3.998514e-02	0.0	5.869000e-02	-3.802636e-02	0.0	5.149000e-02	-3.599338e-02	0.0	4.474000e-02	-3.389028e-02	0.0	3.844000e-02	-3.171811e-02	0.0	3.260000e-02	-2.948109e-02	0.0	2.723000e-02	-2.718420e-02	0.0	2.232000e-02	-2.482329e-02	0.0	1.790000e-02	-2.241365e-02	0.0	1.395000e-02	-1.994492e-02	0.0	1.049000e-02	-1.742916e-02	0.0	7.520000e-03	-1.486756e-02	0.0	5.040000e-03	-1.226032e-02	0.0	3.050000e-03	-9.605565e-03	0.0	1.560000e-03	-6.917518e-03	0.0	5.600000e-04	-4.173160e-03	0.0	6.000000e-05	-1.375330e-03	0.0	0.000000e+00	0.000000e+00	0.0	6.000000e-05	1.328970e-03	0.0	5.600000e-04	3.838327e-03	0.0	1.560000e-03	6.110150e-03	0.0	3.050000e-03	8.195660e-03	0.0	5.040000e-03	1.015020e-02	0.0	7.520000e-03	1.199216e-02	0.0	1.049000e-02	1.374650e-02	0.0	1.395000e-02	1.543190e-02	0.0	1.790000e-02	1.706249e-02	0.0	2.232000e-02	1.864205e-02	0.0	2.723000e-02	2.018632e-02	0.0	3.260000e-02	2.169189e-02	0.0	3.844000e-02	2.316614e-02	0.0	4.474000e-02	2.460891e-02	0.0	5.149000e-02	2.601928e-02	0.0	5.869000e-02	2.739754e-02	0.0	6.633000e-02	2.874127e-02	0.0	7.440000e-02	3.004786e-02	0.0	8.290000e-02	3.131610e-02	0.0	9.181000e-02	3.254178e-02	0.0	1.011300e-01	3.372377e-02	0.0	1.108500e-01	3.485970e-02	0.0	1.209500e-01	3.594649e-02	0.0	1.314400e-01	3.698463e-02	0.0	1.422900e-01	3.797085e-02	0.0	1.534900e-01	3.890448e-02	0.0	1.650400e-01	3.978591e-02	0.0	1.769300e-01	4.061491e-02	0.0	1.891400e-01	4.139097e-02	0.0	2.016600e-01	4.211463e-02	0.0	2.144700e-01	4.278616e-02	0.0	2.275700e-01	4.340706e-02	0.0	2.409400e-01	4.397801e-02	0.0	2.545700e-01	4.450025e-02	0.0	2.684500e-01	4.497505e-02	0.0	2.825500e-01	4.540306e-02	0.0	2.968700e-01	4.578582e-02	0.0	3.114000e-01	4.612429e-02	0.0	3.261100e-01	4.641875e-02	0.0	3.409900e-01	4.666963e-02	0.0	3.560400e-01	4.687699e-02	0.0	3.712300e-01	4.703987e-02	0.0	3.865400e-01	4.715692e-02	0.0	4.019700e-01	4.722624e-02	0.0	4.175000e-01	4.724496e-02	0.0	4.331100e-01	4.720953e-02	0.0	4.487800e-01	4.711570e-02	0.0	4.645100e-01	4.695836e-02	0.0	4.802700e-01	4.673206e-02	0.0	4.960500e-01	4.643070e-02	0.0	5.118400e-01	4.604782e-02	0.0	5.276100e-01	4.557749e-02	0.0	5.433600e-01	4.501319e-02	0.0	5.590600e-01	4.434995e-02	0.0	5.747100e-01	4.358253e-02	0.0	5.902800e-01	4.270830e-02	0.0	6.057600e-01	4.172533e-02	0.0	6.211300e-01	4.063421e-02	0.0	6.363800e-01	3.943711e-02	0.0	6.515000e-01	3.813851e-02	0.0	6.664700e-01	3.674629e-02	0.0	6.812700e-01	3.527108e-02	0.0	6.958900e-01	3.372505e-02	0.0	7.103200e-01	3.212238e-02	0.0	7.245300e-01	3.048120e-02	0.0	7.385200e-01	2.881730e-02	0.0	7.522800e-01	2.714779e-02	0.0	7.657800e-01	2.549167e-02	0.0	7.790100e-01	2.386418e-02	0.0	7.919700e-01	2.227733e-02	0.0	8.046400e-01	2.074314e-02	0.0	8.170100e-01	1.926981e-02	0.0	8.290500e-01	1.786545e-02	0.0	8.407700e-01	1.653147e-02	0.0	8.521600e-01	1.527020e-02	0.0	8.631800e-01	1.408623e-02	0.0	8.738500e-01	1.297692e-02	0.0	8.841500e-01	1.194331e-02	0.0	8.940600e-01	1.098513e-02	0.0	9.035800e-01	1.009839e-02	0.0	9.127000e-01	9.277748e-03	0.0	9.214000e-01	8.516046e-03	0.0	9.296900e-01	7.801167e-03	0.0	9.375400e-01	7.123079e-03	0.0	9.449600e-01	6.468280e-03	0.0	9.519400e-01	5.826086e-03	0.0	9.584700e-01	5.186471e-03	0.0	9.645400e-01	4.535548e-03	0.0	9.701500e-01	3.843021e-03	0.0	9.752800e-01	3.051934e-03	0.0	9.799500e-01	2.081711e-03	0.0	9.841300e-01	9.405008e-04	0.0	9.878400e-01	-1.307592e-04	0.0	9.910500e-01	-6.742452e-04	0.0	9.937800e-01	-5.153057e-04	0.0	9.960200e-01	-6.821301e-05	0.0	9.977600e-01	1.602412e-04	0.0	9.990000e-01	1.272644e-04	0.0	9.997500e-01	3.601949e-05	0.0	1.000000e+00	0.000000e+00	0.0	1.984229e+01	2.506660e+00	0.0	1.937166e+01	4.973800e+00	0.0	1.859553e+01	7.362490e+00	0.0	1.752613e+01	9.635070e+00	0.0	1.618034e+01	1.175571e+01	0.0	1.457937e+01	1.369094e+01	0.0	1.274848e+01	1.541027e+01	0.0	1.071654e+01	1.688656e+01	0.0	8.515590e+00	1.809654e+01	0.0	6.180340e+00	1.902113e+01	0.0	3.747630e+00	1.964575e+01	0.0	1.255810e+00	1.996053e+01	0.0	-1.255810e+00	1.996053e+01	0.0	-3.747630e+00	1.964574e+01	0.0	-6.180340e+00	1.902113e+01	0.0	-8.515590e+00	1.809654e+01	0.0	-1.071654e+01	1.688656e+01	0.0	-1.274848e+01	1.541026e+01	0.0	-1.457937e+01	1.369094e+01	0.0	-1.618034e+01	1.175570e+01	0.0	-1.752613e+01	9.635070e+00	0.0	-1.859553e+01	7.362490e+00	0.0	-1.937166e+01	4.973800e+00	0.0	-1.984229e+01	2.506660e+00	0.0	-2.000000e+01	0.000000e+00	0.0	-1.984229e+01	-2.506670e+00	0.0	-1.937166e+01	-4.973800e+00	0.0	-1.859553e+01	-7.362490e+00	0.0	-1.752613e+01	-9.635080e+00	0.0	-1.618034e+01	-1.175571e+01	0.0	-1.457937e+01	-1.369094e+01	0.0	-1.274848e+01	-1.541027e+01	0.0	-1.071653e+01	-1.688656e+01	0.0	-8.515580e+00	-1.809654e+01	0.0	-6.180340e+00	-1.902113e+01	0.0	-3.747620e+00	-1.964575e+01	0.0	-1.255810e+00	-1.996053e+01	0.0	1.255810e+00	-1.996053e+01	0.0	3.747630e+00	-1.964574e+01	0.0	6.180340e+00	-1.902113e+01	0.0	8.515590e+00	-1.809654e+01	0.0	1.071654e+01	-1.688656e+01	0.0	1.274848e+01	-1.541026e+01	0.0	1.457937e+01	-1.369094e+01	0.0	1.618034e+01	-1.175570e+01	0.0	1.752614e+01	-9.635070e+00	0.0	1.859553e+01	-7.362490e+00	0.0	1.937166e+01	-4.973790e+00	0.0	1.984229e+01	-2.506660e+00	0.0	2.000000e+01	0.000000e+00	0.0	6.069419e-02	-4.592758e-02	0.0	6.602614e-01	-5.397943e-02	0.0	4.255919e-01	6.148350e-02	0.0	6.898260e-01	4.772257e-02	0.0	3.793018e-01	-7.272556e-02	0.0	9.994590e-01	-6.959693e-04	0.0	9.985506e-01	-1.279423e-03	0.0	7.737340e-01	-4.090920e-02	0.0	6.898941e-01	-5.084816e-02	0.0	-1.173084e-03	5.760119e-03	0.0	7.467369e-01	-4.428955e-02	0.0	5.833876e-01	5.717150e-02	0.0	9.927915e-01	-3.540624e-03	0.0	9.898890e-01	-4.415092e-03	0.0	5.989689e-01	5.615272e-02	0.0	7.187593e-01	-4.760661e-02	0.0	-1.493127e-03	6.576678e-04	0.0	9.864933e-01	-5.361563e-03	0.0	9.826143e-01	-6.368003e-03	0.0	-1.326490e-03	-6.432584e-03	0.0	6.451968e-01	-5.549627e-02	0.0	8.243364e-01	-3.409820e-02	0.0	7.996283e-01	-3.751167e-02	0.0	3.485338e-01	6.059598e-02	0.0	8.477284e-01	-3.071646e-02	0.0	2.474147e-01	5.680392e-02	0.0	8.697429e-01	-2.737751e-02	0.0	1.043135e-02	1.780134e-02	0.0	8.902732e-01	-2.411158e-02	0.0	7.697266e-02	-5.048717e-02	0.0	9.092457e-01	-2.094488e-02	0.0	-1.798721e-03	-3.176653e-03	0.0	9.421951e-01	-1.500508e-02	0.0	9.265788e-01	-1.790014e-02	0.0	1.791856e-02	-2.757759e-02	0.0	4.259351e-01	-7.122749e-02	0.0	8.589170e-01	-2.903745e-02	0.0	9.560507e-01	-1.228719e-02	0.0	9.782462e-01	-7.450566e-03	0.0	9.680884e-01	-9.758814e-03	0.0	1.582516e-01	-6.487932e-02	0.0	8.999612e-01	-2.251461e-02	0.0	7.603682e-01	-4.260464e-02	0.0	9.971317e-01	-2.008272e-03	0.0	5.991917e-01	-5.980915e-02	0.0	4.416402e-01	-7.055083e-02	0.0	5.365055e-01	-6.487328e-02	0.0	4.732137e-01	-6.895299e-02	0.0	5.048719e-01	-6.705178e-02	0.0	4.890315e-01	-6.803811e-02	0.0	1.249153e-01	-6.024556e-02	0.0	2.780809e-02	-3.317514e-02	0.0	3.947537e-01	-7.231877e-02	0.0	4.617418e-02	-4.105274e-02	0.0	4.102995e-01	-7.181908e-02	0.0	3.188558e-01	-7.337215e-02	0.0	3.487749e-01	-7.325446e-02	0.0	3.346849e-02	-3.585923e-02	0.0	2.896266e-01	-7.307137e-02	0.0	9.346055e-01	-1.643073e-02	0.0	1.467842e-01	-6.343849e-02	0.0	1.946647e-01	-6.852810e-02	0.0	8.574776e-02	-5.263365e-02	0.0	1.045438e-01	-5.664647e-02	0.0	5.679901e-01	-6.245614e-02	0.0	1.700640e-01	-6.621111e-02	0.0	6.146536e-01	-5.841140e-02	0.0	8.802021e-01	-2.573492e-02	0.0	2.263549e-02	-3.041275e-02	0.0	9.952112e-01	-2.750042e-03	0.0	6.715067e-03	-1.879520e-02	0.0	1.846113e-02	2.200860e-02	0.0	9.181207e-01	-1.940542e-02	0.0	9.4
[...]
POINT_DATA 5233

SCALARS Conservative_1 float 1
LOOKUP_TABLE default
1.169292e+00	1.146812e+00	1.132925e+00	1.121595e+00	1.111931e+00	1.103548e+00	1.095842e+00	1.088775e+00	1.082152e+00	1.075901e+00	1.069947e+00	1.064243e+00	1.058748e+00	1.053441e+00	1.048297e+00	1.043304e+00	1.038439e+00	1.033687e+00	1.029044e+00	1.024489e+00	1.020029e+00	1.015644e+00	1.011330e+00	1.007074e+00	1.002878e+00	9.987093e-01	9.945835e-01	9.904702e-01	9.863980e-01	9.823417e-01	9.783240e-01	9.743270e-01	9.702474e-01	9.661402e-01	9.619599e-01	9.577387e-01	9.536034e-01	9.493765e-01	9.451865e-01	9.408931e-01	9.367688e-01	9.328899e-01	9.288371e-01	9.246515e-01	9.188259e-01	9.124283e-01	9.065076e-01	9.015567e-01	8.987177e-01	8.950410e-01	8.894158e-01	8.838405e-01	8.820662e-01	8.861982e-01	8.900434e-01	8.791070e-01	8.424538e-01	7.970569e-01	7.715338e-01	7.670554e-01	7.707874e-01	7.750969e-01	7.783209e-01	7.813028e-01	7.847559e-01	7.887790e-01	7.933514e-01	7.983375e-01	8.036122e-01	8.090902e-01	8.148258e-01	8.210333e-01	8.279579e-01	8.356331e-01	8.439194e-01	8.526359e-01	8.618336e-01	8.716972e-01	8.822799e-01	8.936111e-01	9.057951e-01	9.188765e-01	9.329898e-01	9.482385e-01	9.647882e-01	9.828881e-01	1.002736e+00	1.024669e+00	1.049108e+00	1.076323e+00	1.106763e+00	1.140881e+00	1.178459e+00	1.219162e+00	1.261323e+00	1.302181e+00	1.333528e+00	1.350723e+00	1.338982e+00	1.308523e+00	1.286104e+00	1.223269e+00	1.098114e+00	9.944164e-01	9.130728e-01	8.552001e-01	8.185001e-01	7.970625e-01	7.848444e-01	7.781451e-01	7.746812e-01	7.729503e-01	7.722048e-01	7.716182e-01	7.708298e-01	7.699002e-01	7.687932e-01	7.673761e-01	7.655184e-01	7.631341e-01	7.604011e-01	7.577062e-01	7.552762e-01	7.530315e-01	7.507577e-01	7.484272e-01	7.462156e-01	7.441767e-01	7.422794e-01	7.405515e-01	7.391597e-01	7.382476e-01	7.378222e-01	7.377770e-01	7.379977e-01	7.383927e-01	7.389868e-01	7.396967e-01	7.404549e-01	7.410967e-01	7.415044e-01	7.420343e-01	7.427983e-01	7.425241e-01	7.382887e-01	7.294776e-01	7.265302e-01	7.590114e-01	8.358752e-01	8.934911e-01	9.014406e-01	8.885324e-01	8.750886e-01	8.677955e-01	8.673318e-01	8.690919e-01	8.729237e-01	8.780619e-01	8.854408e-01	8.971555e-01	9.103655e-01	9.244857e-01	9.367135e-01	9.467609e-01	9.575245e-01	9.685144e-01	9.791845e-01	9.891843e-01	9.981668e-01	1.006318e+00	1.013716e+00	1.020340e+00	1.026214e+00	1.031396e+00	1.035991e+00	1.040023e+00	1.043501e+00	1.046402e+00	1.048658e+00	1.050228e+00	1.051090e+00	1.051323e+00	1.051073e+00	1.050582e+00	1.050080e+00	1.049689e+00	1.049389e+00	1.049362e+00	1.051382e+00	1.060814e+00	1.088461e+00	1.139916e+00	1.195125e+00	1.229512e+00	1.221668e+00	1.158085e+00	1.080273e+00	1.067750e+00	1.126188e+00	1.141488e+00	9.999204e-01	9.999173e-01	9.998803e-01	9.998272e-01	9.997732e-01	9.997089e-01	9.996287e-01	9.995275e-01	9.994161e-01	9.993308e-01	9.992761e-01	9.992995e-01	9.993886e-01	9.995736e-01	9.997339e-01	9.998683e-01	9.999467e-01	9.999982e-01	1.000033e+00	1.000051e+00	1.000062e+00	1.000068e+00	1.000074e+00	1.000079e+00	1.000083e+00	1.000088e+00	1.000097e+00	1.000108e+00	1.000123e+00	1.000146e+00	1.000171e+00	1.000212e+00	1.000252e+00	1.000319e+00	1.000380e+00	1.000452e+00	1.000526e+00	1.000557e+00	1.000569e+00	1.000536e+00	1.000500e+00	1.000437e+00	1.000376e+00	1.000312e+00	1.000250e+00	1.000183e+00	1.000136e+00	1.000102e+00	1.000019e+00	9.999227e-01	9.552856e-01	9.446228e-01	7.383784e-01	9.348831e-01	8.189555e-01	1.149957e+00	1.138813e+00	9.775980e-01	9.529731e-01	1.216305e+00	9.695480e-01	8.729179e-01	1.107465e+00	1.099594e+00	8.765713e-01	9.612528e-01	1.307549e+00	1.092334e+00	1.085615e+00	1.338447e+00	9.405076e-01	9.936335e-01	9.855467e-01	7.442756e-01	1.001821e+00	7.417685e-01	1.010161e+00	8.680390e-01	1.018716e+00	9.253589e-01	1.027570e+00	1.344102e+00	1.046419e+00	1.036781e+00	1.113263e+00	8.943580e-01	1.005976e+00	1.056601e+00	1.079257e+00	1.067475e+00	8.404527e-01	1.023104e+00	9.735931e-01	1.126291e+00	9.291840e-01	8.869226e-01	9.056238e-01	8.887690e-01	8.997668e-01	8.948743e-01	8.672698e-01	1.056892e+00	8.681113e-01	9.904516e-01	8.941273e-01	7.785695e-01	7.712603e-01	1.032583e+00	7.853381e-01	1.041542e+00	8.488847e-01	8.195668e-01	9.120207e-01	8.880149e-01	9.177107e-01	8.327442e-01	9.328523e-01	1.014414e+00	1.083712e+00	1.116304e+00	1.217741e+00	8.190702e-01	1.032126e+00	1.051435e+00	1.073230e+00	1.131029e+00	9.977224e-01	7.974234e-01	9.113702e-01	9.654335e-01	9.815555e-01	8.772664e-01	8.079609e-01	9.239521e-01	9.488543e-01	9.721296e-01	1.255270e+00	1.145642e+00	7.819920e-01	8.258453e-01	1.182394e+00	8.025217e-01	8.996014e-01	7.822371e-01	7.928079e-01	8.846190e-01	9.571346e-01	1.279989e+00	1.320940e+00	8.860532e-01	1.324040e+00	7.987330e-01	7.848492e-01	7.902481e-01	7.646918e-01	7.450212e-01	1.121507e+00	9.030394e-01	7.944093e-01	1.067169e+00	1.054892e+00	1.046397e+00	8.799109e-01	7.296511e-01	7.451747e-01	1.051342e+00	1.049898e+00	7.775187e-01	1.086864e+00	1.053283e+00	1.051908e+00	7.713090e-01	7.824245e-01	7.420270e-01	7.416209e-01	7.511459e-01	7.431556e-01	7.340342e-01	7.460936e-01	7.563628e-01	7.618288e-01	8.867515e-01	7.466271e-01	7.432465e-01	9.077912e-01	8.720927e-01	9.752621e-01	9.549911e-01	1.009696e+00	9.941710e-01	1.032659e+00	1.022497e+00	1.048441e+00	1.040603e+00	1.052397e+00	1.050829e+00	1.058398e+00	1.036889e+00	1.043779e+00	1.016446e+00	1.027874e+00	9.851509e-01	1.002298e+00	9.451243e-01	9.651106e-01	8.962958e-01	9.215210e-01	8.747493e-01	8.812021e-01	7.447278e-01	7.422807e-01	7.536793e-01	7.488075e-01	7.874116e-01	7.591195e-01	8.384462e-01	7.937356e-01	8.136522e-01	9.724541e-01	1.061939e+00	9.895788e-01	7.736532e-01	9.026393e-01	1.047543e+00	8.065986e-01	9.118431e-01	7.746171e-01	7.800497e-01	7.417070e-01	7.678879e-01	1.120609e+00	1.159125e+00	7.425202e-01	1.184694e+00	1.186727e+00	7.438178e-01	7.445693e-01	1.051628e+00	1.167759e+00	1.102713e+00	1.119586e+00	9.366730e-01	1.010524e+00	1.160050e+00	9.121094e-01	1.291093e+00	1.180725e+00	9.397345e-01	8.578531e-01	7.887717e-01	7.916617e-01	1.198387e+00	1.259301e+00	7.938369e-01	9.567083e-01	1.030699e+00	1.207747e+00	8.786009e-01	9.526729e-01	9.809291e-01	1.095529e+00	7.824522e-01	1.005049e+00	9.969020e-01	9.186560e-01	1.318969e+00	8.190646e-01	1.143582e+00	1.059701e+00	8.547138e-01	9.608129e-01	9.444619e-01	8.883280e-01	9.320931e-01	8.497943e-01	1.021880e+00	9.848592e-01	9.488656e-01	8.520095e-01	9.199089e-01	1.029200e+00	7.759760e-01	9.326934e-01	7.595084e-01	1.040968e+00	1.149465e+00	7.473744e-01	9.103099e-01	1.056093e+00	1.043911e+00	1.159709e+00	1.058777e+00	1.105241e+00	7.470629e-01	7.469563e-01	7.481489e-01	7.798266e-01	9.485559e-01	8.252624e-01	9.066927e-01	7.656606e-01	8.035003e-01	1.071106e+00	1.155904e+00	1.046351e+00	8.462568e-01	1.181986e+00	1.127128e+00	1.142058e+00	1.002474e+00	1.130678e+00	1.240595e+00	1.330541e+00	1.314747e+00	1.113936e+00	1.188530e+00	9.619971e-01	1.129134e+00	1.110545e+00	7.460597e-01	9.110235e-01	1.088767e+00	1.013348e+00	8.810935e-01	1.102689e+00	1.332796e+00	8.923263e-01	7.486617e-01	1.000965e+00	7.459063e-01	1.009179e+00	1.017579e+00	9.464952e-01	1.026251e+00	1.035261e+00	1.049526e+00	1.061203e+00	1.054538e+00	1.065045e+00	1.082398e+00	8.734896e-01	9.730310e-01	9.770152e-01	1.119275e+00	8.897816e-01	8.952944e-01	9.002976e-01	1.086611e+00	8.862058e-01	8.966828e-01	7.782753e-01	1.016551e+00	1.039905e+00	1.044655e+00	8.638552e-01	9.061196e-01	9.170836e-01	9.329449e-01	1.070582e+00	1.076354e+00	9.648976e-01	9.689996e-01	8.945008e-01	8.836559e-01	9.232437e-01	9.283607e-01	9.969420e-01	9.788063e-01	1.174898e+00	7.816218e-01	8.051741e-01	8.386769e-01	8.317577e-01	8.131674e-01	8.076074e-01	7.903240e-01	7.868213e-01	8.024736e-01	1.298177e+00	1.272353e+00	8.086010e-01	1.129487e+00	8.967450e-01	9.036258e-01	8.503953e-01	7.701109e-01	1.084755e+00	1.063262e+00	1.051063e+00	7.353698e-01	7.377108e-01	7.486182e-01	1.049864e+00	1.054329e+00	7.953068e-01	7.991498e-01	7.463705e-01	7.459796e-01	7.624797e-01	7.690913e-01	7.724698e-01	1.005729e+00	9.720227e-01	9.623184e-01	9.983978e-01	1.024233e+00	1.048317e+00	1.037533e+00	1.033595e+00	1.018731e+00	1.012565e+00	9.903004e-01	9.814543e-01	9.529659e-01	9.434675e-01	9.068904e-01	8.973602e-01	8.795616e-01	8.845589e-01	8.896942e-01	8.845104e-01	7.496483e-01	7.516498e-01	7.540353e-01	7.567276e-01	8.752464e-01	8.150213e-01	8.235887e-01	9.888264e-01	9.928630e-01	9.037529e-01	9.071173e-01	1.064955e+00	8.353837e-01	7.839153e-01	7.879035e-01	7.464407e-01	7.460576e-01	7.479845e-01	7.476445e-01	1.053085e+00	1.052073e+00	9.365575e-01	9.404504e-01	1.037872e+00	1.300606e+00	7.978423e-01	1.312813e+00	8.729689e-01	7.993837e-01	9.845316e-01	9.122187e-01	1.033893e+00	1.140954e+00	1.130387e+00	1.065788e+00	1.077519e+00	1.143308e+00	1.122847e+00	1.141221e+00	1.121174e+00	1.169721e+00	1.114424e+00	1.283210e+00	9.258367e-01	1.038414e+00	1.098489e+00	8.845444e-01	1.140598e+00	1.227144e+00	9.607535e-01	1.279567e+00	9.647183e-01	1.141094e+00	1.012440e+00	1.198290e+00	7.876784e-01	1.008358e+00	9.567185e-01	1.105877e+00	1.169481e+00	1.097532e+00	9.060084e-01	1.057842e+00	9.194187e-01	1.137476e+00	9.116081e-01	7.503546e-01	7.507769e-01	7.688637e-01	8.075895e-01	1.130043e+00	1.295736e+00	1.183595e+00	9.047051e-01	1.240352e+00	1.062827e+00	9.392463e-01	1.311911e+00	8.609722e-01	8.925091e-01	1.089058e+00	9.763302e-01	1.025906e+00	1.002315e+00	9.312327e-01	1.114621e+00	1.061090e+00	1.044147e+00	1.041369e+00	7.504316e-01	7.501215e-01	7.531579e-01	7.885163e-01	9.486900e-01	9.526847e-01	8.312757e-01	9.367825e-01	7.722327e-01	1.083218e+00	1.131062e+00	1.024069e+00	1.131835e+00	1.254483e+00	1.315114e+00	1.065015e+00	1.155748e+00	1.147009e+00	1.068155e+00	1.091838e+00	8.857395e-01	8.936350e-01	7.510285e-01	1.000260e+00	1.004292e+00	1.016583e+00	1.020801e+00	9.689788e-01	9.536322e-01	1.025065e+00	1.029448e+00	1.052657e+00	1.057671e+00	1.085525e+00	9.767386e-01	9.806575e-01	1.113369e+00	8.959652e-01	9.012825e-01	8.958915e-01	8.979464e-01	1.042975e+00	1.043040e+00	1.047774e+00	8.802163e-01	8.702864e-01	9.169332e-01	9.231092e-01	1.073697e+00	1.079451e+00	9.687724e-01	9.728170e-01	9.132961e-01	9.014239e-01	8.904534e-01	9.286228e-01	9.330513e-01	1.022676e+00	1.003489e+00	9.855230e-01	7.861925e-01	7.974975e-01	8.312541e-01	8.527335e-01	8.451760e-01	8.380554e-01	8.248818e-01	8.188535e-01	7.957580e-01	7.918663e-01	8.132308e-01	8.256360e-01	8.889246e-01	8.173258e-01	1.072801e+00	7.554849e-01	7.418666e-01	7.472268e-01	7.518520e-01	1.050323e+00	8.128591e-01	8.187438e-01	7.509230e-01	7.518830e-01	7.759937e-01	7.803095e-01	7.844858e-01	9.696589e-01	1.048573e+00	1.046537e+00	1.038143e+00	1.034552e+00	1.030502e+00	1.020828e+00	1.015211e+00	1.009055e+00	9.950908e-01	9.872251e-01	9.786153e-01	9.608043e-01	9.521996e-01	9.420987e-01	9.083147e-01	8.873558e-01	8.943817e-01	9.005699e-01	8.936751e-01	8.887856e-01	7.548404e-01	7.568491e-01	7.593942e-01	7.623197e-01	7.655946e-01	8.343623e-01	8.457125e-01	9.884098e-01	9.923551e-01	9.962675e-01	9.050407e-01	9.081796e-01	8.605017e-01	8.796229e-01	7.929810e-01	7.978818e-01	8.027284e-01	7.501653e-01	7.513797e-01	7.511957e-01	7.510080e-01	1.055464e+00	1.053588e+00	1.051945e+00	9.372368e-01	9.407639e-01	9.447125e-01	8.080553e-01	8.034462e-01	1.291844e+00	9.332028e-01	1.129308e+00	1.104129e+00	9.172376e-01	1.261999e+00	1.128694e+00	1.037204e+00	1.041781e+00	1.067544e+00	1.130934e+00	9.064221e-01	1.274201e+00	9.622233e-01	1.212395e+00	1.067017e+00	1.131885e+00	1.170884e+00	9.195240e-01	1.128672e+00	1.148838e+00	1.158144e+00	9.880669e-01	8.686411e-01	1.113510e+00	8.889011e-01	9.466092e-01	8.966032e-01	8.062477e-01	1.115874e+00	8.920016e-01	1.062280e+00	1.058703e+00	9.993395e-01	7.798644e-01	7.562867e-01	1.094550e+00	8.262883e-01	1.011971e+00	1.128083e+00	1.125483e+00	1.114743e+00	1.071187e+00	1.137157e+00	9.606476e-01	1.236525e+00	9.649431e-01	9.686089e-01	1.162375e+00	1.101048e+00	1.187731e+00	1.022831e+00	9.119204e-01	7.548922e-01	1.219074e+00	9.984213e-01	9.306428e-01	1.041900e+00	7.550054e-01	7.550671e-01	7.554311e-01	9.527993e-01	9.570594e-01	1.092164e+00	1.039002e+00	1.083811e+00	1.258637e+00	1.297727e+00	1.089897e+00	1.065899e+00	1.088365e+00	8.909561e-01	1.003904e+00	1.007855e+00	1.016005e+00	1.020114e+00	9.757590e-01	9.607259e-01	1.024227e+00	1.028491e+00	1.032818e+00	1.055800e+00	1.060792e+00	9.802912e-01	9.843957e-01	1.107852e+00	8.980159e-01	9.024408e-01	9.004443e-01	8.990922e-01	1.046344e+00	1.050948e+00	8.877641e-01	8.773029e-01	9.232286e-01	1.076655e+00	1.082397e+00	9.727415e-01	9.770842e-01	9.206264e-01	9.089628e-01	8.983029e-01	9.283817e-01	9.335881e-01	1.047537e+00	1.027914e+00	1.009039e+00	9.916632e-01	7.963237e-01	8.008287e-01	8.211202e-01	8.569782e-01	8.606013e-01	8.528894e-01	8.454768e-01	8.384871e-01	8.319701e-01	7.987894e-01	8.025071e-01	8.258564e-01	8.633660e-01	1.081712e+00	1.073323e+00	7.968797e-01	7.588091e-01	7.520801e-01	7.542016e-01	7.552624e-01	8.341410e-01	8.433411e-01	7.574080e-01	7.590942e-01	7.838601e-01	7.883537e-01	7.933966e-01	7.981932e-01	1.049288e+00	1.047059e+00	1.044675e+00	1.038874e+00	1.035489e+00	1.031859e+00	1.026946e+00	1.018167e+00	1.011783e+00	1.006084e+00	9.922393e-01	9.845631e-01	9.762864e-01	9.684969e-01	9.599611e-01	9.511225e-01	9.408190e-01	9.049300e-01	8.958885e-01	9.109661e-01	9.030652e-01	8.979206e-01	8.921176e-01	7.608885e-01	7.631766e-01	7.655111e-01	7.685130e-01	7.718290e-01	7.756932e-01	8.538388e-01	8.673040e-01	9.920568e-01	9.962017e-01	9.999787e-01	9.067416e-01	9.095094e-01	9.137195e-01	8.846006e-01	9.056038e-01	9.309843e-01	8.028171e-01	8.080082e-01	8.140331e-01	8.200099e-01	7.549734e-01	7.549052e-01	7.551111e-01	7.550815e-01	1.051407e+00	1.055864e+00	1.053548e+00	9.377693e-01	9.416995e-01	9.451230e-01	9.492765e-01	8.201945e-01	8.149638e-01	8.103408e-01	1.155310e+00	1.127553e+00	1.068853e+00	1.140708e+00	1.177787e+00	9.705294e-01	9.409909e-01	1.199238e+00	1.097161e+00	1.239449e+00	1.089834e+00	8.779786e-01	7.929299e-01	1.015921e+00	1.125709e+00	1.235287e+00	1.292257e+00	1.294615e+00	1.281821e+00	1.254134e+00	1.111033e+00	7.600087e-01	1.074034e+00	1.096779e+00	1.044887e+00	9.895462e-01	8.975034e-01	1.123791e+00	1.050563e+00	1.058996e+00	9.045936e-01	9.124781e-01	9.257547e-01	9.928727e-01	8.891032e-01	9.207856e-01	7.591059e-01	1.120053e+00	9.541992e-01	1.132224e+00	1.106089e+00	1.293003e+00	1.152365e+00	1.143138e+00	1.040378e+00	1.070241e+00	1.269229e+00	9.832001e-01	1.220053e+00	1.067187e+00	1.161174e+00	1.142651e+00	1.146491e+00	1.133357e+00	8.090570e-01	8.141346e-01	1.113926e+00	8.968291e-01	1.062654e+00	1.090764e+00	9.629706e-01	1.199953e+00	7.596580e-01	7.611538e-01	7.612908e-01	9.552622e-01	1.050757e+00	1.087956e+00	1.276982e+00	1.112082e+00	1.007818e+00	1.011251e+00	1.015479e+00	1.019409e+00	9.679742e-01	9.829834e-01	1.023707e+00	1.027655e+00	1.031900e+00	1.036571e+00	1.058917e+00	1.063819e+00	9.824894e-01	1.102697e+00	9.010359e-01	9.040009e-01	9.032615e-01	9.023497e-01	1.049748e+00	1.054134e+00	8.951268e-01	8.842318e-01	1.079450e+00	1.085054e+00	9.771347e-01	9.281828e-01	9.159597e-01	9.078518e-01	9.308086e-01	1.051371e+00	1.032667e+00	1.014567e+00	9.985637e-01	8.085759e-01	8.074754e-01	8.198799e-01	8.422053e-01	8.731638e-01	8.680732e-01	8.618222e-01	8.523516e-01	8.468938e-01	8.386157e-01	1.088094e+00	1.079887e+00	1.072910e+00	8.376210e-01	7.906945e-01	7.644931e-01	7.618442e-01	7.583998e-01	8.503166e-01	8.614084e-01	7.637944e-01	7.646522e-01	7.957602e-01	8.026046e-01	8.086282e-01	1.048011e+00	1.045468e+00	1.042592e+00	1.039738e+00	1.036257e+00	1.033062e+00	1.028561e+00	1.022102e+00	1.015042e+00	1.005706e+00	9.784886e-01	9.630029e-01	9.447159e-01	9.093383e-01	8.982361e-01	7.680302e-01	7.692961e-01	7.732668e-01	7.748046e-01	7.796105e-01	7.834560e-01	7.880029e-01	8.742019e-01	8.887760e-01	9.959979e-01	9.997294e-01	1.003565e+00	9.080245e-01	9.132698e-01	9.070525e-01	9.294501e-01	9.543865e-01	8.140396e-01	8.196827e-01	8.264158e-01	8.345344e-01	8.421154e-01	7.588359e-01	7.582833e-01	7.591607e-01	7.594934e-01	1.055975e+00	1.052974e+00	9.403003e-01	9.478039e-01	8.339481e-01	8.266365e-01	8.229209e-01	8.168507e-01	1.134720e+00	1.126389e+00	1.186553e+00	1.255588e+00	1.151216e+00	1.076546e+00	1.111059e+00	1.183382e+00	1.071774e+00	1.114105e+00	1.087235e+00	1.257550e+00	1.089590e+00	1.167552e+00	7.640163e-01	1.143475e+00	1.059246e+00	1.151821e+00	1.148001e+00	1.071507e+00	9.201292e-01	1.105413e+00	8.199854e-01	1.048070e+00	1.041473e+00	9.465903e-01	9.484435e-01	8.812912e-01	1.234724e+00	9.040448e-01	9.762454e-01	9.625471e-01	8.086964e-01	1.091458e+00	1.050431e+00	1.213354e+00	1.029136e+00	1.066658e+00	1.135902e+00	1.098632e+00	1.291568e+00	1.247849e+00	1.092785e+00	9.757920e-01	9.042668e-01	8.430180e-01	1.115605e+00	1.141404e+00	1.125916e+00	1.276310e+00	1.146845e+00	1.072239e+00	1.221096e+00	1.204581e+00	9.053000e-01	1.109004e+00	1.066907e+00	1.062285e+00	9.144518e-01	7.655154e-01	7.683123e-01	9.687369e-01	1.090451e+00	1.121803e+00	1.129233e+00	1.013026e+00	1.020660e+00	9.897581e-01	1.028772e+00	1.035699e+00	1.061882e+00	1.098420e+00	9.065376e-01	1.052960e+00	1.057221e+00	8.976713e-01	1.081767e+00	9.817805e-01	9.877739e-01	9.306690e-01	9.151658e-01	9.286827e-01	1.054671e+00	1.036023e+00	1.019087e+00	1.007088e+00	8.210647e-01	8.463160e-01	8.846954e-01	8.649423e-01	8.502317e-01	1.084366e+00	1.077765e+00	7.820386e-01	7.649699e-01	8.798250e-01	7.728001e-01	8.192718e-01	1.010269e+00	1.044902e+00	1.038693e+00	1.031871e+00	1.024803e+00	1.018162e+00	9.996939e-01	9.869560e-01	9.732950e-01	9.573246e-01	9.399294e-01	9.230681e-01	9.090494e-01	9.020053e-01	7.785446e-01	7.850720e-01	7.923162e-01	7.951676e-01	8.020310e-01	8.947968e-01	9.103931e-01	9.946283e-01	1.001146e+00	1.007364e+00	9.089633e-01	9.135008e-01	9.283788e-01	9.504297e-01	9.748597e-01	1.000623e+00	8.264844e-01	8.324933e-01	8.395937e-01	8.488205e-01	8.597760e-01	8.656768e-01	7.621328e-01	7.635703e-01	1.058625e+00	1.055324e+00	9.381929e-01	9.538697e-01	9.612376e-01	8.375931e-01	8.270950e-01	1.118556e+00	1.136250e+00	1.131331e+00	1.126255e+00	1.032490e+00	1.108924e+00	1.140275e+00	1.110091e+00	1.190199e+00	1.141136e+00	1.119626e+00	1.103268e+00	1.091627e+00	1.194203e+00	1.238236e+00	1.080917e+00	9.807295e-01	7.688914e-01	1.123230e+00	1.033457e+00	1.106092e+00	8.907838e-01	1.065542e+00	1.174646e+00	8.974370e-01	1.051370e+00	9.528176e-01	9.277215e-01	1.073874e+00	1.078706e+00	1.089051e+00	1.073977e+00	1.138385e+00	1.098415e+00	1.103542e+00	1.070459e+00	7.739084e-01	9.075858e-01	9.670708e-01	9.958571e-01	1.128363e+00	1.130244e+00	1.272719e+00	1.069118e+00	1.075340e+00	1.146213e+00	1.083758e+00	1.169245e+00	1.157807e+00	9.200321e-01	1.227997e+00	9.854911e-01	9.693996e-01	1.092733e+00	1.234409e+00	1.064558e+00	1.088874e+00	9.742784e-01	1.255982e+00	1.146621e+00	1.011772e+00	1.216716e+00	1.204256e+00	9.136293e-01	1.123919e+00	1.065398e+00	9.133719e-01	7.707720e-01	9.110830e-01	1.117774e+00	1.143241e+00	1.018176e+00	1.025890e+00	1.039690e+00	1.045653e+00	1.094432e+00	9.092793e-01	1.055745e+00	1.060021e+00	8.689196e-01	9.996283e-01	1.005933e+00	9.866754e-01	9.537432e-01	9.369649e-01	9.202153e-01	1.056088e+00	8.304440e-01	8.404427e-01	9.033120e-01	8.861779e-01	9.598621e-01	1.086785e+00	8.813039e-01	8.211251e-01	8.295780e-01	1.047384e+00	1.041135e+00	1.013876e+00	1.034443e+00	1.027618e+00	1.020912e+00	1.005126e+00	9.941518e-01	9.818111e-01	9.681519e-01	9.527451e-01	9.364993e-01	9.220092e-01	7.787412e-01	7.850918e-01	7.924401e-01	8.003730e-01	8.077221e-01	8.189193e-01	9.140991e-01	9.313972e-01	9.930039e-01	1.011717e+00	9.113954e-01	9.142995e-01	9.485787e-01	9.688391e-01	9.919277e-01	1.015224e+00	1.039762e+00	8.400861e-01	8.480430e-01	8.546756e-01	8.634437e-01	8.754654e-01	7.810965e-01	7.687321e-01	7.674717e-01	1.059150e+00	1.053264e+00	9.362697e-01	9.449180e-01	8.698876e-01	8.554811e-01	8.433543e-01	8.341734e-01	1.129526e+00	1.123441e+00	1.119327e+00	1.123706e+00	1.156503e+00	1.127435e+00	1.113402e+00	1.054056e+00	1.144285e+00	1.099334e+00	1.097895e+00	1.066658e+00	1.135374e+00	1.077312e+00	7.851960e-01	1.112470e+00	1.115719e+00	1.133681e+00	1.137200e+00	1.070317e+00	9.260130e-01	1.033095e+00	1.037565e+00	9.858803e-01	1.107013e+00	1.123590e+00	1.122413e+00	1.142427e+00	1.176585e+00	9.145771e-01	9.