# vtk DataFile Version 3.0
vtk output
ASCII
DATASET UNSTRUCTURED_GRID
POINTS 200 float
9.997500e-01	-3.632897e-05	0.0	9.990000e-01	-1.452538e-04	0.0	9.977600e-01	-3.251112e-04	0.0	9.960200e-01	-5.769984e-04	0.0	9.937800e-01	-9.004365e-04	0.0	9.910500e-01	-1.293364e-03	0.0	9.878400e-01	-1.753610e-03	0.0	9.841300e-01	-2.283177e-03	0.0	9.799500e-01	-2.876826e-03	0.0	9.752800e-01	-3.536324e-03	0.0	9.701500e-01	-4.256269e-03	0.0	9.645400e-01	-5.038225e-03	0.0	9.584700e-01	-5.878077e-03	0.0	9.519400e-01	-6.774429e-03	0.0	9.449600e-01	-7.724467e-03	0.0	9.375400e-01	-8.725349e-03	0.0	9.296900e-01	-9.774221e-03	0.0	9.214000e-01	-1.087086e-02	0.0	9.127000e-01	-1.200973e-02	0.0	9.035800e-01	-1.319056e-02	0.0	8.940600e-01	-1.440916e-02	0.0	8.841500e-01	-1.566269e-02	0.0	8.738500e-01	-1.694956e-02	0.0	8.631800e-01	-1.826569e-02	0.0	8.521600e-01	-1.960709e-02	0.0	8.407700e-01	-2.097463e-02	0.0	8.290500e-01	-2.236196e-02	0.0	8.170100e-01	-2.376642e-02	0.0	8.046400e-01	-2.518764e-02	0.0	7.919700e-01	-2.662063e-02	0.0	7.790100e-01	-2.806277e-02	0.0	7.657800e-01	-2.951034e-02	0.0	7.522800e-01	-3.096181e-02	0.0	7.385200e-01	-3.241453e-02	0.0	7.245300e-01	-3.386377e-02	0.0	7.103200e-01	-3.530689e-02	0.0	6.958900e-01	-3.674225e-02	0.0	6.812700e-01	-3.816515e-02	0.0	6.664700e-01	-3.957289e-02	0.0	6.515000e-01	-4.096270e-02	0.0	6.363800e-01	-4.233084e-02	0.0	6.211300e-01	-4.367359e-02	0.0	6.057600e-01	-4.498807e-02	0.0	5.902800e-01	-4.627133e-02	0.0	5.747100e-01	-4.751951e-02	0.0	5.590600e-01	-4.872956e-02	0.0	5.433600e-01	-4.989684e-02	0.0	5.276100e-01	-5.101898e-02	0.0	5.118400e-01	-5.209138e-02	0.0	4.960500e-01	-5.311154e-02	0.0	4.802700e-01	-5.407492e-02	0.0	4.645100e-01	-5.497836e-02	0.0	4.487800e-01	-5.581860e-02	0.0	4.331100e-01	-5.659142e-02	0.0	4.175000e-01	-5.729417e-02	0.0	4.019700e-01	-5.792324e-02	0.0	3.865400e-01	-5.847521e-02	0.0	3.712300e-01	-5.894684e-02	0.0	3.560400e-01	-5.933562e-02	0.0	3.409900e-01	-5.963848e-02	0.0	3.261100e-01	-5.985254e-02	0.0	3.114000e-01	-5.997565e-02	0.0	2.968700e-01	-6.000550e-02	0.0	2.825500e-01	-5.994005e-02	0.0	2.684500e-01	-5.977766e-02	0.0	2.545700e-01	-5.951658e-02	0.0	2.409400e-01	-5.915586e-02	0.0	2.275700e-01	-5.869457e-02	0.0	2.144700e-01	-5.813197e-02	0.0	2.016600e-01	-5.746811e-02	0.0	1.891400e-01	-5.670228e-02	0.0	1.769300e-01	-5.583514e-02	0.0	1.650400e-01	-5.486709e-02	0.0	1.534900e-01	-5.379978e-02	0.0	1.422900e-01	-5.263443e-02	0.0	1.314400e-01	-5.137134e-02	0.0	1.209500e-01	-5.001187e-02	0.0	1.108500e-01	-4.856067e-02	0.0	1.011300e-01	-4.701715e-02	0.0	9.181000e-02	-4.538527e-02	0.0	8.290000e-02	-4.366791e-02	0.0	7.440000e-02	-4.186608e-02	0.0	6.633000e-02	-3.998514e-02	0.0	5.869000e-02	-3.802636e-02	0.0	5.149000e-02	-3.599338e-02	0.0	4.474000e-02	-3.389028e-02	0.0	3.844000e-02	-3.171811e-02	0.0	3.260000e-02	-2.948109e-02	0.0	2.723000e-02	-2.718420e-02	0.0	2.232000e-02	-2.482329e-02	0.0	1.790000e-02	-2.241365e-02	0.0	1.395000e-02	-1.994492e-02	0.0	1.049000e-02	-1.742916e-02	0.0	7.520000e-03	-1.486756e-02	0.0	5.040000e-03	-1.226032e-02	0.0	3.050000e-03	-9.605565e-03	0.0	1.560000e-03	-6.917518e-03	0.0	5.600000e-04	-4.173160e-03	0.0	6.000000e-05	-1.375330e-03	0.0	0.000000e+00	0.000000e+00	0.0	6.000000e-05	1.328970e-03	0.0	5.600000e-04	3.838327e-03	0.0	1.560000e-03	6.110150e-03	0.0	3.050000e-03	8.195660e-03	0.0	5.040000e-03	1.015020e-02	0.0	7.520000e-03	1.199216e-02	0.0	1.049000e-02	1.374650e-02	0.0	1.395000e-02	1.543190e-02	0.0	1.790000e-02	1.706249e-02	0.0	2.232000e-02	1.864205e-02	0.0	2.723000e-02	2.018632e-02	0.0	3.260000e-02	2.169189e-02	0.0	3.844000e-02	2.316614e-02	0.0	4.474000e-02	2.460891e-02	0.0	5.149000e-02	2.601928e-02	0.0	5.869000e-02	2.739754e-02	0.0	6.633000e-02	2.874127e-02	0.0	7.440000e-02	3.004786e-02	0.0	8.290000e-02	3.131610e-02	0.0	9.181000e-02	3.254178e-02	0.0	1.011300e-01	3.372377e-02	0.0	1.108500e-01	3.485970e-02	0.0	1.209500e-01	3.594649e-02	0.0	1.314400e-01	3.698463e-02	0.0	1.422900e-01	3.797085e-02	0.0	1.534900e-01	3.890448e-02	0.0	1.650400e-01	3.978591e-02	0.0	1.769300e-01	4.061491e-02	0.0	1.891400e-01	4.139097e-02	0.0	2.016600e-01	4.211463e-02	0.0	2.144700e-01	4.278616e-02	0.0	2.275700e-01	4.340706e-02	0.0	2.409400e-01	4.397801e-02	0.0	2.545700e-01	4.450025e-02	0.0	2.684500e-01	4.497505e-02	0.0	2.825500e-01	4.540306e-02	0.0	2.968700e-01	4.578582e-02	0.0	3.114000e-01	4.612429e-02	0.0	3.261100e-01	4.641875e-02	0.0	3.409900e-01	4.666963e-02	0.0	3.560400e-01	4.687699e-02	0.0	3.712300e-01	4.703987e-02	0.0	3.865400e-01	4.715692e-02	0.0	4.019700e-01	4.722624e-02	0.0	4.175000e-01	4.724496e-02	0.0	4.331100e-01	4.720953e-02	0.0	4.487800e-01	4.711570e-02	0.0	4.645100e-01	4.695836e-02	0.0	4.802700e-01	4.673206e-02	0.0	4.960500e-01	4.643070e-02	0.0	5.118400e-01	4.604782e-02	0.0	5.276100e-01	4.557749e-02	0.0	5.433600e-01	4.501319e-02	0.0	5.590600e-01	4.434995e-02	0.0	5.747100e-01	4.358253e-02	0.0	5.902800e-01	4.270830e-02	0.0	6.057600e-01	4.172533e-02	0.0	6.211300e-01	4.063421e-02	0.0	6.363800e-01	3.943711e-02	0.0	6.515000e-01	3.813851e-02	0.0	6.664700e-01	3.674629e-02	0.0	6.812700e-01	3.527108e-02	0.0	6.958900e-01	3.372505e-02	0.0	7.103200e-01	3.212238e-02	0.0	7.245300e-01	3.048120e-02	0.0	7.385200e-01	2.881730e-02	0.0	7.522800e-01	2.714779e-02	0.0	7.657800e-01	2.549167e-02	0.0	7.790100e-01	2.386418e-02	0.0	7.919700e-01	2.227733e-02	0.0	8.046400e-01	2.074314e-02	0.0	8.170100e-01	1.926981e-02	0.0	8.290500e-01	1.786545e-02	0.0	8.407700e-01	1.653147e-02	0.0	8.521600e-01	1.527020e-02	0.0	8.631800e-01	1.408623e-02	0.0	8.738500e-01	1.297692e-02	0.0	8.841500e-01	1.194331e-02	0.0	8.940600e-01	1.098513e-02	0.0	9.035800e-01	1.009839e-02	0.0	9.127000e-01	9.277748e-03	0.0	9.214000e-01	8.516046e-03	0.0	9.296900e-01	7.801167e-03	0.0	9.375400e-01	7.123079e-03	0.0	9.449600e-01	6.468280e-03	0.0	9.519400e-01	5.826086e-03	0.0	9.584700e-01	5.186471e-03	0.0	9.645400e-01	4.535548e-03	0.0	9.701500e-01	3.843021e-03	0.0	9.752800e-01	3.051934e-03	0.0	9.799500e-01	2.081711e-03	0.0	9.841300e-01	9.405008e-04	0.0	9.878400e-01	-1.307592e-04	0.0	9.910500e-01	-6.742452e-04	0.0	9.937800e-01	-5.153057e-04	0.0	9.960200e-01	-6.821301e-05	0.0	9.977600e-01	1.602412e-04	0.0	9.990000e-01	1.272644e-04	0.0	9.997500e-01	3.601949e-05	0.0	1.000000e+00	0.000000e+00	0.0	
CELLS 200	600
2	149	150	2	150	151	2	151	152	2	152	153	2	153	154	2	154	155	2	155	156	2	156	157	2	157	158	2	158	159	2	159	160	2	160	161	2	161	162	2	162	163	2	163	164	2	164	165	2	165	166	2	166	167	2	167	168	2	168	169	2	169	170	2	170	171	2	171	172	2	172	173	2	173	174	2	174	175	2	175	176	2	176	177	2	177	178	2	178	179	2	179	180	2	180	181	2	181	182	2	31	32	2	32	33	2	33	34	2	34	35	2	35	36	2	36	37	2	37	38	2	38	39	2	39	40	2	40	41	2	41	42	2	42	43	2	43	44	2	44	45	2	45	46	2	46	47	2	47	48	2	48	49	2	49	50	2	50	51	2	51	52	2	52	53	2	53	54	2	54	55	2	55	56	2	56	57	2	57	58	2	58	59	2	59	60	2	60	61	2	61	62	2	62	63	2	63	64	2	64	65	2	65	66	2	66	67	2	67	68	2	68	69	2	69	70	2	70	71	2	71	72	2	72	73	2	73	74	2	74	75	2	75	76	2	76	77	2	77	78	2	78	79	2	79	80	2	80	81	2	81	82	2	82	83	2	83	84	2	113	114	2	114	115	2	115	116	2	116	117	2	117	118	2	118	119	2	119	120	2	120	121	2	121	122	2	122	123	2	123	124	2	124	125	2	125	126	2	126	127	2	127	128	2	128	129	2	129	130	2	130	131	2	131	132	2	132	133	2	133	134	2	134	135	2	135	136	2	136	137	2	137	138	2	138	139	2	139	140	2	140	141	2	141	142	2	142	143	2	143	144	2	144	145	2	145	146	2	146	147	2	147	148	2	148	149	2	84	85	2	85	86	2	86	87	2	87	88	2	88	89	2	89	90	2	90	91	2	91	92	2	92	93	2	93	94	2	94	95	2	95	96	2	96	97	2	97	98	2	98	99	2	99	100	2	100	101	2	101	102	2	102	103	2	103	104	2	104	105	2	105	106	2	106	107	2	107	108	2	108	109	2	109	110	2	110	111	2	111	112	2	112	113	2	199	0	2	0	1	2	1	2	2	2	3	2	3	4	2	4	5	2	5	6	2	6	7	2	182	183	2	183	184	2	184	185	2	185	186	2	186	187	2	187	188	2	188	189	2	189	190	2	190	191	2	191	192	2	192	193	2	193	194	2	194	195	2	195	196	2	196	197	2	197	198	2	198	199	2	7	8	2	8	9	2	9	10	2	10	11	2	11	12	2	12	13	2	13	14	2	14	15	2	15	16	2	16	17	2	17	18	2	18	19	2	19	20	2	20	21	2	21	22	2	22	23	2	23	24	2	24	25	2	25	26	2	26	27	2	27	28	2	28	29	2	29	30	2	30	31	
CELL_TYPES 200
3	3	3	3	3	3	3	3	3	3	3	3	3	3	3	3	3	3	3	3	3	3	3	3	3	3	3	3	3	3	3	3	3	3	3	3	3	3	3	3	3	3	3	3	3	3	3	3	3	3	3	3	3	3	3	3	3	3	3	3	3	3	3	3	3	3	3	3	3	3	3	3	3	3	3	3	3	3	3	3	3	3	3	3	3	3	3	3	3	3	3	3	3	3	3	3	3	3	3	3	3	3	3	3	3	3	3	3	3	3	3	3	3	3	3	3	3	3	3	3	3	3	3	3	3	3	3	3	3	3	3	3	3	3	3	3	3	3	3	3	3	3	3	3	3	3	3	3	3	3	3	3	3	3	3	3	3	3	3	3	3	3	3	3	3	3	3	3	3	3	3	3	3	3	3	3	3	3	3	3	3	3	3	3	3	3	3	3	3	3	3	3	3	3	3	3	3	3	3	3	
POINT_DATA 200

SCALARS Conservative_1 float 1
LOOKUP_TABLE default
1.169292e+00	1.146812e+00	1.132925e+00	1.121595e+00	1.111931e+00	1.103548e+00	1.095842e+00	1.088775e+00	1.082152e+00	1.075901e+00	1.069947e+00	1.064243e+00	1.058748e+00	1.053441e+00	1.048297e+00	1.043304e+00	1.038439e+00	1.033687e+00	1.029044e+00	1.024489e+00	1.020029e+00	1.015644e+00	1.011330e+00	1.007074e+00	1.002878e+00	9.987093e-01	9.945835e-01	9.904702e-01	9.863980e-01	9.823417e-01	9.783240e-01	9.743270e-01	9.702474e-01	9.661402e-01	9.619599e-01	9.577387e-01	9.536034e-01	9.493765e-01	9.451865e-01	9.408931e-01	9.367688e-01	9.328899e-01	9.288371e-01	9.246515e-01	9.188259e-01	9.124283e-01	9.065076e-01	9.015567e-01	8.987177e-01	8.950410e-01	8.894158e-01	8.838405e-01	8.820662e-01	8.861982e-01	8.900434e-01	8.791070e-01	8.424538e-01	7.970569e-01	7.715338e-01	7.670554e-01	7.707874e-01	7.750969e-01	7.783209e-01	7.813028e-01	7.847559e-01	7.887790e-01	7.933514e-01	7.983375e-01	8.036122e-01	8.090902e-01	8.148258e-01	8.210333e-01	8.279579e-01	8.356331e-01	8.439194e-01	8.526359e-01	8.618336e-01	8.716972e-01	8.822799e-01	8.936111e-01	9.057951e-01	9.188765e-01	9.329898e-01	9.482385e-01	9.647882e-01	9.828881e-01	1.002736e+00	1.024669e+00	1.049108e+00	1.076323e+00	1.106763e+00	1.140881e+00	1.178459e+00	1.219162e+00	1.261323e+00	1.302181e+00	1.333528e+00	1.350723e+00	1.338982e+00	1.308523e+00	1.286104e+00	1.223269e+00	1.098114e+00	9.944164e-01	9.130728e-01	8.552001e-01	8.185001e-01	7.970625e-01	7.848444e-01	7.781451e-01	7.746812e-01	7.729503e-01	7.722048e-01	7.716182e-01	7.708298e-01	7.699002e-01	7.687932e-01	7.673761e-01	7.655184e-01	7.631341e-01	7.604011e-01	7.577062e-01	7.552762e-01	7.530315e-01	7.507577e-01	7.484272e-01	7.462156e-01	7.441767e-01	7.422794e-01	7.405515e-01	7.391597e-01	7.382476e-01	7.378222e-01	7.377770e-01	7.379977e-01	7.383927e-01	7.389868e-01	7.396967e-01	7.404549e-01	7.410967e-01	7.415044e-01	7.420343e-01	7.427983e-01	7.425241e-01	7.382887e-01	7.294776e-01	7.265302e-01	7.590114e-01	8.358752e-01	8.934911e-01	9.014406e-01	8.885324e-01	8.750886e-01	8.677955e-01	8.673318e-01	8.690919e-01	8.729237e-01	8.780619e-01	8.854408e-01	8.971555e-01	9.103655e-01	9.244857e-01	9.367135e-01	9.467609e-01	9.575245e-01	9.685144e-01	9.791845e-01	9.891843e-01	9.981668e-01	1.006318e+00	1.013716e+00	1.020340e+00	1.026214e+00	1.031396e+00	1.035991e+00	1.040023e+00	1.043501e+00	1.046402e+00	1.048658e+00	1.050228e+00	1.051090e+00	1.051323e+00	1.051073e+00	1.050582e+00	1.050080e+00	1.049689e+00	1.049389e+00	1.049362e+00	1.051382e+00	1.060814e+00	1.088461e+00	1.139916e+00	1.195125e+00	1.229512e+00	1.221668e+00	1.158085e+00	1.080273e+00	1.067750e+00	1.126188e+00	1.141488e+00	
SCALARS Conservative_2 float 1
LOOKUP_TABLE default
7.721721e-01	7.935962e-01	8.134567e-01	8.286133e-01	8.402212e-01	8.500425e-01	8.582696e-01	8.656258e-01	8.722157e-01	8.782383e-01	8.837436e-01	8.888595e-01	8.936160e-01	8.980866e-01	9.022776e-01	9.062423e-01	9.099778e-01	9.135395e-01	9.169096e-01	9.201260e-01	9.231858e-01	9.261221e-01	9.289028e-01	9.315985e-01	9.341600e-01	9.366419e-01	9.390095e-01	9.413070e-01	9.435066e-01	9.456222e-01	9.476664e-01	9.496567e-01	9.515832e-01	9.534557e-01	9.552649e-01	9.570353e-01	9.587286e-01	9.603919e-01	9.619937e-01	9.635242e-01	9.649929e-01	9.663311e-01	9.677444e-01	9.690026e-01	9.705436e-01	9.718207e-01	9.727963e-01	9.740013e-01	9.746902e-01	9.760392e-01	9.774345e-01	9.777222e-01	9.776510e-01	9.768530e-01	9.763560e-01	9.779888e-01	9.805149e-01	9.779077e-01	9.722414e-01	9.709356e-01	9.713267e-01	9.721486e-01	9.730174e-01	9.736835e-01	9.743540e-01	9.750049e-01	9.756517e-01	9.762234e-01	9.766931e-01	9.770068e-01	9.771528e-01	9.770992e-01	9.768299e-01	9.762632e-01	9.753487e-01	9.739427e-01	9.720543e-01	9.695891e-01	9.663059e-01	9.620336e-01	9.566911e-01	9.499743e-01	9.416254e-01	9.312304e-01	9.183042e-01	9.021175e-01	8.817891e-01	8.562980e-01	8.241741e-01	7.833727e-01	7.316027e-01	6.660258e-01	5.832519e-01	4.812836e-01	3.601859e-01	2.274188e-01	1.016160e-01	8.237123e-03	-2.207586e-02	4.941518e-03	6.815455e-02	1.997476e-01	4.022862e-01	5.836660e-01	7.115485e-01	7.937482e-01	8.450769e-01	8.778535e-01	8.993100e-01	9.140537e-01	9.246134e-01	9.323344e-01	9.382855e-01	9.429156e-01	9.465484e-01	9.495161e-01	9.518671e-01	9.536908e-01	9.551166e-01	9.561618e-01	9.569226e-01	9.575187e-01	9.579746e-01	9.582110e-01	9.583242e-01	9.583090e-01	9.582621e-01	9.581272e-01	9.579696e-01	9.577817e-01	9.576804e-01	9.576813e-01	9.578117e-01	9.580185e-01	9.582729e-01	9.585638e-01	9.588816e-01	9.592188e-01	9.595539e-01	9.598250e-01	9.600502e-01	9.603327e-01	9.604137e-01	9.597442e-01	9.585506e-01	9.567874e-01	9.548232e-01	9.666630e-01	9.707318e-01	9.666782e-01	9.671608e-01	9.701522e-01	9.723989e-01	9.734124e-01	9.732009e-01	9.729687e-01	9.715833e-01	9.704861e-01	9.693305e-01	9.673458e-01	9.648019e-01	9.612443e-01	9.567905e-01	9.524886e-01	9.479814e-01	9.432122e-01	9.382422e-01	9.332167e-01	9.282750e-01	9.236452e-01	9.192909e-01	9.152389e-01	9.115439e-01	9.081590e-01	9.051193e-01	9.023944e-01	9.000355e-01	8.980789e-01	8.966016e-01	8.956475e-01	8.952091e-01	8.952130e-01	8.955089e-01	8.958696e-01	8.961096e-01	8.961493e-01	8.961628e-01	8.959975e-01	8.929537e-01	8.761759e-01	8.288465e-01	7.471632e-01	6.695486e-01	6.464821e-01	6.981430e-01	8.056966e-01	8.692565e-01	8.362458e-01	7.586977e-01	6.926720e-01	
SCALARS Conservative_3 float 1
LOOKUP_TABLE default
1.077214e-01	1.131722e-01	1.169075e-01	1.190587e-01	1.208129e-01	1.219249e-01	1.226523e-01	1.231482e-01	1.234543e-01	1.235880e-01	1.235629e-01	1.234127e-01	1.231308e-01	1.227418e-01	1.222444e-01	1.216575e-01	1.209726e-01	1.202153e-01	1.193698e-01	1.184611e-01	1.174739e-01	1.164336e-01	1.153210e-01	1.141631e-01	1.129409e-01	1.116808e-01	1.103581e-01	1.089954e-01	1.075790e-01	1.061176e-01	1.045975e-01	1.030284e-01	1.014139e-01	9.973735e-02	9.800577e-02	9.623760e-02	9.435639e-02	9.246752e-02	9.048020e-02	8.844602e-02	8.627555e-02	8.387592e-02	8.148982e-02	7.866816e-02	7.631823e-02	7.378166e-02	7.086005e-02	6.818555e-02	6.445910e-02	6.110066e-02	5.829215e-02	5.497460e-02	5.105816e-02	4.567902e-02	3.919588e-02	3.383587e-02	3.259441e-02	3.109108e-02	2.447367e-02	1.753854e-02	1.114148e-02	5.093005e-03	-1.065741e-03	-7.600950e-03	-1.453825e-02	-2.184272e-02	-2.953373e-02	-3.761056e-02	-4.608631e-02	-5.498345e-02	-6.433591e-02	-7.420520e-02	-8.464155e-02	-9.566413e-02	-1.072925e-01	-1.195705e-01	-1.325931e-01	-1.464123e-01	-1.610839e-01	-1.767099e-01	-1.933877e-01	-2.111999e-01	-2.302745e-01	-2.507105e-01	-2.725865e-01	-2.959693e-01	-3.208889e-01	-3.472356e-01	-3.745693e-01	-4.021312e-01	-4.284453e-01	-4.505218e-01	-4.635080e-01	-4.594688e-01	-4.261404e-01	-3.488334e-01	-2.161563e-01	-2.727394e-02	1.904518e-01	3.497513e-01	4.924968e-01	6.625701e-01	7.338902e-01	7.002709e-01	6.185409e-01	5.298222e-01	4.527832e-01	3.910209e-01	3.424792e-01	3.037933e-01	2.725371e-01	2.465604e-01	2.245443e-01	2.055006e-01	1.887142e-01	1.737296e-01	1.602300e-01	1.479192e-01	1.365993e-01	1.260859e-01	1.162464e-01	1.070867e-01	9.858248e-02	9.065992e-02	8.324943e-02	7.625836e-02	6.972163e-02	6.360289e-02	5.790300e-02	5.255148e-02	4.754620e-02	4.288307e-02	3.856103e-02	3.453643e-02	3.077378e-02	2.721780e-02	2.386237e-02	2.066745e-02	1.761473e-02	1.465964e-02	1.170836e-02	8.724604e-03	5.911462e-03	3.202766e-03	1.603170e-04	-3.849391e-03	-9.422486e-03	-1.865542e-02	-1.524679e-02	-1.501069e-02	-2.306632e-02	-3.137401e-02	-3.861923e-02	-4.515410e-02	-5.136638e-02	-5.846539e-02	-6.530886e-02	-7.305537e-02	-8.061439e-02	-8.707831e-02	-9.343435e-02	-9.852413e-02	-1.032306e-01	-1.078159e-01	-1.111984e-01	-1.134400e-01	-1.144957e-01	-1.145829e-01	-1.138705e-01	-1.124408e-01	-1.103777e-01	-1.078515e-01	-1.050032e-01	-1.019349e-01	-9.870751e-02	-9.535845e-02	-9.192106e-02	-8.846036e-02	-8.508758e-02	-8.199725e-02	-7.945690e-02	-7.778018e-02	-7.728413e-02	-7.822021e-02	-8.077078e-02	-8.514451e-02	-9.199556e-02	-1.032673e-01	-1.229605e-01	-1.554238e-01	-1.945834e-01	-2.074902e-01	-1.558773e-01	-4.335918e-02	8.221896e-02	1.333997e-01	5.455757e-02	-5.096607e-02	-9.185714e-02	1.458301e-02	
SCALARS Conservative_4 float 1
LOOKUP_TABLE default
3.371524e+00	3.314026e+00	3.279992e+00	3.252144e+00	3.228222e+00	3.207482e+00	3.188288e+00	3.170685e+00	3.154160e+00	3.138544e+00	3.123637e+00	3.109345e+00	3.095549e+00	3.082222e+00	3.069282e+00	3.056716e+00	3.044451e+00	3.032467e+00	3.020737e+00	3.009225e+00	2.997933e+00	2.986834e+00	2.975886e+00	2.965091e+00	2.954424e+00	2.943827e+00	2.933317e+00	2.922835e+00	2.912444e+00	2.902083e+00	2.891814e+00	2.881596e+00	2.871145e+00	2.860600e+00	2.849850e+00	2.839002e+00	2.828357e+00	2.817512e+00	2.806730e+00	2.795676e+00	2.785079e+00	2.775096e+00	2.764739e+00	2.753743e+00	2.738619e+00	2.721656e+00	2.705956e+00	2.693417e+00	2.685967e+00	2.676898e+00	2.662506e+00	2.647426e+00	2.642700e+00	2.653279e+00	2.663250e+00	2.634884e+00	2.539111e+00	2.419188e+00	2.350819e+00	2.338819e+00	2.348592e+00	2.360012e+00	2.368687e+00	2.376674e+00	2.385914e+00	2.396660e+00	2.408857e+00	2.422142e+00	2.436182e+00	2.450746e+00	2.465975e+00	2.482427e+00	2.500752e+00	2.521023e+00	2.542872e+00	2.565794e+00	2.589945e+00	2.615802e+00	2.643457e+00	2.672967e+00	2.704626e+00	2.738504e+00	2.774948e+00	2.814180e+00	2.856602e+00	2.902794e+00	2.953201e+00	3.008642e+00	3.070125e+00	3.138184e+00	3.213896e+00	3.298296e+00	3.390593e+00	3.489976e+00	3.592243e+00	3.691224e+00	3.766670e+00	3.809202e+00	3.779949e+00	3.703473e+00	3.654313e+00	3.505548e+00	3.187791e+00	2.923610e+00	2.713912e+00	2.563766e+00	2.468563e+00	2.413202e+00	2.381784e+00	2.364661e+00	2.355913e+00	2.351576e+00	2.349780e+00	2.348351e+00	2.346346e+00	2.343968e+00	2.341089e+00	2.337353e+00	2.332447e+00	2.326122e+00	2.318870e+00	2.311721e+00	2.305269e+00	2.299262e+00	2.293181e+00	2.286938e+00	2.281026e+00	2.275554e+00	2.270465e+00	2.265823e+00	2.262098e+00	2.259665e+00	2.258546e+00	2.258454e+00	2.259059e+00	2.260153e+00	2.261760e+00	2.263682e+00	2.265752e+00	2.267486e+00	2.268596e+00	2.270066e+00	2.272065e+00	2.270996e+00	2.259739e+00	2.236843e+00	2.227471e+00	2.316480e+00	2.518172e+00	2.667749e+00	2.689834e+00	2.656977e+00	2.621944e+00	2.603601e+00	2.601844e+00	2.607080e+00	2.616433e+00	2.629574e+00	2.649525e+00	2.679529e+00	2.714504e+00	2.751456e+00	2.782435e+00	2.808279e+00	2.835879e+00	2.864044e+00	2.891437e+00	2.916979e+00	2.939802e+00	2.960512e+00	2.979286e+00	2.996066e+00	3.010923e+00	3.024005e+00	3.035598e+00	3.045757e+00	3.054522e+00	3.061829e+00	3.067516e+00	3.071480e+00	3.073667e+00	3.074270e+00	3.073664e+00	3.072445e+00	3.071208e+00	3.070261e+00	3.069626e+00	3.069821e+00	3.075178e+00	3.098024e+00	3.164491e+00	3.289823e+00	3.426642e+00	3.515892e+00	3.502788e+00	3.347972e+00	3.146613e+00	3.104894e+00	3.249959e+00	3.279012e+00	
SCALARS Pressure float 1
LOOKUP_TABLE default
1.244640e+00	1.213543e+00	1.192769e+00	1.175897e+00	1.161682e+00	1.149344e+00	1.138129e+00	1.127846e+00	1.118246e+00	1.109200e+00	1.100612e+00	1.092400e+00	1.084508e+00	1.076900e+00	1.069542e+00	1.062412e+00	1.055480e+00	1.048719e+00	1.042126e+00	1.035672e+00	1.029360e+00	1.023166e+00	1.017085e+00	1.011092e+00	1.005196e+00	9.993465e-01	9.935696e-01	9.878182e-01	9.821349e-01	9.764855e-01	9.708950e-01	9.653373e-01	9.596823e-01	9.539931e-01	9.482197e-01	9.424004e-01	9.366993e-01	9.308966e-01	9.251396e-01	9.192678e-01	9.136290e-01	9.083361e-01	9.028093e-01	8.970622e-01	8.891453e-01	8.804533e-01	8.724883e-01	8.658818e-01	8.620451e-01	8.570514e-01	8.494057e-01	8.419712e-01	8.397701e-01	8.454843e-01	8.507471e-01	8.360948e-01	7.871520e-01	7.274739e-01	6.951401e-01	6.896461e-01	6.945965e-01	7.001387e-01	7.041911e-01	7.079681e-01	7.123598e-01	7.175036e-01	7.233547e-01	7.297532e-01	7.365339e-01	7.435966e-01	7.510104e-01	7.590634e-01	7.680764e-01	7.781069e-01	7.889715e-01	8.004623e-01	8.126238e-01	8.257075e-01	8.398339e-01	8.550589e-01	8.715031e-01	8.892681e-01	9.085440e-01	9.295093e-01	9.524259e-01	9.776961e-01	1.005657e+00	1.036804e+00	1.071810e+00	1.111194e+00	1.155665e+00	1.205974e+00	1.262043e+00	1.323359e+00	1.387531e+00	1.449857e+00	1.498112e+00	1.523561e+00	1.506489e+00	1.462689e+00	1.423284e+00	1.323921e+00	1.147547e+00	1.002302e+00	8.908608e-01	8.125157e-01	7.628272e-01	7.335490e-01	7.167304e-01	7.074038e-01	7.024765e-01	6.999838e-01	6.988361e-01	6.979461e-01	6.968334e-01	6.955397e-01	6.940492e-01	6.921902e-01	6.897690e-01	6.866797e-01	6.831472e-01	6.796567e-01	6.765194e-01	6.736626e-01	6.707704e-01	6.678117e-01	6.649947e-01	6.624167e-01	6.600158e-01	6.578366e-01	6.560670e-01	6.549000e-01	6.543365e-01	6.542568e-01	6.545081e-01	6.549835e-01	6.557080e-01	6.565797e-01	6.575201e-01	6.583147e-01	6.587997e-01	6.594355e-01	6.604600e-01	6.602937e-01	6.549903e-01	6.437475e-01	6.399937e-01	6.802754e-01	7.817441e-01	8.578770e-01	8.682809e-01	8.507154e-01	8.323306e-01	8.225939e-01	8.217306e-01	8.241931e-01	8.293173e-01	8.360862e-01	8.461084e-01	8.615158e-01	8.793849e-01	8.985897e-01	9.152391e-01	9.292059e-01	9.440622e-01	9.592462e-01	9.740950e-01	9.880540e-01	1.000667e+00	1.012139e+00	1.022579e+00	1.031954e+00	1.040283e+00	1.047658e+00	1.054202e+00	1.059958e+00	1.064931e+00	1.069080e+00	1.072307e+00	1.074548e+00	1.075776e+00	1.076100e+00	1.075735e+00	1.075025e+00	1.074298e+00	1.073710e+00	1.073175e+00	1.072886e+00	1.075516e+00	1.089920e+00	1.132608e+00	1.210429e+00	1.291570e+00	1.338066e+00	1.320215e+00	1.224009e+00	1.118203e+00	1.110484e+00	1.196260e+00	1.227503e+00	
SCALARS Temperature float 1
LOOKUP_TABLE default
1.064439e+00	1.058188e+00	1.052822e+00	1.048415e+00	1.044743e+00	1.041499e+00	1.038589e+00	1.035885e+00	1.033354e+00	1.030950e+00	1.028660e+00	1.026457e+00	1.024331e+00	1.022269e+00	1.020266e+00	1.018315e+00	1.016410e+00	1.014542e+00	1.012713e+00	1.010915e+00	1.009148e+00	1.007406e+00	1.005691e+00	1.003990e+00	1.002311e+00	1.000638e+00	9.989805e-01	9.973226e-01	9.956781e-01	9.940385e-01	9.924064e-01	9.907734e-01	9.891109e-01	9.874271e-01	9.857165e-01	9.839848e-01	9.822735e-01	9.805347e-01	9.787905e-01	9.770162e-01	9.752982e-01	9.736799e-01	9.719781e-01	9.701625e-01	9.676973e-01	9.649562e-01	9.624721e-01	9.604297e-01	9.591945e-01	9.575555e-01	9.550153e-01	9.526280e-01	9.520489e-01	9.540578e-01	9.558490e-01	9.510728e-01	9.343563e-01	9.127001e-01	9.009846e-01	8.990825e-01	9.011519e-01	9.032918e-01	9.047567e-01	9.061379e-01	9.077469e-01	9.096383e-01	9.117709e-01	9.140911e-01	9.165290e-01	9.190528e-01	9.216822e-01	9.245222e-01	9.276756e-01	9.311585e-01	9.348897e-01	9.388091e-01	9.429011e-01	9.472413e-01	9.518905e-01	9.568579e-01	9.621416e-01	9.677777e-01	9.737985e-01	9.802485e-01	9.871865e-01	9.947176e-01	1.002912e+00	1.011843e+00	1.021639e+00	1.032398e+00	1.044185e+00	1.057055e+00	1.070926e+00	1.085467e+00	1.100061e+00	1.113406e+00	1.123419e+00	1.127959e+00	1.125100e+00	1.117817e+00	1.106663e+00	1.082282e+00	1.045016e+00	1.007930e+00	9.756733e-01	9.500884e-01	9.319818e-01	9.203155e-01	9.132133e-01	9.090899e-01	9.067943e-01	9.056001e-01	9.049880e-01	9.045227e-01	9.040042e-01	9.034154e-01	9.027775e-01	9.020222e-01	9.010482e-01	8.998153e-01	8.984037e-01	8.969923e-01	8.957245e-01	8.946008e-01	8.934580e-01	8.922868e-01	8.911562e-01	8.901336e-01	8.891744e-01	8.883064e-01	8.875848e-01	8.871008e-01	8.868485e-01	8.867948e-01	8.868702e-01	8.870396e-01	8.873067e-01	8.876337e-01	8.879948e-01	8.882981e-01	8.884637e-01	8.886859e-01	8.891511e-01	8.892556e-01	8.871736e-01	8.824773e-01	8.808908e-01	8.962652e-01	9.352403e-01	9.601406e-01	9.632148e-01	9.574388e-01	9.511387e-01	9.479122e-01	9.474236e-01	9.483383e-01	9.500456e-01	9.521951e-01	9.555787e-01	9.602748e-01	9.659690e-01	9.719888e-01	9.770748e-01	9.814578e-01	9.859406e-01	9.904304e-01	9.948024e-01	9.988573e-01	1.002505e+00	1.005784e+00	1.008743e+00	1.011382e+00	1.013710e+00	1.015767e+00	1.017579e+00	1.019168e+00	1.020536e+00	1.021672e+00	1.022552e+00	1.023156e+00	1.023486e+00	1.023568e+00	1.023464e+00	1.023267e+00	1.023063e+00	1.022884e+00	1.022667e+00	1.022418e+00	1.022955e+00	1.027438e+00	1.040559e+00	1.061858e+00	1.080699e+00	1.088291e+00	1.080666e+00	1.056924e+00	1.035111e+00	1.040022e+00	1.062221e+00	1.075353e+00	
SCALARS Pressure_Coefficient float 1
LOOKUP_TABLE default
5.460721e-01	4.766578e-01	4.302883e-01	3.926274e-01	3.608981e-01	3.333577e-01	3.083241e-01	2.853699e-01	2.639421e-01	2.437509e-01	2.245795e-01	2.062494e-01	1.886329e-01	1.716515e-01	1.552287e-01	1.393120e-01	1.238402e-01	1.087488e-01	9.403204e-02	7.962430e-02	6.553538e-02	5.170939e-02	3.813716e-02	2.475954e-02	1.159734e-02	-1.458625e-03	-1.435367e-02	-2.719144e-02	-3.987740e-02	-5.248770e-02	-6.496655e-02	-7.737209e-02	-8.999491e-02	-1.026941e-01	-1.155811e-01	-1.285706e-01	-1.412961e-01	-1.542487e-01	-1.670992e-01	-1.802058e-01	-1.927925e-01	-2.046068e-01	-2.169435e-01	-2.297718e-01	-2.474434e-01	-2.668453e-01	-2.846244e-01	-2.993709e-01	-3.079351e-01	-3.190816e-01	-3.361480e-01	-3.527428e-01	-3.576559e-01	-3.449011e-01	-3.331537e-01	-3.658599e-01	-4.751071e-01	-6.083171e-01	-6.804909e-01	-6.927542e-01	-6.817043e-01	-6.693332e-01	-6.602877e-01	-6.518569e-01	-6.420540e-01	-6.305723e-01	-6.175118e-01	-6.032294e-01	-5.880940e-01	-5.723289e-01	-5.557804e-01	-5.378048e-01	-5.176866e-01	-4.952972e-01	-4.710457e-01	-4.453966e-01	-4.182504e-01	-3.890457e-01	-3.575135e-01	-3.235292e-01	-2.868234e-01	-2.471693e-01	-2.041428e-01	-1.573453e-01	-1.061923e-01	-4.978543e-02	1.262632e-02	8.215192e-02	1.602891e-01	2.482006e-01	3.474658e-01	4.597640e-01	5.849168e-01	7.217844e-01	8.650256e-01	1.004144e+00	1.111857e+00	1.168662e+00	1.130556e+00	1.032787e+00	9.448300e-01	7.230383e-01	3.293463e-01	5.137776e-03	-2.436143e-01	-4.184917e-01	-5.294037e-01	-5.947567e-01	-6.322983e-01	-6.531166e-01	-6.641150e-01	-6.696789e-01	-6.722409e-01	-6.742274e-01	-6.767112e-01	-6.795989e-01	-6.829259e-01	-6.870754e-01	-6.924799e-01	-6.993756e-01	-7.072608e-01	-7.150521e-01	-7.220549e-01	-7.284317e-01	-7.348874e-01	-7.414918e-01	-7.477797e-01	-7.535342e-01	-7.588933e-01	-7.637575e-01	-7.677077e-01	-7.703124e-01	-7.715703e-01	-7.717481e-01	-7.711873e-01	-7.701261e-01	-7.685090e-01	-7.665633e-01	-7.644640e-01	-7.626903e-01	-7.616077e-01	-7.601886e-01	-7.579019e-01	-7.582730e-01	-7.701110e-01	-7.952066e-01	-8.035855e-01	-7.136709e-01	-4.871783e-01	-3.172387e-01	-2.940158e-01	-3.332246e-01	-3.742620e-01	-3.959958e-01	-3.979228e-01	-3.924260e-01	-3.809882e-01	-3.658790e-01	-3.435080e-01	-3.091165e-01	-2.692302e-01	-2.263623e-01	-1.891984e-01	-1.580226e-01	-1.248612e-01	-9.096840e-02	-5.782359e-02	-2.666526e-02	1.489364e-03	2.709671e-02	5.039863e-02	7.132514e-02	8.991744e-02	1.063788e-01	1.209870e-01	1.338357e-01	1.449342e-01	1.541962e-01	1.613992e-01	1.664014e-01	1.691435e-01	1.698668e-01	1.690521e-01	1.674669e-01	1.658428e-01	1.645303e-01	1.633380e-01	1.626927e-01	1.685614e-01	2.007152e-01	2.960008e-01	4.697087e-01	6.508259e-01	7.546126e-01	7.147663e-01	5.000190e-01	2.638450e-01	2.466164e-01	4.380805e-01	5.078190e-01	
SCALARS Mach float 1
LOOKUP_TABLE default
5.462004e-01	5.742933e-01	5.974904e-01	6.160595e-01	6.312344e-01	6.444335e-01	6.561150e-01	6.668426e-01	6.767906e-01	6.861441e-01	6.949734e-01	7.034031e-01	7.114731e-01	7.192503e-01	7.267495e-01	7.340184e-01	7.410633e-01	7.479406e-01	7.546314e-01	7.611815e-01	7.675793e-01	7.738660e-01	7.800140e-01	7.860955e-01	7.920617e-01	7.979899e-01	8.038315e-01	8.096552e-01	8.154064e-01	8.211206e-01	8.267865e-01	8.324375e-01	8.381663e-01	8.439311e-01	8.497683e-01	8.556723e-01	8.614714e-01	8.673976e-01	8.732897e-01	8.792847e-01	8.850907e-01	8.905396e-01	8.963201e-01	9.021674e-01	9.103044e-01	9.190045e-01	9.269183e-01	9.339665e-01	9.379369e-01	9.436862e-01	9.521044e-01	9.594035e-01	9.613477e-01	9.548195e-01	9.490476e-01	9.646749e-01	1.018187e+00	1.085925e+00	1.122365e+00	1.128420e+00	1.122009e+00	1.115333e+00	1.110791e+00	1.106498e+00	1.101499e+00	1.095625e+00	1.088983e+00	1.081748e+00	1.074131e+00	1.066235e+00	1.057992e+00	1.049069e+00	1.039137e+00	1.028136e+00	1.016311e+00	1.003843e+00	9.907708e-01	9.768405e-01	9.618397e-01	9.457133e-01	9.284420e-01	9.098693e-01	8.898476e-01	8.681655e-01	8.445548e-01	8.185479e-01	7.897466e-01	7.576677e-01	7.215373e-01	6.804994e-01	6.335768e-01	5.793637e-01	5.162939e-01	4.427347e-01	3.564607e-01	2.561341e-01	1.428197e-01	1.678516e-02	1.140903e-01	2.136840e-01	3.105809e-01	4.595848e-01	6.300993e-01	7.717292e-01	8.834936e-01	9.675764e-01	1.025441e+00	1.062183e+00	1.084385e+00	1.097225e+00	1.104358e+00	1.108069e+00	1.109967e+00	1.111408e+00	1.113011e+00	1.114835e+00	1.116811e+00	1.119151e+00	1.122172e+00	1.125987e+00	1.130356e+00	1.134716e+00	1.138635e+00	1.142101e+00	1.145629e+00	1.149239e+00	1.152724e+00	1.155873e+00	1.158827e+00	1.161498e+00	1.163718e+00	1.165208e+00	1.165981e+00	1.166152e+00	1.165907e+00	1.165395e+00	1.164560e+00	1.163547e+00	1.162451e+00	1.161514e+00	1.160990e+00	1.160319e+00	1.158894e+00	1.158431e+00	1.164985e+00	1.180025e+00	1.183492e+00	1.137170e+00	1.015046e+00	9.332814e-01	9.241862e-01	9.435699e-01	9.637152e-01	9.747611e-01	9.756302e-01	9.733525e-01	9.672672e-01	9.599845e-01	9.497555e-01	9.336944e-01	9.155957e-01	8.960006e-01	8.784061e-01	8.637424e-01	8.484534e-01	8.330015e-01	8.179522e-01	8.037828e-01	7.908779e-01	7.791978e-01	7.685828e-01	7.590362e-01	7.505530e-01	7.430090e-01	7.363244e-01	7.304288e-01	7.253403e-01	7.210954e-01	7.178041e-01	7.155349e-01	7.143046e-01	7.140046e-01	7.144108e-01	7.151641e-01	7.159466e-01	7.166286e-01	7.174568e-01	7.184040e-01	7.163996e-01	6.994198e-01	6.480574e-01	5.579268e-01	4.676425e-01	4.269352e-01	4.678131e-01	5.797192e-01	6.697467e-01	6.502554e-01	5.564760e-01	4.946670e-01	