# vtk DataFile Version 3.0
vtk output
ASCII
DATASET UNSTRUCTURED_GRID
POINTS 5233 float
9.997500e-01	-3.633549e-05	0.0	9.990000e-01	-1.456654e-04	0.0	9.977600e-01	-3.296184e-04	0.0	9.960200e-01	-6.012645e-04	0.0	9.937800e-01	-9.877191e-04	0.0	9.910500e-01	-1.533015e-03	0.0	9.878400e-01	-2.293324e-03	0.0	9.841300e-01	-3.328000e-03	0.0	9.799500e-01	-4.652378e-03	0.0	9.752800e-01	-6.240870e-03	0.0	9.701500e-01	-7.988662e-03	0.0	9.645400e-01	-9.763211e-03	0.0	9.584700e-01	-1.141504e-02	0.0	9.519400e-01	-1.284410e-02	0.0	9.449600e-01	-1.402153e-02	0.0	9.375400e-01	-1.499494e-02	0.0	9.296900e-01	-1.586337e-02	0.0	9.214000e-01	-1.674166e-02	0.0	9.127000e-01	-1.772036e-02	0.0	9.035800e-01	-1.885423e-02	0.0	8.940600e-01	-2.015030e-02	0.0	8.841500e-01	-2.158030e-02	0.0	8.738500e-01	-2.309490e-02	0.0	8.631800e-01	-2.463352e-02	0.0	8.521600e-01	-2.613888e-02	0.0	8.407700e-01	-2.756937e-02	0.0	8.290500e-01	-2.888942e-02	0.0	8.170100e-01	-3.008200e-02	0.0	8.046400e-01	-3.114430e-02	0.0	7.919700e-01	-3.207961e-02	0.0	7.790100e-01	-3.289988e-02	0.0	7.657800e-01	-3.362004e-02	0.0	7.522800e-01	-3.425695e-02	0.0	7.385200e-01	-3.482569e-02	0.0	7.245300e-01	-3.533825e-02	0.0	7.103200e-01	-3.580455e-02	0.0	6.958900e-01	-3.623176e-02	0.0	6.812700e-01	-3.662356e-02	0.0	6.664700e-01	-3.698242e-02	0.0	6.515000e-01	-3.730973e-02	0.0	6.363800e-01	-3.760636e-02	0.0	6.211300e-01	-3.787365e-02	0.0	6.057600e-01	-3.811397e-02	0.0	5.902800e-01	-3.833077e-02	0.0	5.747100e-01	-3.852855e-02	0.0	5.590600e-01	-3.871290e-02	0.0	5.433600e-01	-3.888992e-02	0.0	5.276100e-01	-3.906634e-02	0.0	5.118400e-01	-3.924842e-02	0.0	4.960500e-01	-3.944217e-02	0.0	4.802700e-01	-3.965227e-02	0.0	4.645100e-01	-3.988233e-02	0.0	4.487800e-01	-4.013446e-02	0.0	4.331100e-01	-4.040876e-02	0.0	4.175000e-01	-4.070417e-02	0.0	4.019700e-01	-4.101763e-02	0.0	3.865400e-01	-4.134456e-02	0.0	3.712300e-01	-4.167907e-02	0.0	3.560400e-01	-4.201463e-02	0.0	3.409900e-01	-4.234344e-02	0.0	3.261100e-01	-4.265694e-02	0.0	3.114000e-01	-4.294690e-02	0.0	2.968700e-01	-4.320475e-02	0.0	2.825500e-01	-4.342167e-02	0.0	2.684500e-01	-4.358955e-02	0.0	2.545700e-01	-4.370066e-02	0.0	2.409400e-01	-4.374751e-02	0.0	2.275700e-01	-4.372338e-02	0.0	2.144700e-01	-4.362210e-02	0.0	2.016600e-01	-4.343822e-02	0.0	1.891400e-01	-4.316660e-02	0.0	1.769300e-01	-4.280304e-02	0.0	1.650400e-01	-4.234378e-02	0.0	1.534900e-01	-4.178612e-02	0.0	1.422900e-01	-4.112775e-02	0.0	1.314400e-01	-4.036623e-02	0.0	1.209500e-01	-3.950015e-02	0.0	1.108500e-01	-3.853085e-02	0.0	1.011300e-01	-3.745688e-02	0.0	9.181000e-02	-3.628043e-02	0.0	8.290000e-02	-3.500378e-02	0.0	7.440000e-02	-3.362851e-02	0.0	6.633000e-02	-3.216037e-02	0.0	5.869000e-02	-3.060281e-02	0.0	5.149000e-02	-2.896204e-02	0.0	4.474000e-02	-2.724548e-02	0.0	3.844000e-02	-2.545894e-02	0.0	3.260000e-02	-2.361156e-02	0.0	2.723000e-02	-2.171372e-02	0.0	2.232000e-02	-1.976869e-02	0.0	1.790000e-02	-1.779583e-02	0.0	1.395000e-02	-1.579317e-02	0.0	1.049000e-02	-1.377609e-02	0.0	7.520000e-03	-1.174940e-02	0.0	5.040000e-03	-9.714153e-03	0.0	3.050000e-03	-7.664976e-03	0.0	1.560000e-03	-5.600384e-03	0.0	5.600000e-04	-3.473875e-03	0.0	6.000000e-05	-1.215791e-03	0.0	0.000000e+00	0.000000e+00	0.0	6.000000e-05	1.171621e-03	0.0	5.600000e-04	3.240021e-03	0.0	1.560000e-03	5.084754e-03	0.0	3.050000e-03	6.793284e-03	0.0	5.040000e-03	8.420663e-03	0.0	7.520000e-03	9.980884e-03	0.0	1.049000e-02	1.148948e-02	0.0	1.395000e-02	1.295577e-02	0.0	1.790000e-02	1.438549e-02	0.0	2.232000e-02	1.577631e-02	0.0	2.723000e-02	1.713763e-02	0.0	3.260000e-02	1.846333e-02	0.0	3.844000e-02	1.975808e-02	0.0	4.474000e-02	2.102103e-02	0.0	5.149000e-02	2.225162e-02	0.0	5.869000e-02	2.345117e-02	0.0	6.633000e-02	2.461920e-02	0.0	7.440000e-02	2.575552e-02	0.0	8.290000e-02	2.686146e-02	0.0	9.181000e-02	2.793584e-02	0.0	1.011300e-01	2.898020e-02	0.0	1.108500e-01	2.999491e-02	0.0	1.209500e-01	3.097953e-02	0.0	1.314400e-01	3.193661e-02	0.0	1.422900e-01	3.286498e-02	0.0	1.534900e-01	3.376546e-02	0.0	1.650400e-01	3.463958e-02	0.0	1.769300e-01	3.548789e-02	0.0	1.891400e-01	3.631020e-02	0.0	2.016600e-01	3.710691e-02	0.0	2.144700e-01	3.787760e-02	0.0	2.275700e-01	3.862283e-02	0.0	2.409400e-01	3.934166e-02	0.0	2.545700e-01	4.003337e-02	0.0	2.684500e-01	4.069682e-02	0.0	2.825500e-01	4.132953e-02	0.0	2.968700e-01	4.192997e-02	0.0	3.114000e-01	4.249559e-02	0.0	3.261100e-01	4.302261e-02	0.0	3.409900e-01	4.350762e-02	0.0	3.560400e-01	4.394696e-02	0.0	3.712300e-01	4.433569e-02	0.0	3.865400e-01	4.466894e-02	0.0	4.019700e-01	4.494199e-02	0.0	4.175000e-01	4.514948e-02	0.0	4.331100e-01	4.528607e-02	0.0	4.487800e-01	4.534649e-02	0.0	4.645100e-01	4.532563e-02	0.0	4.802700e-01	4.521845e-02	0.0	4.960500e-01	4.502019e-02	0.0	5.118400e-01	4.472626e-02	0.0	5.276100e-01	4.433281e-02	0.0	5.433600e-01	4.383579e-02	0.0	5.590600e-01	4.323249e-02	0.0	5.747100e-01	4.251983e-02	0.0	5.902800e-01	4.169685e-02	0.0	6.057600e-01	4.076287e-02	0.0	6.211300e-01	3.971923e-02	0.0	6.363800e-01	3.856840e-02	0.0	6.515000e-01	3.731480e-02	0.0	6.664700e-01	3.596606e-02	0.0	6.812700e-01	3.453246e-02	0.0	6.958900e-01	3.302585e-02	0.0	7.103200e-01	3.146009e-02	0.0	7.245300e-01	2.985285e-02	0.0	7.385200e-01	2.821907e-02	0.0	7.522800e-01	2.657432e-02	0.0	7.657800e-01	2.493493e-02	0.0	7.790100e-01	2.331210e-02	0.0	7.919700e-01	2.171228e-02	0.0	8.046400e-01	2.014044e-02	0.0	8.170100e-01	1.859661e-02	0.0	8.290500e-01	1.708025e-02	0.0	8.407700e-01	1.558361e-02	0.0	8.521600e-01	1.410010e-02	0.0	8.631800e-01	1.262650e-02	0.0	8.738500e-01	1.115161e-02	0.0	8.841500e-01	9.670162e-03	0.0	8.940600e-01	8.179832e-03	0.0	9.035800e-01	6.682203e-03	0.0	9.127000e-01	5.193613e-03	0.0	9.214000e-01	3.752725e-03	0.0	9.296900e-01	2.418279e-03	0.0	9.375400e-01	1.276636e-03	0.0	9.449600e-01	4.134420e-04	0.0	9.519400e-01	-1.032825e-04	0.0	9.584700e-01	-2.559240e-04	0.0	9.645400e-01	-9.535254e-05	0.0	9.701500e-01	2.655991e-04	0.0	9.752800e-01	6.812865e-04	0.0	9.799500e-01	1.021065e-03	0.0	9.841300e-01	1.199408e-03	0.0	9.878400e-01	1.196955e-03	0.0	9.910500e-01	1.047212e-03	0.0	9.937800e-01	8.110509e-04	0.0	9.960200e-01	5.521978e-04	0.0	9.977600e-01	3.205107e-04	0.0	9.990000e-01	1.448339e-04	0.0	9.997500e-01	3.632231e-05	0.0	1.000000e+00	0.000000e+00	0.0	1.984229e+01	2.506660e+00	0.0	1.937166e+01	4.973800e+00	0.0	1.859553e+01	7.362490e+00	0.0	1.752613e+01	9.635070e+00	0.0	1.618034e+01	1.175571e+01	0.0	1.457937e+01	1.369094e+01	0.0	1.274848e+01	1.541027e+01	0.0	1.071654e+01	1.688656e+01	0.0	8.515590e+00	1.809654e+01	0.0	6.180340e+00	1.902113e+01	0.0	3.747630e+00	1.964575e+01	0.0	1.255810e+00	1.996053e+01	0.0	-1.255810e+00	1.996053e+01	0.0	-3.747630e+00	1.964574e+01	0.0	-6.180340e+00	1.902113e+01	0.0	-8.515590e+00	1.809654e+01	0.0	-1.071654e+01	1.688656e+01	0.0	-1.274848e+01	1.541026e+01	0.0	-1.457937e+01	1.369094e+01	0.0	-1.618034e+01	1.175570e+01	0.0	-1.752613e+01	9.635070e+00	0.0	-1.859553e+01	7.362490e+00	0.0	-1.937166e+01	4.973800e+00	0.0	-1.984229e+01	2.506660e+00	0.0	-2.000000e+01	0.000000e+00	0.0	-1.984229e+01	-2.506670e+00	0.0	-1.937166e+01	-4.973800e+00	0.0	-1.859553e+01	-7.362490e+00	0.0	-1.752613e+01	-9.635080e+00	0.0	-1.618034e+01	-1.175571e+01	0.0	-1.457937e+01	-1.369094e+01	0.0	-1.274848e+01	-1.541027e+01	0.0	-1.071653e+01	-1.688656e+01	0.0	-8.515580e+00	-1.809654e+01	0.0	-6.180340e+00	-1.902113e+01	0.0	-3.747620e+00	-1.964575e+01	0.0	-1.255810e+00	-1.996053e+01	0.0	1.255810e+00	-1.996053e+01	0.0	3.747630e+00	-1.964574e+01	0.0	6.180340e+00	-1.902113e+01	0.0	8.515590e+00	-1.809654e+01	0.0	1.071654e+01	-1.688656e+01	0.0	1.274848e+01	-1.541026e+01	0.0	1.457937e+01	-1.369094e+01	0.0	1.618034e+01	-1.175570e+01	0.0	1.752614e+01	-9.635070e+00	0.0	1.859553e+01	-7.362490e+00	0.0	1.937166e+01	-4.973790e+00	0.0	1.984229e+01	-2.506660e+00	0.0	2.000000e+01	0.000000e+00	0.0	6.108461e-02	-3.826626e-02	0.0	6.596251e-01	-5.089564e-02	0.0	4.254686e-01	5.939862e-02	0.0	6.898003e-01	4.697182e-02	0.0	3.791853e-01	-5.578655e-02	0.0	9.994689e-01	-7.244086e-04	0.0	9.985590e-01	-1.331353e-03	0.0	7.734279e-01	-4.518922e-02	0.0	6.893075e-01	-4.983086e-02	0.0	-8.383103e-04	4.971207e-03	0.0	7.463201e-01	-4.703208e-02	0.0	5.833205e-01	5.610343e-02	0.0	9.928459e-01	-3.835393e-03	0.0	9.899829e-01	-4.947286e-03	0.0	5.989072e-01	5.513842e-02	0.0	7.182478e-01	-4.855369e-02	0.0	-1.265915e-03	5.847478e-04	0.0	9.866414e-01	-6.274870e-03	0.0	9.828260e-01	-7.826056e-03	0.0	-9.395663e-04	-5.391131e-03	0.0	6.445456e-01	-5.135724e-02	0.0	8.242713e-01	-4.022437e-02	0.0	7.994441e-01	-4.295276e-02	0.0	3.484041e-01	5.750101e-02	0.0	8.477626e-01	-3.703413e-02	0.0	2.473376e-01	5.226165e-02	0.0	8.698519e-01	-3.351378e-02	0.0	1.069166e-02	1.543871e-02	0.0	8.904356e-01	-2.994951e-02	0.0	7.736002e-02	-4.199125e-02	0.0	9.094556e-01	-2.664919e-02	0.0	-1.487802e-03	-2.691658e-03	0.0	9.425450e-01	-2.081552e-02	0.0	9.268512e-01	-2.370421e-02	0.0	1.834081e-02	-2.278399e-02	0.0	4.256760e-01	-5.511773e-02	0.0	8.589917e-01	-3.529775e-02	0.0	9.564552e-01	-1.748652e-02	0.0	9.785254e-01	-9.613462e-03	0.0	9.684715e-01	-1.357479e-02	0.0	1.586213e-01	-5.261210e-02	0.0	9.001468e-01	-2.825265e-02	0.0	7.600048e-01	-4.615539e-02	0.0	9.971458e-01	-2.099152e-03	0.0	5.985369e-01	-5.248878e-02	0.0	4.413346e-01	-5.488934e-02	0.0	5.359424e-01	-5.355324e-02	0.0	4.728170e-01	-5.444075e-02	0.0	5.043876e-01	-5.400099e-02	0.0	4.885906e-01	-5.421935e-02	0.0	1.252978e-01	-4.946022e-02	0.0	2.822060e-02	-2.752269e-02	0.0	3.945894e-01	-5.557099e-02	0.0	4.657137e-02	-3.419437e-02	0.0	4.100876e-01	-5.534722e-02	0.0	3.189235e-01	-5.645312e-02	0.0	3.487529e-01	-5.617690e-02	0.0	3.387454e-02	-2.979902e-02	0.0	2.897756e-01	-5.656589e-02	0.0	9.349163e-01	-2.228371e-02	0.0	1.471598e-01	-5.166939e-02	0.0	1.950014e-01	-5.478233e-02	0.0	8.613438e-02	-4.370396e-02	0.0	1.049294e-01	-4.681171e-02	0.0	5.673676e-01	-5.307209e-02	0.0	1.704256e-01	-5.344571e-02	0.0	6.139933e-01	-5.214823e-02	0.0	8.803398e-01	-3.171722e-02	0.0	2.305309e-02	-2.517999e-02	0.0	9.952397e-01	-2.910881e-03	0.0	7.143814e-03	-1.546323e-02	0.0	1.869308e-02	1.921619e-02	0.0	9.183591e-01	-2.514132e-02	0.0	9.49
[...]
POINT_DATA 5233

SCALARS Conservative_1 float 1
LOOKUP_TABLE default
1.194809e+00	1.178802e+00	1.171635e+00	1.168826e+00	1.167358e+00	1.164408e+00	1.156130e+00	1.139737e+00	1.112781e+00	1.074813e+00	1.026258e+00	9.668223e-01	9.137521e-01	8.922813e-01	9.018485e-01	9.276594e-01	9.558985e-01	9.766683e-01	9.867075e-01	9.866814e-01	9.782086e-01	9.633779e-01	9.445062e-01	9.234032e-01	9.000950e-01	8.748061e-01	8.522371e-01	8.384599e-01	8.351451e-01	8.398261e-01	8.488727e-01	8.593512e-01	8.695914e-01	8.786739e-01	8.864346e-01	8.929493e-01	8.984476e-01	9.032108e-01	9.074567e-01	9.114457e-01	9.153143e-01	9.191980e-01	9.231117e-01	9.270596e-01	9.309563e-01	9.347217e-01	9.382284e-01	9.413784e-01	9.440531e-01	9.461679e-01	9.476277e-01	9.483810e-01	9.483760e-01	9.475955e-01	9.460246e-01	9.436724e-01	9.405512e-01	9.366927e-01	9.321388e-01	9.269341e-01	9.211504e-01	9.148103e-01	9.079268e-01	9.004623e-01	8.925775e-01	8.845733e-01	8.766721e-01	8.683775e-01	8.586054e-01	8.465924e-01	8.337805e-01	8.233168e-01	8.174951e-01	8.163208e-01	8.186506e-01	8.232659e-01	8.296457e-01	8.376118e-01	8.469707e-01	8.576092e-01	8.695380e-01	8.827225e-01	8.972275e-01	9.130543e-01	9.302684e-01	9.489870e-01	9.692492e-01	9.911921e-01	1.015051e+00	1.040919e+00	1.069177e+00	1.100344e+00	1.134780e+00	1.173331e+00	1.216343e+00	1.262992e+00	1.308354e+00	1.348199e+00	1.347737e+00	1.321032e+00	1.296106e+00	1.222298e+00	1.087322e+00	9.894656e-01	9.231056e-01	8.813510e-01	8.559569e-01	8.399283e-01	8.290829e-01	8.215069e-01	8.161533e-01	8.123078e-01	8.096948e-01	8.079408e-01	8.069561e-01	8.068227e-01	8.074544e-01	8.087833e-01	8.109032e-01	8.140499e-01	8.185209e-01	8.242223e-01	8.304310e-01	8.361036e-01	8.406327e-01	8.440992e-01	8.468798e-01	8.492552e-01	8.513315e-01	8.531173e-01	8.545591e-01	8.555785e-01	8.561099e-01	8.561311e-01	8.556652e-01	8.547277e-01	8.533369e-01	8.514913e-01	8.491836e-01	8.464145e-01	8.431730e-01	8.394669e-01	8.353753e-01	8.310384e-01	8.265598e-01	8.219539e-01	8.171096e-01	8.120316e-01	8.070942e-01	8.036445e-01	8.041445e-01	8.115315e-01	8.264140e-01	8.445015e-01	8.590760e-01	8.681717e-01	8.745816e-01	8.817104e-01	8.910718e-01	9.021802e-01	9.138650e-01	9.255282e-01	9.371315e-01	9.486615e-01	9.598709e-01	9.705407e-01	9.804691e-01	9.895741e-01	9.977638e-01	1.005118e+00	1.011706e+00	1.017703e+00	1.023347e+00	1.028898e+00	1.034655e+00	1.040941e+00	1.048122e+00	1.056675e+00	1.067096e+00	1.079888e+00	1.095151e+00	1.112375e+00	1.130115e+00	1.146385e+00	1.158845e+00	1.165193e+00	1.163411e+00	1.152192e+00	1.131395e+00	1.103375e+00	1.074343e+00	1.052066e+00	1.043977e+00	1.053162e+00	1.075268e+00	1.102376e+00	1.129354e+00	1.155756e+00	1.184006e+00	1.174298e+00	9.999827e-01	9.999868e-01	9.999807e-01	9.999688e-01	9.999574e-01	9.999440e-01	9.999222e-01	9.998893e-01	9.998506e-01	9.998160e-01	9.997916e-01	9.997961e-01	9.998300e-01	9.999004e-01	9.999613e-01	1.000010e+00	1.000036e+00	1.000051e+00	1.000058e+00	1.000061e+00	1.000061e+00	1.000061e+00	1.000060e+00	1.000061e+00	1.000061e+00	1.000063e+00	1.000066e+00	1.000071e+00	1.000077e+00	1.000086e+00	1.000095e+00	1.000109e+00	1.000120e+00	1.000133e+00	1.000138e+00	1.000133e+00	1.000117e+00	1.000095e+00	1.000079e+00	1.000071e+00	1.000070e+00	1.000068e+00	1.000064e+00	1.000057e+00	1.000048e+00	1.000035e+00	1.000028e+00	1.000023e+00	1.000001e+00	9.999785e-01	9.199538e-01	9.112206e-01	8.282409e-01	9.349396e-01	9.386846e-01	1.178739e+00	1.171571e+00	8.600720e-01	9.029510e-01	1.217325e+00	8.782640e-01	8.705032e-01	1.156116e+00	1.148978e+00	8.774938e-01	8.925096e-01	1.316102e+00	1.136989e+00	1.118052e+00	1.327294e+00	9.150199e-01	8.525924e-01	8.446632e-01	8.478856e-01	8.950164e-01	8.589270e-01	9.376350e-01	8.962239e-01	9.692879e-01	8.895153e-01	9.825973e-01	1.344776e+00	9.279063e-01	9.668368e-01	1.075795e+00	9.463699e-01	9.180061e-01	9.251551e-01	1.091125e+00	1.011823e+00	8.239143e-01	9.791131e-01	8.694879e-01	1.164712e+00	9.262342e-01	9.474808e-01	9.400157e-01	9.475449e-01	9.449036e-01	9.465438e-01	8.362441e-01	1.021902e+00	9.419590e-01	9.558961e-01	9.445261e-01	9.193243e-01	9.301586e-01	9.981162e-01	9.063499e-01	9.482713e-01	8.255703e-01	8.453118e-01	8.762564e-01	8.535012e-01	9.335382e-01	8.263247e-01	9.224940e-01	9.548612e-01	1.047708e+00	1.160646e+00	1.176819e+00	8.564363e-01	9.786202e-01	9.161568e-01	1.056312e+00	1.128200e+00	8.710277e-01	8.841993e-01	9.369318e-01	8.859358e-01	8.510834e-01	8.441199e-01	8.685387e-01	9.299457e-01	9.072605e-01	9.372071e-01	1.216391e+00	1.106459e+00	9.347354e-01	8.337940e-01	1.205238e+00	8.769002e-01	8.642558e-01	9.131151e-01	8.915431e-01	9.478694e-01	8.981212e-01	1.285909e+00	1.297150e+00	8.224326e-01	1.331300e+00	8.358710e-01	8.190819e-01	8.247697e-01	8.329203e-01	8.325451e-01	1.120756e+00	8.112618e-01	8.142085e-01	1.112151e+00	1.143133e+00	1.063682e+00	8.098960e-01	8.237889e-01	8.408099e-01	1.116576e+00	1.087572e+00	8.183277e-01	1.091333e+00	1.149017e+00	1.141461e+00	8.229299e-01	8.178880e-01	8.567672e-01	8.586478e-01	8.518760e-01	8.531894e-01	8.190840e-01	8.367582e-01	8.469836e-01	8.385849e-01	8.911128e-01	8.555064e-01	8.580605e-01	9.125083e-01	8.582853e-01	9.769722e-01	9.567726e-01	1.008896e+00	9.943926e-01	1.033021e+00	1.021260e+00	1.074750e+00	1.046310e+00	1.148156e+00	1.101827e+00	1.130445e+00	1.039329e+00	1.054312e+00	1.015261e+00	1.027093e+00	9.860641e-01	1.001995e+00	9.459494e-01	9.671718e-01	9.012406e-01	9.238192e-01	8.403258e-01	8.833375e-01	8.569564e-01	8.587350e-01	8.496817e-01	8.538012e-01	8.213395e-01	8.433852e-01	8.728758e-01	8.295016e-01	8.578762e-01	9.795063e-01	9.611520e-01	8.440352e-01	9.250006e-01	9.427057e-01	1.046636e+00	8.445362e-01	9.300762e-01	8.199793e-01	8.176613e-01	8.579198e-01	8.273691e-01	1.073171e+00	1.063144e+00	8.551896e-01	1.065113e+00	1.078274e+00	8.507610e-01	8.445583e-01	1.130367e+00	1.199730e+00	1.143838e+00	1.164430e+00	9.187522e-01	9.761653e-01	1.098387e+00	8.079473e-01	1.257926e+00	1.140124e+00	9.040643e-01	8.299733e-01	8.990490e-01	8.284206e-01	1.196165e+00	1.259385e+00	9.052633e-01	9.028364e-01	9.771118e-01	1.170069e+00	8.703834e-01	9.071825e-01	8.621869e-01	1.132175e+00	9.233522e-01	9.139212e-01	8.725628e-01	8.838628e-01	1.301491e+00	8.683736e-01	1.106314e+00	9.664567e-01	8.344625e-01	8.978787e-01	9.149031e-01	9.470838e-01	8.970386e-01	9.402428e-01	9.715361e-01	8.558548e-01	9.625755e-01	8.820254e-01	9.227379e-01	1.031183e+00	8.367710e-01	9.333786e-01	8.549254e-01	1.051981e+00	1.077339e+00	8.525093e-01	8.155897e-01	1.135029e+00	1.060487e+00	1.083268e+00	1.133116e+00	1.088437e+00	8.618222e-01	8.550417e-01	8.615050e-01	8.324986e-01	9.111748e-01	8.576664e-01	9.278899e-01	8.499750e-01	8.352322e-01	1.115278e+00	1.096135e+00	1.070124e+00	8.339041e-01	1.209087e+00	1.130918e+00	1.112588e+00	1.008316e+00	1.128304e+00	1.204571e+00	1.331118e+00	1.319210e+00	1.077581e+00	1.211940e+00	9.270765e-01	1.161441e+00	1.149685e+00	8.345981e-01	9.387655e-01	1.117427e+00	9.479522e-01	8.795522e-01	1.142572e+00	1.324862e+00	9.463736e-01	8.385769e-01	8.927659e-01	8.602213e-01	9.322438e-01	9.613796e-01	9.114314e-01	9.770513e-01	9.713719e-01	9.392169e-01	1.026354e+00	9.434887e-01	1.002790e+00	1.096948e+00	8.442998e-01	8.782461e-01	8.701894e-01	1.155480e+00	9.471331e-01	9.465488e-01	9.453501e-01	1.051114e+00	9.429536e-01	9.450034e-01	9.284022e-01	9.821409e-01	9.606515e-01	9.478612e-01	8.382845e-01	8.718891e-01	9.357810e-01	9.256506e-01	1.039539e+00	1.070931e+00	8.922306e-01	8.857189e-01	8.612643e-01	8.520208e-01	9.325571e-01	9.291412e-01	9.624409e-01	9.440983e-01	1.137045e+00	9.329179e-01	9.368881e-01	8.380180e-01	8.465576e-01	8.772016e-01	8.844792e-01	9.117926e-01	9.178360e-01	8.913706e-01	1.301651e+00	1.240237e+00	8.401659e-01	1.079163e+00	8.231265e-01	8.146486e-01	8.174789e-01	8.217258e-01	1.101662e+00	1.126331e+00	1.104575e+00	8.262185e-01	8.304978e-01	8.424716e-01	1.092588e+00	1.132282e+00	8.295044e-01	8.317218e-01	8.617044e-01	8.611593e-01	8.527571e-01	8.463189e-01	8.417188e-01	1.005989e+00	9.738265e-01	9.642697e-01	9.988895e-01	1.025063e+00	1.080881e+00	1.044400e+00	1.037543e+00	1.018989e+00	1.012690e+00	9.911462e-01	9.827928e-01	9.542380e-01	9.438860e-01	9.119893e-01	9.015999e-01	8.556410e-01	8.378148e-01	8.926642e-01	8.857954e-01	8.607522e-01	8.596471e-01	8.582846e-01	8.567274e-01	9.018865e-01	8.468459e-01	8.556474e-01	8.536635e-01	8.587417e-01	9.436247e-01	9.413940e-01	1.065168e+00	8.670477e-01	8.296810e-01	8.284025e-01	8.571642e-01	8.588847e-01	8.461818e-01	8.495613e-01	1.125588e+00	1.115956e+00	9.220947e-01	9.185370e-01	1.003366e+00	1.274422e+00	8.983230e-01	1.298632e+00	9.415522e-01	9.109336e-01	8.672597e-01	9.402669e-01	9.738694e-01	1.089099e+00	1.086201e+00	1.119781e+00	1.076572e+00	1.097617e+00	1.148646e+00	1.173900e+00	1.151126e+00	1.194724e+00	1.079287e+00	1.281223e+00	8.922211e-01	9.686256e-01	1.129051e+00	8.701728e-01	1.169850e+00	1.193621e+00	9.030621e-01	1.253267e+00	8.982120e-01	1.105602e+00	9.437180e-01	1.163222e+00	9.270141e-01	9.291716e-01	9.074250e-01	1.138202e+00	1.133883e+00	1.095781e+00	8.265330e-01	1.122790e+00	9.227828e-01	1.109749e+00	8.218464e-01	8.636730e-01	8.570747e-01	8.582199e-01	8.404683e-01	1.162526e+00	1.275134e+00	1.179770e+00	9.250999e-01	1.236706e+00	1.001136e+00	9.052583e-01	1.311879e+00	8.438729e-01	9.466752e-01	1.054411e+00	9.857798e-01	1.029334e+00	1.003519e+00	9.329145e-01	1.088758e+00	1.123038e+00	1.065745e+00	1.057177e+00	8.592680e-01	8.625663e-01	8.647637e-01	8.416460e-01	9.150513e-01	9.113694e-01	8.684529e-01	9.521745e-01	8.559692e-01	1.104731e+00	1.121868e+00	1.027574e+00	1.128504e+00	1.224036e+00	1.308478e+00	1.030753e+00	1.180488e+00	1.173616e+00	1.030890e+00	1.117373e+00	8.816748e-01	9.463068e-01	8.409184e-01	8.927805e-01	9.119310e-01	9.561433e-01	9.661826e-01	9.348310e-01	9.194772e-01	9.728400e-01	9.754947e-01	9.595361e-01	9.747087e-01	1.101982e+00	8.795591e-01	8.728616e-01	1.144435e+00	9.464528e-01	9.456319e-01	9.437581e-01	9.453304e-01	1.008913e+00	9.615670e-01	9.566961e-01	8.530819e-01	8.472700e-01	9.377062e-01	9.348720e-01	1.058227e+00	1.082034e+00	8.926684e-01	8.864360e-01	8.803988e-01	8.696542e-01	8.604632e-01	9.318049e-01	9.286049e-01	9.886950e-01	9.695184e-01	9.514770e-01	9.314165e-01	9.353627e-01	9.387398e-01	8.446413e-01	8.497475e-01	8.584807e-01	8.776555e-01	8.852111e-01	9.167768e-01	9.221057e-01	8.918801e-01	8.545049e-01	8.222106e-01	8.252202e-01	1.113334e+00	8.292506e-01	8.333137e-01	8.371770e-01	8.445638e-01	1.094857e+00	8.437297e-01	8.483489e-01	8.644097e-01	8.647872e-01	8.530985e-01	8.496202e-01	8.455741e-01	9.716481e-01	1.084909e+00	1.074990e+00	1.049368e+00	1.042254e+00	1.035710e+00	1.023062e+00	1.016818e+00	1.010342e+00	9.963548e-01	9.886566e-01	9.803977e-01	9.624248e-01	9.527966e-01	9.429490e-01	9.126715e-01	8.537958e-01	8.378045e-01	9.032556e-01	8.953627e-01	8.889441e-01	8.643522e-01	8.635616e-01	8.625180e-01	8.613162e-01	8.599478e-01	8.626647e-01	8.733342e-01	8.643169e-01	8.668490e-01	8.764114e-01	9.443095e-01	9.424802e-01	8.868370e-01	9.036540e-01	8.389071e-01	8.379657e-01	8.385566e-01	8.611094e-01	8.481375e-01	8.515219e-01	8.545248e-01	1.119211e+00	1.112849e+00	1.104488e+00	9.253067e-01	9.219625e-01	9.185477e-01	8.982739e-01	9.047365e-01	1.273655e+00	9.011262e-01	1.116488e+00	1.094268e+00	9.394004e-01	1.255035e+00	1.156302e+00	9.737080e-01	9.711559e-01	1.034395e+00	1.098776e+00	8.299541e-01	1.251471e+00	9.730340e-01	1.180966e+00	1.112351e+00	1.106826e+00	1.165565e+00	9.229050e-01	1.124675e+00	1.178808e+00	1.181575e+00	8.740845e-01	8.554142e-01	1.080010e+00	9.425942e-01	9.139927e-01	9.460642e-01	9.162973e-01	1.092129e+00	8.682793e-01	1.113231e+00	1.111712e+00	1.001561e+00	8.619516e-01	8.673451e-01	1.116461e+00	8.555327e-01	9.418855e-01	1.134639e+00	1.093488e+00	1.141018e+00	1.049553e+00	1.103659e+00	9.078335e-01	1.207245e+00	9.040647e-01	8.987892e-01	1.129047e+00	1.126178e+00	1.155034e+00	1.027234e+00	8.309720e-01	8.636514e-01	1.212667e+00	1.004615e+00	9.333090e-01	1.062025e+00	8.617851e-01	8.652177e-01	8.664415e-01	9.152850e-01	9.121013e-01	1.098876e+00	1.040874e+00	1.082155e+00	1.232111e+00	1.284994e+00	1.056625e+00	1.026949e+00	1.104052e+00	8.838098e-01	9.128932e-01	9.284161e-01	9.532419e-01	9.627087e-01	9.427761e-01	9.278599e-01	9.696714e-01	9.738604e-01	9.750715e-01	9.848110e-01	1.004020e+00	8.819505e-01	8.787828e-01	1.134300e+00	9.461610e-01	9.456985e-01	9.442955e-01	9.454475e-01	9.697953e-01	9.733202e-01	8.633267e-01	8.573758e-01	9.370355e-01	1.070280e+00	1.088688e+00	8.942838e-01	8.879742e-01	8.893347e-01	8.789817e-01	8.705345e-01	9.341827e-01	9.314710e-01	1.014435e+00	9.949682e-01	9.760873e-01	9.586472e-01	9.302931e-01	9.341311e-01	9.374393e-01	9.402867e-01	8.572063e-01	8.626083e-01	8.703681e-01	8.789052e-01	8.865084e-01	9.260779e-01	9.213542e-01	8.932229e-01	8.304822e-01	1.104327e+00	1.109182e+00	8.335180e-01	8.370213e-01	8.405956e-01	8.440410e-01	8.474130e-01	8.615982e-01	8.694238e-01	8.679164e-01	8.681662e-01	8.596379e-01	8.569075e-01	8.539825e-01	8.509274e-01	1.086924e+00	1.078492e+00	1.070186e+00	1.054335e+00	1.047216e+00	1.040604e+00	1.033425e+00	1.021768e+00	1.014666e+00	1.008270e+00	9.941965e-01	9.867709e-01	9.784810e-01	9.703100e-01	9.610433e-01	9.523126e-01	9.423187e-01	8.404534e-01	8.520019e-01	9.144444e-01	9.051113e-01	8.991073e-01	8.915220e-01	8.680484e-01	8.675873e-01	8.667842e-01	8.658181e-01	8.647955e-01	8.635652e-01	8.787314e-01	8.906938e-01	8.770293e-01	8.837031e-01	8.963612e-01	9.447058e-01	9.434172e-01	9.416141e-01	9.059866e-01	9.242959e-01	9.461397e-01	8.485242e-01	8.476518e-01	8.489026e-01	8.515672e-01	8.506847e-01	8.538841e-01	8.569871e-01	8.595646e-01	1.094921e+00	1.107816e+00	1.102201e+00	9.282399e-01	9.254008e-01	9.219480e-01	9.190151e-01	8.991722e-01	9.051011e-01	9.107759e-01	1.124096e+00	1.113315e+00	1.044945e+00	1.169584e+00	1.147167e+00	9.032285e-01	9.107060e-01	1.169649e+00	1.096203e+00	1.213329e+00	1.058222e+00	8.682447e-01	8.660342e-01	1.019469e+00	1.120733e+00	1.225811e+00	1.287994e+00	1.289577e+00	1.274428e+00	1.230598e+00	1.135194e+00	8.668233e-01	1.062400e+00	1.115598e+00	9.801916e-01	8.858875e-01	9.434862e-01	1.104696e+00	1.087723e+00	1.102023e+00	8.592028e-01	8.418450e-01	9.285748e-01	9.959367e-01	8.384291e-01	9.399180e-01	8.643109e-01	1.099350e+00	9.233052e-01	1.155743e+00	1.095011e+00	1.284319e+00	1.176693e+00	1.168645e+00	9.773432e-01	1.038539e+00	1.248704e+00	9.904378e-01	1.191996e+00	1.104843e+00	1.154601e+00	1.170308e+00	1.171268e+00	1.101822e+00	9.252297e-01	9.209676e-01	1.095938e+00	8.824759e-01	1.104403e+00	1.105153e+00	9.109851e-01	1.191795e+00	8.678969e-01	8.697502e-01	8.702350e-01	9.177938e-01	1.050959e+00	1.085258e+00	1.259914e+00	1.080415e+00	9.305401e-01	9.410936e-01	9.521757e-01	9.609489e-01	9.366945e-01	9.516467e-01	9.683783e-01	9.732190e-01	9.762943e-01	9.778844e-01	1.008978e+00	1.026727e+00	8.891880e-01	1.124010e+00	9.458366e-01	9.456841e-01	9.446492e-01	9.453690e-01	9.847031e-01	9.941343e-01	8.737732e-01	8.672772e-01	1.078601e+00	1.092950e+00	8.961778e-01	8.989071e-01	8.878945e-01	8.823836e-01	9.352357e-01	1.019734e+00	1.001037e+00	9.829810e-01	9.671277e-01	9.294238e-01	9.330435e-01	9.363381e-01	9.391798e-01	9.414923e-01	8.683683e-01	8.743329e-01	8.799225e-01	8.877005e-01	8.940297e-01	1.098701e+00	1.101531e+00	1.103791e+00	8.382976e-01	8.421911e-01	8.442742e-01	8.482696e-01	8.505021e-01	8.754626e-01	8.846524e-01	8.715180e-01	8.714350e-01	8.631025e-01	8.620050e-01	8.601094e-01	1.079946e+00	1.073257e+00	1.065516e+00	1.058542e+00	1.051377e+00	1.044872e+00	1.037909e+00	1.028433e+00	1.019800e+00	1.009235e+00	9.810323e-01	9.646661e-01	9.469142e-01	9.122481e-01	8.983518e-01	8.720955e-01	8.713549e-01	8.714334e-01	8.700823e-01	8.700622e-01	8.691251e-01	8.678933e-01	8.956309e-01	9.082917e-01	8.918233e-01	8.997431e-01	9.151901e-01	9.449316e-01	9.432365e-01	9.241482e-01	9.436136e-01	9.652599e-01	8.586039e-01	8.583402e-01	8.600644e-01	8.643135e-01	8.693221e-01	8.542016e-01	8.563107e-01	8.596861e-01	8.627490e-01	1.098573e+00	1.092443e+00	9.298039e-01	9.239933e-01	9.005330e-01	9.056588e-01	9.113117e-01	9.159717e-01	1.162724e+00	1.142869e+00	1.158634e+00	1.245440e+00	1.174226e+00	1.071149e+00	1.099082e+00	1.173963e+00	1.097938e+00	1.137134e+00	1.095666e+00	1.237933e+00	1.059811e+00	1.138882e+00	8.687314e-01	1.170646e+00	1.057984e+00	1.144176e+00	1.118824e+00	1.057366e+00	9.419514e-01	1.096485e+00	9.267311e-01	9.934012e-01	9.851247e-01	9.286242e-01	9.204188e-01	8.793685e-01	1.210842e+00	9.444254e-01	9.470305e-01	9.338758e-01	8.696125e-01	1.095545e+00	1.082372e+00	1.202149e+00	1.030627e+00	1.042958e+00	1.162281e+00	1.095354e+00	1.285296e+00	1.226005e+00	1.105953e+00	9.045118e-01	8.484682e-01	8.466493e-01	1.103238e+00	1.166894e+00	1.118408e+00	1.262565e+00	1.171453e+00	1.042283e+00	1.195544e+00	1.177697e+00	8.780039e-01	1.079367e+00	1.097869e+00	1.095628e+00	8.584544e-01	8.719723e-01	8.742319e-01	9.108236e-01	1.086708e+00	1.115922e+00	1.099713e+00	9.475999e-01	9.639859e-01	9.603218e-01	9.758360e-01	9.817266e-01	1.028249e+00	1.114871e+00	9.454811e-01	1.002480e+00	1.014220e+00	8.817575e-01	1.083961e+00	8.989591e-01	8.959594e-01	9.041782e-01	8.926351e-01	9.384155e-01	1.024720e+00	1.006139e+00	9.891005e-01	9.773923e-01	9.337623e-01	9.392967e-01	9.426786e-01	8.860559e-01	8.979314e-01	1.096446e+00	1.097445e+00	8.508098e-01	8.560805e-01	9.000787e-01	8.754742e-01	8.691393e-01	1.015646e+00	1.070729e+00	1.057664e+00	1.045019e+00	1.034206e+00	1.025128e+00	1.003995e+00	9.905450e-01	9.757825e-01	9.597063e-01	9.424256e-01	9.259245e-01	9.120494e-01	8.976662e-01	8.756580e-01	8.750722e-01	8.748154e-01	8.730675e-01	8.724297e-01	9.127810e-01	9.261921e-01	8.994043e-01	9.115540e-01	9.318952e-01	9.452946e-01	9.441275e-01	9.417288e-01	9.608986e-01	9.823201e-01	1.005098e+00	8.690160e-01	8.694457e-01	8.716922e-01	8.766819e-01	8.843661e-01	8.885592e-01	8.609496e-01	8.656271e-01	1.094766e+00	1.090057e+00	9.337918e-01	9.231386e-01	9.172532e-01	9.092412e-01	9.185873e-01	1.107862e+00	1.161662e+00	1.157383e+00	1.125114e+00	1.004289e+00	1.101217e+00	1.166914e+00	1.131206e+00	1.164505e+00	1.113879e+00	1.143950e+00	1.121544e+00	1.086879e+00	1.182077e+00	1.217199e+00	1.093039e+00	9.075846e-01	8.717588e-01	1.114566e+00	9.837327e-01	1.078393e+00	9.095044e-01	1.062974e+00	1.148269e+00	9.437557e-01	1.008422e+00	9.279170e-01	9.408552e-01	1.066064e+00	1.077144e+00	1.061257e+00	1.046161e+00	1.163494e+00	1.095432e+00	1.097677e+00	1.092357e+00	8.774083e-01	8.954643e-01	9.174059e-01	9.682595e-01	1.139644e+00	1.147347e+00	1.261576e+00	1.054328e+00	1.092725e+00	1.168737e+00	1.087677e+00	1.158853e+00	1.130936e+00	9.433762e-01	1.205617e+00	9.584935e-01	9.430499e-01	1.094054e+00	1.221830e+00	1.042364e+00	1.097349e+00	9.120626e-01	1.238988e+00	1.170324e+00	9.841219e-01	1.192977e+00	1.179451e+00	8.620030e-01	1.096404e+00	1.090659e+00	8.766248e-01	8.747995e-01	9.116672e-01	1.111008e+00	1.134654e+00	9.615361e-01	9.742963e-01	9.900062e-01	9.978993e-01	1.106893e+00	9.450337e-01	1.019005e+00	1.030336e+00	9.414357e-01	9.165862e-01	9.320683e-01	9.052793e-01	9.282632e-01	9.137893e-01	9.014959e-01	1.028216e+00	9.318048e-01	9.374202e-01	8.930588e-01	8.916615e-01	9.227987e-01	1.093354e+00	8.554697e-01	8.558557e-01	8.781769e-01	1.073136e+00	1.062155e+00	1.021213e+00	1.050536e+00	1.039761e+00	1.030293e+00	1.010977e+00	9.989582e-01	9.855925e-01	9.711354e-01	9.554098e-01	9.393003e-01	9.249259e-01	8.791990e-01	8.801736e-01	8.805162e-01	8.803487e-01	8.786204e-01	8.780266e-01	9.288987e-01	9.437307e-01	9.075127e-01	9.477235e-01	9.454557e-01	9.448560e-01	9.586077e-01	9.762807e-01	9.966859e-01	1.017459e+00	1.039540e+00	8.800762e-01	8.822610e-01	8.845656e-01	8.893460e-01	8.976129e-01	8.596719e-01	8.639968e-01	8.681727e-01	1.088041e+00	1.081833e+00	9.372078e-01	9.327571e-01	8.978636e-01	9.078899e-01	9.173655e-01	9.251217e-01	1.142443e+00	1.149688e+00	1.147030e+00	1.110229e+00	1.145444e+00	1.128557e+00	1.105892e+00	1.022366e+00	1.166287e+00	1.114495e+00	1.111303e+00	1.052052e+00	1.157523e+00	1.088887e+00	8.829913e-01	1.132960e+00	1.137111e+00	1.108239e+00	1.162154e+00	1.066532e+00	9.116559e-01	1.007260e+00	9.926787e-01	9.141753e-01	1.128493e+00	1.121896e+00	1.118205e+00	1.166460e+00	1.152072e+00	8.946991e-01	9.