# vtk DataFile Version 3.0
vtk output
ASCII
DATASET UNSTRUCTURED_GRID
POINTS 200 float
9.997500e-01	-3.633549e-05	0.0	9.990000e-01	-1.456654e-04	0.0	9.977600e-01	-3.296184e-04	0.0	9.960200e-01	-6.012645e-04	0.0	9.937800e-01	-9.877191e-04	0.0	9.910500e-01	-1.533015e-03	0.0	9.878400e-01	-2.293324e-03	0.0	9.841300e-01	-3.328000e-03	0.0	9.799500e-01	-4.652378e-03	0.0	9.752800e-01	-6.240870e-03	0.0	9.701500e-01	-7.988662e-03	0.0	9.645400e-01	-9.763211e-03	0.0	9.584700e-01	-1.141504e-02	0.0	9.519400e-01	-1.284410e-02	0.0	9.449600e-01	-1.402153e-02	0.0	9.375400e-01	-1.499494e-02	0.0	9.296900e-01	-1.586337e-02	0.0	9.214000e-01	-1.674166e-02	0.0	9.127000e-01	-1.772036e-02	0.0	9.035800e-01	-1.885423e-02	0.0	8.940600e-01	-2.015030e-02	0.0	8.841500e-01	-2.158030e-02	0.0	8.738500e-01	-2.309490e-02	0.0	8.631800e-01	-2.463352e-02	0.0	8.521600e-01	-2.613888e-02	0.0	8.407700e-01	-2.756937e-02	0.0	8.290500e-01	-2.888942e-02	0.0	8.170100e-01	-3.008200e-02	0.0	8.046400e-01	-3.114430e-02	0.0	7.919700e-01	-3.207961e-02	0.0	7.790100e-01	-3.289988e-02	0.0	7.657800e-01	-3.362004e-02	0.0	7.522800e-01	-3.425695e-02	0.0	7.385200e-01	-3.482569e-02	0.0	7.245300e-01	-3.533825e-02	0.0	7.103200e-01	-3.580455e-02	0.0	6.958900e-01	-3.623176e-02	0.0	6.812700e-01	-3.662356e-02	0.0	6.664700e-01	-3.698242e-02	0.0	6.515000e-01	-3.730973e-02	0.0	6.363800e-01	-3.760636e-02	0.0	6.211300e-01	-3.787365e-02	0.0	6.057600e-01	-3.811397e-02	0.0	5.902800e-01	-3.833077e-02	0.0	5.747100e-01	-3.852855e-02	0.0	5.590600e-01	-3.871290e-02	0.0	5.433600e-01	-3.888992e-02	0.0	5.276100e-01	-3.906634e-02	0.0	5.118400e-01	-3.924842e-02	0.0	4.960500e-01	-3.944217e-02	0.0	4.802700e-01	-3.965227e-02	0.0	4.645100e-01	-3.988233e-02	0.0	4.487800e-01	-4.013446e-02	0.0	4.331100e-01	-4.040876e-02	0.0	4.175000e-01	-4.070417e-02	0.0	4.019700e-01	-4.101763e-02	0.0	3.865400e-01	-4.134456e-02	0.0	3.712300e-01	-4.167907e-02	0.0	3.560400e-01	-4.201463e-02	0.0	3.409900e-01	-4.234344e-02	0.0	3.261100e-01	-4.265694e-02	0.0	3.114000e-01	-4.294690e-02	0.0	2.968700e-01	-4.320475e-02	0.0	2.825500e-01	-4.342167e-02	0.0	2.684500e-01	-4.358955e-02	0.0	2.545700e-01	-4.370066e-02	0.0	2.409400e-01	-4.374751e-02	0.0	2.275700e-01	-4.372338e-02	0.0	2.144700e-01	-4.362210e-02	0.0	2.016600e-01	-4.343822e-02	0.0	1.891400e-01	-4.316660e-02	0.0	1.769300e-01	-4.280304e-02	0.0	1.650400e-01	-4.234378e-02	0.0	1.534900e-01	-4.178612e-02	0.0	1.422900e-01	-4.112775e-02	0.0	1.314400e-01	-4.036623e-02	0.0	1.209500e-01	-3.950015e-02	0.0	1.108500e-01	-3.853085e-02	0.0	1.011300e-01	-3.745688e-02	0.0	9.181000e-02	-3.628043e-02	0.0	8.290000e-02	-3.500378e-02	0.0	7.440000e-02	-3.362851e-02	0.0	6.633000e-02	-3.216037e-02	0.0	5.869000e-02	-3.060281e-02	0.0	5.149000e-02	-2.896204e-02	0.0	4.474000e-02	-2.724548e-02	0.0	3.844000e-02	-2.545894e-02	0.0	3.260000e-02	-2.361156e-02	0.0	2.723000e-02	-2.171372e-02	0.0	2.232000e-02	-1.976869e-02	0.0	1.790000e-02	-1.779583e-02	0.0	1.395000e-02	-1.579317e-02	0.0	1.049000e-02	-1.377609e-02	0.0	7.520000e-03	-1.174940e-02	0.0	5.040000e-03	-9.714153e-03	0.0	3.050000e-03	-7.664976e-03	0.0	1.560000e-03	-5.600384e-03	0.0	5.600000e-04	-3.473875e-03	0.0	6.000000e-05	-1.215791e-03	0.0	0.000000e+00	0.000000e+00	0.0	6.000000e-05	1.171621e-03	0.0	5.600000e-04	3.240021e-03	0.0	1.560000e-03	5.084754e-03	0.0	3.050000e-03	6.793284e-03	0.0	5.040000e-03	8.420663e-03	0.0	7.520000e-03	9.980884e-03	0.0	1.049000e-02	1.148948e-02	0.0	1.395000e-02	1.295577e-02	0.0	1.790000e-02	1.438549e-02	0.0	2.232000e-02	1.577631e-02	0.0	2.723000e-02	1.713763e-02	0.0	3.260000e-02	1.846333e-02	0.0	3.844000e-02	1.975808e-02	0.0	4.474000e-02	2.102103e-02	0.0	5.149000e-02	2.225162e-02	0.0	5.869000e-02	2.345117e-02	0.0	6.633000e-02	2.461920e-02	0.0	7.440000e-02	2.575552e-02	0.0	8.290000e-02	2.686146e-02	0.0	9.181000e-02	2.793584e-02	0.0	1.011300e-01	2.898020e-02	0.0	1.108500e-01	2.999491e-02	0.0	1.209500e-01	3.097953e-02	0.0	1.314400e-01	3.193661e-02	0.0	1.422900e-01	3.286498e-02	0.0	1.534900e-01	3.376546e-02	0.0	1.650400e-01	3.463958e-02	0.0	1.769300e-01	3.548789e-02	0.0	1.891400e-01	3.631020e-02	0.0	2.016600e-01	3.710691e-02	0.0	2.144700e-01	3.787760e-02	0.0	2.275700e-01	3.862283e-02	0.0	2.409400e-01	3.934166e-02	0.0	2.545700e-01	4.003337e-02	0.0	2.684500e-01	4.069682e-02	0.0	2.825500e-01	4.132953e-02	0.0	2.968700e-01	4.192997e-02	0.0	3.114000e-01	4.249559e-02	0.0	3.261100e-01	4.302261e-02	0.0	3.409900e-01	4.350762e-02	0.0	3.560400e-01	4.394696e-02	0.0	3.712300e-01	4.433569e-02	0.0	3.865400e-01	4.466894e-02	0.0	4.019700e-01	4.494199e-02	0.0	4.175000e-01	4.514948e-02	0.0	4.331100e-01	4.528607e-02	0.0	4.487800e-01	4.534649e-02	0.0	4.645100e-01	4.532563e-02	0.0	4.802700e-01	4.521845e-02	0.0	4.960500e-01	4.502019e-02	0.0	5.118400e-01	4.472626e-02	0.0	5.276100e-01	4.433281e-02	0.0	5.433600e-01	4.383579e-02	0.0	5.590600e-01	4.323249e-02	0.0	5.747100e-01	4.251983e-02	0.0	5.902800e-01	4.169685e-02	0.0	6.057600e-01	4.076287e-02	0.0	6.211300e-01	3.971923e-02	0.0	6.363800e-01	3.856840e-02	0.0	6.515000e-01	3.731480e-02	0.0	6.664700e-01	3.596606e-02	0.0	6.812700e-01	3.453246e-02	0.0	6.958900e-01	3.302585e-02	0.0	7.103200e-01	3.146009e-02	0.0	7.245300e-01	2.985285e-02	0.0	7.385200e-01	2.821907e-02	0.0	7.522800e-01	2.657432e-02	0.0	7.657800e-01	2.493493e-02	0.0	7.790100e-01	2.331210e-02	0.0	7.919700e-01	2.171228e-02	0.0	8.046400e-01	2.014044e-02	0.0	8.170100e-01	1.859661e-02	0.0	8.290500e-01	1.708025e-02	0.0	8.407700e-01	1.558361e-02	0.0	8.521600e-01	1.410010e-02	0.0	8.631800e-01	1.262650e-02	0.0	8.738500e-01	1.115161e-02	0.0	8.841500e-01	9.670162e-03	0.0	8.940600e-01	8.179832e-03	0.0	9.035800e-01	6.682203e-03	0.0	9.127000e-01	5.193613e-03	0.0	9.214000e-01	3.752725e-03	0.0	9.296900e-01	2.418279e-03	0.0	9.375400e-01	1.276636e-03	0.0	9.449600e-01	4.134420e-04	0.0	9.519400e-01	-1.032825e-04	0.0	9.584700e-01	-2.559240e-04	0.0	9.645400e-01	-9.535254e-05	0.0	9.701500e-01	2.655991e-04	0.0	9.752800e-01	6.812865e-04	0.0	9.799500e-01	1.021065e-03	0.0	9.841300e-01	1.199408e-03	0.0	9.878400e-01	1.196955e-03	0.0	9.910500e-01	1.047212e-03	0.0	9.937800e-01	8.110509e-04	0.0	9.960200e-01	5.521978e-04	0.0	9.977600e-01	3.205107e-04	0.0	9.990000e-01	1.448339e-04	0.0	9.997500e-01	3.632231e-05	0.0	1.000000e+00	0.000000e+00	0.0	
CELLS 200	600
2	199	0	2	0	1	2	1	2	2	2	3	2	3	4	2	4	5	2	5	6	2	6	7	2	7	8	2	8	9	2	9	10	2	10	11	2	11	12	2	12	13	2	13	14	2	14	15	2	15	16	2	16	17	2	17	18	2	18	19	2	19	20	2	20	21	2	21	22	2	22	23	2	23	24	2	24	25	2	25	26	2	26	27	2	27	28	2	28	29	2	29	30	2	30	31	2	31	32	2	32	33	2	33	34	2	34	35	2	35	36	2	36	37	2	37	38	2	38	39	2	39	40	2	40	41	2	41	42	2	42	43	2	43	44	2	44	45	2	45	46	2	46	47	2	47	48	2	48	49	2	49	50	2	50	51	2	51	52	2	52	53	2	53	54	2	54	55	2	55	56	2	56	57	2	57	58	2	58	59	2	59	60	2	60	61	2	61	62	2	62	63	2	63	64	2	64	65	2	65	66	2	66	67	2	67	68	2	68	69	2	69	70	2	70	71	2	71	72	2	72	73	2	73	74	2	74	75	2	75	76	2	76	77	2	77	78	2	78	79	2	79	80	2	80	81	2	81	82	2	82	83	2	83	84	2	84	85	2	85	86	2	86	87	2	87	88	2	88	89	2	89	90	2	90	91	2	91	92	2	92	93	2	93	94	2	94	95	2	95	96	2	96	97	2	97	98	2	98	99	2	99	100	2	100	101	2	101	102	2	102	103	2	103	104	2	104	105	2	105	106	2	106	107	2	107	108	2	108	109	2	109	110	2	110	111	2	111	112	2	112	113	2	113	114	2	114	115	2	115	116	2	116	117	2	117	118	2	118	119	2	119	120	2	120	121	2	121	122	2	122	123	2	123	124	2	124	125	2	125	126	2	126	127	2	127	128	2	128	129	2	129	130	2	130	131	2	131	132	2	132	133	2	133	134	2	134	135	2	135	136	2	136	137	2	137	138	2	138	139	2	139	140	2	140	141	2	141	142	2	142	143	2	143	144	2	144	145	2	145	146	2	146	147	2	147	148	2	148	149	2	149	150	2	150	151	2	151	152	2	152	153	2	153	154	2	154	155	2	155	156	2	156	157	2	157	158	2	158	159	2	159	160	2	160	161	2	161	162	2	162	163	2	163	164	2	164	165	2	165	166	2	166	167	2	167	168	2	168	169	2	169	170	2	170	171	2	171	172	2	172	173	2	173	174	2	174	175	2	175	176	2	176	177	2	177	178	2	178	179	2	179	180	2	180	181	2	181	182	2	182	183	2	183	184	2	184	185	2	185	186	2	186	187	2	187	188	2	188	189	2	189	190	2	190	191	2	191	192	2	192	193	2	193	194	2	194	195	2	195	196	2	196	197	2	197	198	2	198	199	
CELL_TYPES 200
3	3	3	3	3	3	3	3	3	3	3	3	3	3	3	3	3	3	3	3	3	3	3	3	3	3	3	3	3	3	3	3	3	3	3	3	3	3	3	3	3	3	3	3	3	3	3	3	3	3	3	3	3	3	3	3	3	3	3	3	3	3	3	3	3	3	3	3	3	3	3	3	3	3	3	3	3	3	3	3	3	3	3	3	3	3	3	3	3	3	3	3	3	3	3	3	3	3	3	3	3	3	3	3	3	3	3	3	3	3	3	3	3	3	3	3	3	3	3	3	3	3	3	3	3	3	3	3	3	3	3	3	3	3	3	3	3	3	3	3	3	3	3	3	3	3	3	3	3	3	3	3	3	3	3	3	3	3	3	3	3	3	3	3	3	3	3	3	3	3	3	3	3	3	3	3	3	3	3	3	3	3	3	3	3	3	3	3	3	3	3	3	3	3	3	3	3	3	3	3	
POINT_DATA 200

SCALARS Conservative_1 float 1
LOOKUP_TABLE default
1.194809e+00	1.178802e+00	1.171635e+00	1.168826e+00	1.167358e+00	1.164408e+00	1.156130e+00	1.139737e+00	1.112781e+00	1.074813e+00	1.026258e+00	9.668223e-01	9.137521e-01	8.922813e-01	9.018485e-01	9.276594e-01	9.558985e-01	9.766683e-01	9.867075e-01	9.866814e-01	9.782086e-01	9.633779e-01	9.445062e-01	9.234032e-01	9.000950e-01	8.748061e-01	8.522371e-01	8.384599e-01	8.351451e-01	8.398261e-01	8.488727e-01	8.593512e-01	8.695914e-01	8.786739e-01	8.864346e-01	8.929493e-01	8.984476e-01	9.032108e-01	9.074567e-01	9.114457e-01	9.153143e-01	9.191980e-01	9.231117e-01	9.270596e-01	9.309563e-01	9.347217e-01	9.382284e-01	9.413784e-01	9.440531e-01	9.461679e-01	9.476277e-01	9.483810e-01	9.483760e-01	9.475955e-01	9.460246e-01	9.436724e-01	9.405512e-01	9.366927e-01	9.321388e-01	9.269341e-01	9.211504e-01	9.148103e-01	9.079268e-01	9.004623e-01	8.925775e-01	8.845733e-01	8.766721e-01	8.683775e-01	8.586054e-01	8.465924e-01	8.337805e-01	8.233168e-01	8.174951e-01	8.163208e-01	8.186506e-01	8.232659e-01	8.296457e-01	8.376118e-01	8.469707e-01	8.576092e-01	8.695380e-01	8.827225e-01	8.972275e-01	9.130543e-01	9.302684e-01	9.489870e-01	9.692492e-01	9.911921e-01	1.015051e+00	1.040919e+00	1.069177e+00	1.100344e+00	1.134780e+00	1.173331e+00	1.216343e+00	1.262992e+00	1.308354e+00	1.348199e+00	1.347737e+00	1.321032e+00	1.296106e+00	1.222298e+00	1.087322e+00	9.894656e-01	9.231056e-01	8.813510e-01	8.559569e-01	8.399283e-01	8.290829e-01	8.215069e-01	8.161533e-01	8.123078e-01	8.096948e-01	8.079408e-01	8.069561e-01	8.068227e-01	8.074544e-01	8.087833e-01	8.109032e-01	8.140499e-01	8.185209e-01	8.242223e-01	8.304310e-01	8.361036e-01	8.406327e-01	8.440992e-01	8.468798e-01	8.492552e-01	8.513315e-01	8.531173e-01	8.545591e-01	8.555785e-01	8.561099e-01	8.561311e-01	8.556652e-01	8.547277e-01	8.533369e-01	8.514913e-01	8.491836e-01	8.464145e-01	8.431730e-01	8.394669e-01	8.353753e-01	8.310384e-01	8.265598e-01	8.219539e-01	8.171096e-01	8.120316e-01	8.070942e-01	8.036445e-01	8.041445e-01	8.115315e-01	8.264140e-01	8.445015e-01	8.590760e-01	8.681717e-01	8.745816e-01	8.817104e-01	8.910718e-01	9.021802e-01	9.138650e-01	9.255282e-01	9.371315e-01	9.486615e-01	9.598709e-01	9.705407e-01	9.804691e-01	9.895741e-01	9.977638e-01	1.005118e+00	1.011706e+00	1.017703e+00	1.023347e+00	1.028898e+00	1.034655e+00	1.040941e+00	1.048122e+00	1.056675e+00	1.067096e+00	1.079888e+00	1.095151e+00	1.112375e+00	1.130115e+00	1.146385e+00	1.158845e+00	1.165193e+00	1.163411e+00	1.152192e+00	1.131395e+00	1.103375e+00	1.074343e+00	1.052066e+00	1.043977e+00	1.053162e+00	1.075268e+00	1.102376e+00	1.129354e+00	1.155756e+00	1.184006e+00	1.174298e+00	
SCALARS Conservative_2 float 1
LOOKUP_TABLE default
7.180607e-01	7.401486e-01	7.531141e-01	7.579833e-01	7.579369e-01	7.582475e-01	7.623637e-01	7.745500e-01	7.972795e-01	8.304038e-01	8.706040e-01	9.108724e-01	9.415154e-01	9.613366e-01	9.700948e-01	9.677926e-01	9.597026e-01	9.509611e-01	9.445262e-01	9.424075e-01	9.446135e-01	9.499802e-01	9.568155e-01	9.637821e-01	9.700019e-01	9.745737e-01	9.768640e-01	9.778596e-01	9.784762e-01	9.790225e-01	9.794438e-01	9.795548e-01	9.794556e-01	9.790324e-01	9.784701e-01	9.777967e-01	9.771120e-01	9.764613e-01	9.757599e-01	9.750661e-01	9.742952e-01	9.734855e-01	9.725788e-01	9.716244e-01	9.706015e-01	9.695779e-01	9.685580e-01	9.676200e-01	9.667802e-01	9.661065e-01	9.656117e-01	9.653600e-01	9.653462e-01	9.655961e-01	9.660977e-01	9.668514e-01	9.678229e-01	9.689880e-01	9.702991e-01	9.717011e-01	9.731696e-01	9.746295e-01	9.760872e-01	9.774499e-01	9.786853e-01	9.796287e-01	9.803354e-01	9.808379e-01	9.813115e-01	9.814825e-01	9.810556e-01	9.800355e-01	9.790319e-01	9.782148e-01	9.776871e-01	9.771253e-01	9.765180e-01	9.756586e-01	9.742382e-01	9.720896e-01	9.691006e-01	9.649527e-01	9.594240e-01	9.521356e-01	9.426781e-01	9.305065e-01	9.149669e-01	8.953734e-01	8.706680e-01	8.393741e-01	7.997221e-01	7.491483e-01	6.837457e-01	5.991085e-01	4.892668e-01	3.507406e-01	1.944299e-01	5.212566e-02	-1.117605e-02	6.817490e-03	7.750288e-02	2.401235e-01	4.684296e-01	6.448344e-01	7.589072e-01	8.299438e-01	8.735868e-01	9.013686e-01	9.194639e-01	9.318524e-01	9.406952e-01	9.471259e-01	9.520604e-01	9.559343e-01	9.590466e-01	9.616708e-01	9.638736e-01	9.657739e-01	9.675353e-01	9.691761e-01	9.707245e-01	9.721085e-01	9.732217e-01	9.740334e-01	9.746783e-01	9.752507e-01	9.757749e-01	9.762227e-01	9.765916e-01	9.768965e-01	9.771621e-01	9.773991e-01	9.776291e-01	9.778464e-01	9.780649e-01	9.782692e-01	9.784670e-01	9.786442e-01	9.787881e-01	9.789063e-01	9.789816e-01	9.789954e-01	9.789344e-01	9.788019e-01	9.785704e-01	9.782491e-01	9.777978e-01	9.772994e-01	9.768043e-01	9.766075e-01	9.770406e-01	9.783329e-01	9.796978e-01	9.799946e-01	9.792184e-01	9.783305e-01	9.776490e-01	9.767932e-01	9.753921e-01	9.732912e-01	9.705551e-01	9.673038e-01	9.635859e-01	9.594612e-01	9.550185e-01	9.504134e-01	9.457855e-01	9.412955e-01	9.369489e-01	9.328846e-01	9.290379e-01	9.253103e-01	9.216025e-01	9.177235e-01	9.134383e-01	9.084677e-01	9.024049e-01	8.947606e-01	8.848171e-01	8.719665e-01	8.557771e-01	8.366741e-01	8.162239e-01	7.974174e-01	7.838985e-01	7.791417e-01	7.855481e-01	8.036249e-01	8.311086e-01	8.631228e-01	8.920341e-01	9.096630e-01	9.118585e-01	9.000841e-01	8.773771e-01	8.478610e-01	8.139707e-01	7.759175e-01	7.325108e-01	6.660279e-01	
SCALARS Conservative_3 float 1
LOOKUP_TABLE default
1.017510e-01	1.068417e-01	1.141773e-01	1.244508e-01	1.413597e-01	1.659476e-01	1.970364e-01	2.308663e-01	2.616354e-01	2.815878e-01	2.842389e-01	2.678890e-01	2.312325e-01	1.854764e-01	1.446190e-01	1.160164e-01	1.029089e-01	1.032770e-01	1.115251e-01	1.224949e-01	1.322433e-01	1.382240e-01	1.391349e-01	1.349239e-01	1.268912e-01	1.165923e-01	1.044892e-01	9.148567e-02	7.884084e-02	6.741729e-02	5.765727e-02	4.958101e-02	4.310045e-02	3.795108e-02	3.380652e-02	3.039273e-02	2.747419e-02	2.487207e-02	2.247233e-02	2.021366e-02	1.808897e-02	1.613243e-02	1.439665e-02	1.294552e-02	1.183917e-02	1.112341e-02	1.082280e-02	1.093523e-02	1.143940e-02	1.228235e-02	1.340180e-02	1.470927e-02	1.611720e-02	1.752412e-02	1.883281e-02	1.994819e-02	2.078268e-02	2.125352e-02	2.129463e-02	2.084061e-02	1.983893e-02	1.825042e-02	1.605920e-02	1.326773e-02	9.858109e-03	5.743190e-03	8.259620e-04	-4.853881e-03	-1.105332e-02	-1.754672e-02	-2.460157e-02	-3.262980e-02	-4.171105e-02	-5.169053e-02	-6.250295e-02	-7.414887e-02	-8.674777e-02	-1.003333e-01	-1.149459e-01	-1.306658e-01	-1.475363e-01	-1.655825e-01	-1.848610e-01	-2.053802e-01	-2.271421e-01	-2.501543e-01	-2.744150e-01	-2.998760e-01	-3.263632e-01	-3.536822e-01	-3.814158e-01	-4.084198e-01	-4.327278e-01	-4.499549e-01	-4.506694e-01	-4.178657e-01	-3.254214e-01	-1.475771e-01	9.457240e-02	2.892009e-01	4.690219e-01	6.560966e-01	6.994344e-01	6.380406e-01	5.500776e-01	4.691102e-01	4.032313e-01	3.505864e-01	3.082827e-01	2.735553e-01	2.447915e-01	2.205306e-01	1.998466e-01	1.820191e-01	1.665007e-01	1.529072e-01	1.409306e-01	1.302802e-01	1.207689e-01	1.122322e-01	1.045855e-01	9.777195e-02	9.167165e-02	8.609771e-02	8.090895e-02	7.608199e-02	7.165563e-02	6.760565e-02	6.388073e-02	6.041242e-02	5.715398e-02	5.405709e-02	5.108096e-02	4.817930e-02	4.532036e-02	4.246153e-02	3.956697e-02	3.659452e-02	3.350596e-02	3.026806e-02	2.684489e-02	2.320938e-02	1.932845e-02	1.519560e-02	1.080983e-02	6.166934e-03	1.247979e-03	-4.009531e-03	-9.650125e-03	-1.574392e-02	-2.220542e-02	-2.881945e-02	-3.503680e-02	-4.085174e-02	-4.732852e-02	-5.483486e-02	-6.273637e-02	-7.038577e-02	-7.758743e-02	-8.437815e-02	-9.078974e-02	-9.674111e-02	-1.019830e-01	-1.063655e-01	-1.097910e-01	-1.123061e-01	-1.139470e-01	-1.148725e-01	-1.152816e-01	-1.154334e-01	-1.155928e-01	-1.160066e-01	-1.168847e-01	-1.183728e-01	-1.205639e-01	-1.235223e-01	-1.272318e-01	-1.315402e-01	-1.359805e-01	-1.395258e-01	-1.404239e-01	-1.363230e-01	-1.247909e-01	-1.042897e-01	-7.480605e-02	-3.843057e-02	5.137391e-04	3.578004e-02	5.996075e-02	6.635991e-02	5.187163e-02	2.004975e-02	-2.027767e-02	-5.871552e-02	-8.725300e-02	-1.032903e-01	-1.092950e-01	-1.071097e-01	-1.009243e-01	4.231081e-03	
SCALARS Conservative_4 float 1
LOOKUP_TABLE default
3.432263e+00	3.392009e+00	3.374772e+00	3.368218e+00	3.364709e+00	3.357560e+00	3.336914e+00	3.295949e+00	3.228449e+00	3.133177e+00	3.010816e+00	2.859649e+00	2.723740e+00	2.669714e+00	2.695609e+00	2.762321e+00	2.834874e+00	2.888053e+00	2.913492e+00	2.913215e+00	2.891425e+00	2.853395e+00	2.804916e+00	2.750528e+00	2.690169e+00	2.624287e+00	2.565109e+00	2.528813e+00	2.519955e+00	2.532134e+00	2.555834e+00	2.583300e+00	2.610164e+00	2.633941e+00	2.654235e+00	2.671234e+00	2.685562e+00	2.697971e+00	2.709005e+00	2.719370e+00	2.729402e+00	2.739473e+00	2.749604e+00	2.759821e+00	2.769892e+00	2.779622e+00	2.788672e+00	2.796802e+00	2.803697e+00	2.809152e+00	2.812911e+00	2.814856e+00	2.814845e+00	2.812840e+00	2.808797e+00	2.802742e+00	2.794701e+00	2.784753e+00	2.773001e+00	2.759551e+00	2.744592e+00	2.728165e+00	2.710314e+00	2.690917e+00	2.670395e+00	2.649498e+00	2.628834e+00	2.607105e+00	2.581520e+00	2.550005e+00	2.516281e+00	2.488603e+00	2.473149e+00	2.469962e+00	2.476089e+00	2.488251e+00	2.505105e+00	2.526144e+00	2.550786e+00	2.578720e+00	2.609979e+00	2.644417e+00	2.682195e+00	2.723265e+00	2.767756e+00	2.815916e+00	2.867783e+00	2.923680e+00	2.984135e+00	3.049264e+00	3.119985e+00	3.197504e+00	3.282522e+00	3.377160e+00	3.482071e+00	3.595318e+00	3.705264e+00	3.804534e+00	3.801596e+00	3.734377e+00	3.679943e+00	3.503945e+00	3.159364e+00	2.909115e+00	2.739127e+00	2.632739e+00	2.568314e+00	2.527699e+00	2.500071e+00	2.480675e+00	2.466943e+00	2.457031e+00	2.450318e+00	2.445838e+00	2.443363e+00	2.443138e+00	2.444916e+00	2.448525e+00	2.454244e+00	2.462679e+00	2.474609e+00	2.489764e+00	2.506209e+00	2.521191e+00	2.533150e+00	2.542318e+00	2.549690e+00	2.555989e+00	2.561490e+00	2.566217e+00	2.570035e+00	2.572739e+00	2.574161e+00	2.574240e+00	2.573040e+00	2.570597e+00	2.566961e+00	2.562124e+00	2.556065e+00	2.548788e+00	2.540261e+00	2.530501e+00	2.519713e+00	2.508269e+00	2.496434e+00	2.484250e+00	2.471415e+00	2.457971e+00	2.444918e+00	2.435874e+00	2.437372e+00	2.457163e+00	2.496626e+00	2.544248e+00	2.582429e+00	2.606245e+00	2.623097e+00	2.641827e+00	2.666326e+00	2.695288e+00	2.725651e+00	2.755869e+00	2.785849e+00	2.815567e+00	2.844383e+00	2.871751e+00	2.897159e+00	2.920426e+00	2.941300e+00	2.960030e+00	2.976785e+00	2.992009e+00	3.006326e+00	3.020388e+00	3.034951e+00	3.050825e+00	3.068916e+00	3.090413e+00	3.116511e+00	3.148454e+00	3.186444e+00	3.229198e+00	3.273123e+00	3.313414e+00	3.344398e+00	3.360466e+00	3.356605e+00	3.329426e+00	3.278219e+00	3.208556e+00	3.135826e+00	3.079256e+00	3.057864e+00	3.080292e+00	3.135553e+00	3.203255e+00	3.270112e+00	3.335080e+00	3.404880e+00	3.365502e+00	
SCALARS Pressure float 1
LOOKUP_TABLE default
1.284864e+00	1.261922e+00	1.250865e+00	1.246327e+00	1.244038e+00	1.239542e+00	1.227508e+00	1.203752e+00	1.164830e+00	1.110202e+00	1.040870e+00	9.573821e-01	8.837686e-01	8.530276e-01	8.649044e-01	9.000941e-01	9.390295e-01	9.678508e-01	9.820462e-01	9.822204e-01	9.705598e-01	9.500377e-01	9.240104e-01	8.950831e-01	8.634221e-01	8.294630e-01	7.995381e-01	7.814415e-01	7.772121e-01	7.835134e-01	7.955305e-01	8.094334e-01	8.229982e-01	8.350781e-01	8.454239e-01	8.541454e-01	8.615242e-01	8.679209e-01	8.736497e-01	8.790330e-01	8.842741e-01	8.895367e-01	8.948571e-01	9.002261e-01	9.055396e-01	9.106755e-01	9.154701e-01	9.197766e-01	9.234404e-01	9.263357e-01	9.283392e-01	9.293683e-01	9.293593e-01	9.282834e-01	9.261245e-01	9.228926e-01	9.186114e-01	9.133255e-01	9.070989e-01	9.000007e-01	8.921259e-01	8.835213e-01	8.741961e-01	8.641237e-01	8.535162e-01	8.428121e-01	8.322822e-01	8.212641e-01	8.082688e-01	7.923563e-01	7.754984e-01	7.618656e-01	7.543362e-01	7.528869e-01	7.559574e-01	7.620169e-01	7.703499e-01	7.807624e-01	7.930687e-01	8.071359e-01	8.229723e-01	8.405862e-01	8.600742e-01	8.814886e-01	9.049596e-01	9.307010e-01	9.588296e-01	9.895635e-01	1.023303e+00	1.060300e+00	1.101146e+00	1.146674e+00	1.197610e+00	1.255172e+00	1.320072e+00	1.390996e+00	1.460139e+00	1.518180e+00	1.519292e+00	1.481081e+00	1.437105e+00	1.321708e+00	1.133401e+00	9.973123e-01	9.053096e-01	8.468505e-01	8.110183e-01	7.883521e-01	7.731627e-01	7.626479e-01	7.552445e-01	7.499742e-01	7.463707e-01	7.439265e-01	7.425137e-01	7.422119e-01	7.429280e-01	7.445653e-01	7.472159e-01	7.512041e-01	7.569250e-01	7.642801e-01	7.723467e-01	7.797600e-01	7.856827e-01	7.901998e-01	7.938059e-01	7.968848e-01	7.995811e-01	8.019043e-01	8.037787e-01	8.050995e-01	8.057754e-01	8.057805e-01	8.051411e-01	8.038833e-01	8.020281e-01	7.995781e-01	7.965268e-01	7.928711e-01	7.886005e-01	7.837290e-01	7.783630e-01	7.726845e-01	7.668380e-01	7.608380e-01	7.545482e-01	7.479439e-01	7.415040e-01	7.369286e-01	7.374041e-01	7.467769e-01	7.660708e-01	7.898586e-01	8.092176e-01	8.213120e-01	8.297662e-01	8.391810e-01	8.516409e-01	8.665353e-01	8.823039e-01	8.981323e-01	9.139625e-01	9.297649e-01	9.452036e-01	9.599605e-01	9.737495e-01	9.864291e-01	9.978881e-01	1.008192e+00	1.017448e+00	1.025898e+00	1.033865e+00	1.041719e+00	1.049886e+00	1.058828e+00	1.069088e+00	1.081359e+00	1.096404e+00	1.114961e+00	1.137232e+00	1.162477e+00	1.188590e+00	1.212532e+00	1.230740e+00	1.239734e+00	1.236560e+00	1.219447e+00	1.188548e+00	1.147588e+00	1.105697e+00	1.074319e+00	1.063775e+00	1.077611e+00	1.109624e+00	1.148945e+00	1.188597e+00	1.227864e+00	1.269595e+00	1.270647e+00	
SCALARS Temperature float 1
LOOKUP_TABLE default
1.075372e+00	1.070512e+00	1.067623e+00	1.066306e+00	1.065687e+00	1.064526e+00	1.061738e+00	1.056166e+00	1.046774e+00	1.032926e+00	1.014238e+00	9.902358e-01	9.671864e-01	9.560075e-01	9.590351e-01	9.702851e-01	9.823527e-01	9.909718e-01	9.952758e-01	9.954787e-01	9.921808e-01	9.861527e-01	9.782999e-01	9.693308e-01	9.592566e-01	9.481678e-01	9.381639e-01	9.319963e-01	9.306313e-01	9.329472e-01	9.371610e-01	9.419122e-01	9.464194e-01	9.503845e-01	9.537353e-01	9.565441e-01	9.589031e-01	9.609284e-01	9.627454e-01	9.644381e-01	9.660880e-01	9.677313e-01	9.693921e-01	9.710552e-01	9.726983e-01	9.742745e-01	9.757433e-01	9.770530e-01	9.781657e-01	9.790394e-01	9.796455e-01	9.799524e-01	9.799482e-01	9.796199e-01	9.789644e-01	9.779798e-01	9.766735e-01	9.750535e-01	9.731371e-01	9.709436e-01	9.684910e-01	9.657973e-01	9.628486e-01	9.596445e-01	9.562377e-01	9.527895e-01	9.493655e-01	9.457455e-01	9.413740e-01	9.359360e-01	9.300990e-01	9.253614e-01	9.227409e-01	9.222929e-01	9.234189e-01	9.256024e-01	9.285288e-01	9.321291e-01	9.363590e-01	9.411466e-01	9.464477e-01	9.522656e-01	9.585910e-01	9.654285e-01	9.727941e-01	9.807311e-01	9.892499e-01	9.983570e-01	1.008130e+00	1.018620e+00	1.029900e+00	1.042105e+00	1.055367e+00	1.069751e+00	1.085279e+00	1.101350e+00	1.116012e+00	1.126080e+00	1.127292e+00	1.121155e+00	1.108787e+00	1.081331e+00	1.042378e+00	1.007930e+00	9.807216e-01	9.608549e-01	9.474989e-01	9.385945e-01	9.325517e-01	9.283524e-01	9.253709e-01	9.232636e-01	9.217926e-01	9.207685e-01	9.201415e-01	9.199194e-01	9.200866e-01	9.205993e-01	9.214612e-01	9.227987e-01	9.247474e-01	9.272742e-01	9.300553e-01	9.326117e-01	9.346326e-01	9.361457e-01	9.373301e-01	9.383338e-01	9.392124e-01	9.399696e-01	9.405770e-01	9.410002e-01	9.412056e-01	9.411882e-01	9.409535e-01	9.405138e-01	9.398728e-01	9.390327e-01	9.379913e-01	9.367410e-01	9.352772e-01	9.336032e-01	9.317524e-01	9.297819e-01	9.277466e-01	9.256456e-01	9.234358e-01	9.210772e-01	9.187329e-01	9.169833e-01	9.170045e-01	9.202069e-01	9.269818e-01	9.352957e-01	9.419628e-01	9.460248e-01	9.487579e-01	9.517649e-01	9.557489e-01	9.604902e-01	9.654642e-01	9.703997e-01	9.752766e-01	9.800807e-01	9.847195e-01	9.890987e-01	9.931465e-01	9.968219e-01	1.000125e+00	1.003059e+00	1.005675e+00	1.008053e+00	1.010279e+00	1.012461e+00	1.014721e+00	1.017183e+00	1.020003e+00	1.023360e+00	1.027465e+00	1.032478e+00	1.038424e+00	1.045041e+00	1.051743e+00	1.057701e+00	1.062041e+00	1.063973e+00	1.062875e+00	1.058371e+00	1.050515e+00	1.040070e+00	1.029185e+00	1.021152e+00	1.018964e+00	1.023214e+00	1.031951e+00	1.042244e+00	1.052457e+00	1.062391e+00	1.072288e+00	1.082048e+00	
SCALARS Pressure_Coefficient float 1
LOOKUP_TABLE default
6.358563e-01	5.846466e-01	5.599656e-01	5.498360e-01	5.447281e-01	5.346918e-01	5.078296e-01	4.548032e-01	3.679250e-01	2.459862e-01	9.122732e-02	-9.512930e-02	-2.594450e-01	-3.280634e-01	-3.015528e-01	-2.230042e-01	-1.360949e-01	-7.176167e-02	-4.007553e-02	-3.968669e-02	-6.571464e-02	-1.115230e-01	-1.696197e-01	-2.341894e-01	-3.048615e-01	-3.806630e-01	-4.474596e-01	-4.878537e-01	-4.972943e-01	-4.832290e-01	-4.564052e-01	-4.253718e-01	-3.950933e-01	-3.681293e-01	-3.450358e-01	-3.255683e-01	-3.090979e-01	-2.948195e-01	-2.820318e-01	-2.700156e-01	-2.583167e-01	-2.465698e-01	-2.346939e-01	-2.227097e-01	-2.108491e-01	-1.993850e-01	-1.886829e-01	-1.790701e-01	-1.708921e-01	-1.644293e-01	-1.599572e-01	-1.576600e-01	-1.576801e-01	-1.600817e-01	-1.649008e-01	-1.721148e-01	-1.816710e-01	-1.934698e-01	-2.073685e-01	-2.232126e-01	-2.407905e-01	-2.599970e-01	-2.808123e-01	-3.032954e-01	-3.269727e-01	-3.508658e-01	-3.743700e-01	-3.989640e-01	-4.279713e-01	-4.634905e-01	-5.011197e-01	-5.315500e-01	-5.483567e-01	-5.515918e-01	-5.447379e-01	-5.312122e-01	-5.126118e-01	-4.893697e-01	-4.619003e-01	-4.305002e-01	-3.951512e-01	-3.558343e-01	-3.123344e-01	-2.645344e-01	-2.121437e-01	-1.546852e-01	-9.189815e-02	-2.329573e-02	5.201553e-02	1.345988e-01	2.257719e-01	3.273968e-01	4.410939e-01	5.695810e-01	7.144462e-01	8.727595e-01	1.027095e+00	1.156651e+00	1.159135e+00	1.073842e+00	9.756814e-01	7.180993e-01	2.977695e-01	-5.999408e-03	-2.113625e-01	-3.418517e-01	-4.218342e-01	-4.724284e-01	-5.063334e-01	-5.298038e-01	-5.463292e-01	-5.580932e-01	-5.661368e-01	-5.715926e-01	-5.747462e-01	-5.754199e-01	-5.738215e-01	-5.701667e-01	-5.642503e-01	-5.553479e-01	-5.425781e-01	-5.261605e-01	-5.081546e-01	-4.916071e-01	-4.783867e-01	-4.683039e-01	-4.602546e-01	-4.533821e-01	-4.473637e-01	-4.421778e-01	-4.379940e-01	-4.350457e-01	-4.335370e-01	-4.335257e-01	-4.349529e-01	-4.377606e-01	-4.419015e-01	-4.473703e-01	-4.541812e-01	-4.623412e-01	-4.718740e-01	-4.827478e-01	-4.947255e-01	-5.074007e-01	-5.204509e-01	-5.338438e-01	-5.478834e-01	-5.626253e-01	-5.770001e-01	-5.872130e-01	-5.861516e-01	-5.652301e-01	-5.221634e-01	-4.690656e-01	-4.258536e-01	-3.988572e-01	-3.799863e-01	-3.589709e-01	-3.311586e-01	-2.979123e-01	-2.627144e-01	-2.273833e-01	-1.920481e-01	-1.567748e-01	-1.223134e-01	-8.937386e-02	-5.859484e-02	-3.029223e-02	-4.713985e-03	1.828551e-02	3.894584e-02	5.780782e-02	7.559261e-02	9.312318e-02	1.113533e-01	1.313118e-01	1.542148e-01	1.816051e-01	2.151869e-01	2.566084e-01	3.063209e-01	3.626715e-01	4.209593e-01	4.744024e-01	5.150451e-01	5.351197e-01	5.280352e-01	4.898361e-01	4.208657e-01	3.294366e-01	2.359312e-01	1.658908e-01	1.423548e-01	1.732391e-01	2.446962e-01	3.324663e-01	4.209758e-01	5.086253e-01	6.017737e-01	6.041234e-01	
SCALARS Mach float 1
LOOKUP_TABLE default
4.946937e-01	5.181990e-01	5.317775e-01	5.378745e-01	5.407234e-01	5.460386e-01	5.586296e-01	5.831728e-01	6.229014e-01	6.784110e-01	7.489001e-01	8.340490e-01	9.117964e-01	9.484520e-01	9.385823e-01	9.015262e-01	8.610130e-01	8.315093e-01	8.165755e-01	8.158679e-01	8.273285e-01	8.480686e-01	8.747161e-01	9.046947e-01	9.378586e-01	9.738277e-01	1.005867e+00	1.025452e+00	1.029771e+00	1.022440e+00	1.009060e+00	9.939040e-01	9.794533e-01	9.666777e-01	9.558329e-01	9.467056e-01	9.390135e-01	9.323892e-01	9.264297e-01	9.208637e-01	9.154251e-01	9.099942e-01	9.044913e-01	8.989661e-01	8.934924e-01	8.882276e-01	8.833084e-01	8.789117e-01	8.751681e-01	8.722235e-01	8.701781e-01	8.691412e-01	8.691555e-01	8.702644e-01	8.724763e-01	8.757940e-01	8.801868e-01	8.856201e-01	8.920281e-01	8.993374e-01	9.074787e-01	9.163842e-01	9.260907e-01	9.365906e-01	9.477029e-01	9.588985e-01	9.699669e-01	9.816188e-01	9.956248e-01	1.012956e+00	1.031454e+00	1.046395e+00	1.054633e+00	1.056040e+00	1.052504e+00	1.045636e+00	1.036413e+00	1.025032e+00	1.011611e+00	9.963516e-01	9.793623e-01	9.605952e-01	9.400326e-01	9.176006e-01	8.931729e-01	8.665086e-01	8.374452e-01	8.057956e-01	7.710658e-01	7.327536e-01	6.901330e-01	6.419872e-01	5.866296e-01	5.218029e-01	4.436683e-01	3.478657e-01	2.317971e-01	9.245828e-02	5.624562e-02	1.747874e-01	2.943841e-01	4.645621e-01	6.408796e-01	7.717835e-01	8.665406e-01	9.326298e-01	9.759811e-01	1.004495e+00	1.023693e+00	1.036969e+00	1.046365e+00	1.052992e+00	1.057610e+00	1.060823e+00	1.062788e+00	1.063484e+00	1.062960e+00	1.061353e+00	1.058650e+00	1.054452e+00	1.048327e+00	1.040370e+00	1.031592e+00	1.023503e+00	1.017095e+00	1.012289e+00	1.008522e+00	1.005326e+00	1.002526e+00	1.000110e+00	9.981709e-01	9.968192e-01	9.961629e-01	9.962186e-01	9.969685e-01	9.983727e-01	1.000419e+00	1.003099e+00	1.006417e+00	1.010396e+00	1.015049e+00	1.020361e+00	1.026224e+00	1.032456e+00	1.038881e+00	1.045500e+00	1.052451e+00	1.059855e+00	1.067200e+00	1.072674e+00	1.072608e+00	1.062583e+00	1.041292e+00	1.014990e+00	9.937423e-01	9.807217e-01	9.719262e-01	9.622156e-01	9.492929e-01	9.338238e-01	9.174828e-01	9.011457e-01	8.848727e-01	8.687076e-01	8.529622e-01	8.379653e-01	8.239812e-01	8.111758e-01	7.995760e-01	7.891934e-01	7.798697e-01	7.713428e-01	7.633105e-01	7.553867e-01	7.471307e-01	7.380701e-01	7.276105e-01	7.150397e-01	6.994737e-01	6.801530e-01	6.567567e-01	6.300342e-01	6.021232e-01	5.764912e-01	5.572737e-01	5.485510e-01	5.535219e-01	5.735558e-01	6.073032e-01	6.501804e-01	6.928847e-01	7.233256e-01	7.314766e-01	7.155870e-01	6.822020e-01	6.414239e-01	5.990906e-01	5.557024e-01	5.097111e-01	4.608245e-01	