# vtk DataFile Version 3.0
vtk output
ASCII
DATASET UNSTRUCTURED_GRID
POINTS 5233 float
9.997500e-01	-3.633243e-05	0.0	9.990000e-01	-1.454723e-04	0.0	9.977600e-01	-3.275074e-04	0.0	9.960200e-01	-5.899271e-04	0.0	9.937800e-01	-9.470945e-04	0.0	9.910500e-01	-1.422095e-03	0.0	9.878400e-01	-2.045516e-03	0.0	9.841300e-01	-2.853672e-03	0.0	9.799500e-01	-3.858880e-03	0.0	9.752800e-01	-5.058299e-03	0.0	9.701500e-01	-6.405112e-03	0.0	9.645400e-01	-7.840846e-03	0.0	9.584700e-01	-9.290163e-03	0.0	9.519400e-01	-1.069771e-02	0.0	9.449600e-01	-1.203553e-02	0.0	9.375400e-01	-1.330803e-02	0.0	9.296900e-01	-1.454251e-02	0.0	9.214000e-01	-1.577727e-02	0.0	9.127000e-01	-1.703954e-02	0.0	9.035800e-01	-1.835036e-02	0.0	8.940600e-01	-1.971338e-02	0.0	8.841500e-01	-2.112398e-02	0.0	8.738500e-01	-2.257397e-02	0.0	8.631800e-01	-2.405123e-02	0.0	8.521600e-01	-2.554511e-02	0.0	8.407700e-01	-2.705246e-02	0.0	8.290500e-01	-2.856403e-02	0.0	8.170100e-01	-3.007597e-02	0.0	8.046400e-01	-3.158747e-02	0.0	7.919700e-01	-3.309287e-02	0.0	7.790100e-01	-3.458890e-02	0.0	7.657800e-01	-3.607095e-02	0.0	7.522800e-01	-3.753647e-02	0.0	7.385200e-01	-3.898160e-02	0.0	7.245300e-01	-4.040048e-02	0.0	7.103200e-01	-4.178947e-02	0.0	6.958900e-01	-4.314602e-02	0.0	6.812700e-01	-4.446493e-02	0.0	6.664700e-01	-4.574319e-02	0.0	6.515000e-01	-4.697804e-02	0.0	6.363800e-01	-4.816616e-02	0.0	6.211300e-01	-4.930464e-02	0.0	6.057600e-01	-5.039162e-02	0.0	5.902800e-01	-5.142547e-02	0.0	5.747100e-01	-5.240414e-02	0.0	5.590600e-01	-5.332646e-02	0.0	5.433600e-01	-5.419034e-02	0.0	5.276100e-01	-5.499559e-02	0.0	5.118400e-01	-5.574057e-02	0.0	4.960500e-01	-5.642522e-02	0.0	4.802700e-01	-5.704819e-02	0.0	4.645100e-01	-5.760909e-02	0.0	4.487800e-01	-5.810746e-02	0.0	4.331100e-01	-5.854221e-02	0.0	4.175000e-01	-5.891312e-02	0.0	4.019700e-01	-5.921928e-02	0.0	3.865400e-01	-5.945982e-02	0.0	3.712300e-01	-5.963385e-02	0.0	3.560400e-01	-5.974056e-02	0.0	3.409900e-01	-5.977881e-02	0.0	3.261100e-01	-5.974750e-02	0.0	3.114000e-01	-5.964548e-02	0.0	2.968700e-01	-5.947137e-02	0.0	2.825500e-01	-5.922409e-02	0.0	2.684500e-01	-5.890235e-02	0.0	2.545700e-01	-5.850447e-02	0.0	2.409400e-01	-5.802960e-02	0.0	2.275700e-01	-5.747644e-02	0.0	2.144700e-01	-5.684371e-02	0.0	2.016600e-01	-5.613072e-02	0.0	1.891400e-01	-5.533580e-02	0.0	1.769300e-01	-5.445854e-02	0.0	1.650400e-01	-5.349808e-02	0.0	1.534900e-01	-5.245466e-02	0.0	1.422900e-01	-5.132799e-02	0.0	1.314400e-01	-5.011682e-02	0.0	1.209500e-01	-4.882090e-02	0.0	1.108500e-01	-4.744301e-02	0.0	1.011300e-01	-4.598098e-02	0.0	9.181000e-02	-4.443692e-02	0.0	8.290000e-02	-4.281196e-02	0.0	7.440000e-02	-4.110546e-02	0.0	6.633000e-02	-3.932094e-02	0.0	5.869000e-02	-3.745812e-02	0.0	5.149000e-02	-3.551900e-02	0.0	4.474000e-02	-3.350613e-02	0.0	3.844000e-02	-3.141918e-02	0.0	3.260000e-02	-2.926100e-02	0.0	2.723000e-02	-2.703528e-02	0.0	2.232000e-02	-2.473699e-02	0.0	1.790000e-02	-2.238013e-02	0.0	1.395000e-02	-1.995387e-02	0.0	1.049000e-02	-1.746947e-02	0.0	7.520000e-03	-1.492785e-02	0.0	5.040000e-03	-1.232919e-02	0.0	3.050000e-03	-9.671942e-03	0.0	1.560000e-03	-6.971350e-03	0.0	5.600000e-04	-4.206259e-03	0.0	6.000000e-05	-1.384017e-03	0.0	0.000000e+00	0.000000e+00	0.0	6.000000e-05	1.263720e-03	0.0	5.600000e-04	3.624971e-03	0.0	1.560000e-03	5.788708e-03	0.0	3.050000e-03	7.806692e-03	0.0	5.040000e-03	9.723944e-03	0.0	7.520000e-03	1.154822e-02	0.0	1.049000e-02	1.329450e-02	0.0	1.395000e-02	1.497331e-02	0.0	1.790000e-02	1.659255e-02	0.0	2.232000e-02	1.815185e-02	0.0	2.723000e-02	1.966435e-02	0.0	3.260000e-02	2.112593e-02	0.0	3.844000e-02	2.254427e-02	0.0	4.474000e-02	2.392075e-02	0.0	5.149000e-02	2.525673e-02	0.0	5.869000e-02	2.655525e-02	0.0	6.633000e-02	2.781702e-02	0.0	7.440000e-02	2.904271e-02	0.0	8.290000e-02	3.023424e-02	0.0	9.181000e-02	3.139050e-02	0.0	1.011300e-01	3.251300e-02	0.0	1.108500e-01	3.360171e-02	0.0	1.209500e-01	3.465550e-02	0.0	1.314400e-01	3.567622e-02	0.0	1.422900e-01	3.666159e-02	0.0	1.534900e-01	3.761135e-02	0.0	1.650400e-01	3.852585e-02	0.0	1.769300e-01	3.940441e-02	0.0	1.891400e-01	4.024556e-02	0.0	2.016600e-01	4.104852e-02	0.0	2.144700e-01	4.181177e-02	0.0	2.275700e-01	4.253493e-02	0.0	2.409400e-01	4.321627e-02	0.0	2.545700e-01	4.385455e-02	0.0	2.684500e-01	4.444836e-02	0.0	2.825500e-01	4.499540e-02	0.0	2.968700e-01	4.549450e-02	0.0	3.114000e-01	4.594386e-02	0.0	3.261100e-01	4.634104e-02	0.0	3.409900e-01	4.668416e-02	0.0	3.560400e-01	4.697134e-02	0.0	3.712300e-01	4.720002e-02	0.0	3.865400e-01	4.736791e-02	0.0	4.019700e-01	4.747283e-02	0.0	4.175000e-01	4.751235e-02	0.0	4.331100e-01	4.748412e-02	0.0	4.487800e-01	4.738590e-02	0.0	4.645100e-01	4.721534e-02	0.0	4.802700e-01	4.697047e-02	0.0	4.960500e-01	4.664927e-02	0.0	5.118400e-01	4.624981e-02	0.0	5.276100e-01	4.577096e-02	0.0	5.433600e-01	4.521102e-02	0.0	5.590600e-01	4.456963e-02	0.0	5.747100e-01	4.384568e-02	0.0	5.902800e-01	4.303979e-02	0.0	6.057600e-01	4.215225e-02	0.0	6.211300e-01	4.118443e-02	0.0	6.363800e-01	4.013773e-02	0.0	6.515000e-01	3.901409e-02	0.0	6.664700e-01	3.781688e-02	0.0	6.812700e-01	3.655030e-02	0.0	6.958900e-01	3.521850e-02	0.0	7.103200e-01	3.382630e-02	0.0	7.245300e-01	3.238125e-02	0.0	7.385200e-01	3.088870e-02	0.0	7.522800e-01	2.935558e-02	0.0	7.657800e-01	2.779181e-02	0.0	7.790100e-01	2.620575e-02	0.0	7.919700e-01	2.460505e-02	0.0	8.046400e-01	2.300024e-02	0.0	8.170100e-01	2.140096e-02	0.0	8.290500e-01	1.981955e-02	0.0	8.407700e-01	1.826280e-02	0.0	8.521600e-01	1.673917e-02	0.0	8.631800e-01	1.525949e-02	0.0	8.738500e-01	1.382424e-02	0.0	8.841500e-01	1.243665e-02	0.0	8.940600e-01	1.109791e-02	0.0	9.035800e-01	9.806341e-03	0.0	9.127000e-01	8.564646e-03	0.0	9.214000e-01	7.383771e-03	0.0	9.296900e-01	6.280276e-03	0.0	9.375400e-01	5.285125e-03	0.0	9.449600e-01	4.427458e-03	0.0	9.519400e-01	3.732191e-03	0.0	9.584700e-01	3.205440e-03	0.0	9.645400e-01	2.827030e-03	0.0	9.701500e-01	2.552105e-03	0.0	9.752800e-01	2.324866e-03	0.0	9.799500e-01	2.093081e-03	0.0	9.841300e-01	1.827035e-03	0.0	9.878400e-01	1.519905e-03	0.0	9.910500e-01	1.190203e-03	0.0	9.937800e-01	8.630223e-04	0.0	9.960200e-01	5.666264e-04	0.0	9.977600e-01	3.231883e-04	0.0	9.990000e-01	1.450783e-04	0.0	9.997500e-01	3.632619e-05	0.0	1.000000e+00	0.000000e+00	0.0	1.984229e+01	2.506660e+00	0.0	1.937166e+01	4.973800e+00	0.0	1.859553e+01	7.362490e+00	0.0	1.752613e+01	9.635070e+00	0.0	1.618034e+01	1.175571e+01	0.0	1.457937e+01	1.369094e+01	0.0	1.274848e+01	1.541027e+01	0.0	1.071654e+01	1.688656e+01	0.0	8.515590e+00	1.809654e+01	0.0	6.180340e+00	1.902113e+01	0.0	3.747630e+00	1.964575e+01	0.0	1.255810e+00	1.996053e+01	0.0	-1.255810e+00	1.996053e+01	0.0	-3.747630e+00	1.964574e+01	0.0	-6.180340e+00	1.902113e+01	0.0	-8.515590e+00	1.809654e+01	0.0	-1.071654e+01	1.688656e+01	0.0	-1.274848e+01	1.541026e+01	0.0	-1.457937e+01	1.369094e+01	0.0	-1.618034e+01	1.175570e+01	0.0	-1.752613e+01	9.635070e+00	0.0	-1.859553e+01	7.362490e+00	0.0	-1.937166e+01	4.973800e+00	0.0	-1.984229e+01	2.506660e+00	0.0	-2.000000e+01	0.000000e+00	0.0	-1.984229e+01	-2.506670e+00	0.0	-1.937166e+01	-4.973800e+00	0.0	-1.859553e+01	-7.362490e+00	0.0	-1.752613e+01	-9.635080e+00	0.0	-1.618034e+01	-1.175571e+01	0.0	-1.457937e+01	-1.369094e+01	0.0	-1.274848e+01	-1.541027e+01	0.0	-1.071653e+01	-1.688656e+01	0.0	-8.515580e+00	-1.809654e+01	0.0	-6.180340e+00	-1.902113e+01	0.0	-3.747620e+00	-1.964575e+01	0.0	-1.255810e+00	-1.996053e+01	0.0	1.255810e+00	-1.996053e+01	0.0	3.747630e+00	-1.964574e+01	0.0	6.180340e+00	-1.902113e+01	0.0	8.515590e+00	-1.809654e+01	0.0	1.071654e+01	-1.688656e+01	0.0	1.274848e+01	-1.541026e+01	0.0	1.457937e+01	-1.369094e+01	0.0	1.618034e+01	-1.175570e+01	0.0	1.752614e+01	-9.635070e+00	0.0	1.859553e+01	-7.362490e+00	0.0	1.937166e+01	-4.973790e+00	0.0	1.984229e+01	-2.506660e+00	0.0	2.000000e+01	0.000000e+00	0.0	6.074236e-02	-4.532119e-02	0.0	6.601883e-01	-6.002185e-02	0.0	4.255533e-01	6.172240e-02	0.0	6.897642e-01	4.910615e-02	0.0	3.791232e-01	-7.360574e-02	0.0	9.994675e-01	-7.275896e-04	0.0	9.985544e-01	-1.331422e-03	0.0	7.738131e-01	-4.739999e-02	0.0	6.898600e-01	-5.714805e-02	0.0	-1.127148e-03	5.516580e-03	0.0	7.467800e-01	-5.080739e-02	0.0	5.833311e-01	5.753395e-02	0.0	9.928160e-01	-3.736232e-03	0.0	9.899359e-01	-4.744181e-03	0.0	5.989072e-01	5.659912e-02	0.0	7.187646e-01	-5.406351e-02	0.0	-1.468668e-03	5.997962e-04	0.0	9.865725e-01	-5.906477e-03	0.0	9.827328e-01	-7.226373e-03	0.0	-1.302035e-03	-6.473040e-03	0.0	6.451051e-01	-6.137245e-02	0.0	8.244819e-01	-4.029781e-02	0.0	7.997421e-01	-4.389412e-02	0.0	3.484809e-01	6.060771e-02	0.0	8.479020e-01	-3.666740e-02	0.0	2.473656e-01	5.609745e-02	0.0	8.699420e-01	-3.302711e-02	0.0	1.046400e-02	1.734326e-02	0.0	8.904957e-01	-2.943310e-02	0.0	7.702148e-02	-4.969918e-02	0.0	9.094909e-01	-2.594012e-02	0.0	-1.766752e-03	-3.206980e-03	0.0	9.424825e-01	-1.916821e-02	0.0	9.268474e-01	-2.255010e-02	0.0	1.794783e-02	-2.749681e-02	0.0	4.257416e-01	-7.303656e-02	0.0	8.591035e-01	-3.484305e-02	0.0	9.563355e-01	-1.566690e-02	0.0	9.784088e-01	-8.725327e-03	0.0	9.683300e-01	-1.208064e-02	0.0	1.582632e-01	-6.357377e-02	0.0	9.001950e-01	-2.767201e-02	0.0	7.604294e-01	-4.911951e-02	0.0	9.971359e-01	-2.087281e-03	0.0	5.990500e-01	-6.504511e-02	0.0	4.414441e-01	-7.268671e-02	0.0	5.363196e-01	-6.898015e-02	0.0	4.730157e-01	-7.175425e-02	0.0	5.046766e-01	-7.051681e-02	0.0	4.888342e-01	-7.117247e-02	0.0	1.249493e-01	-5.906532e-02	0.0	2.784418e-02	-3.297649e-02	0.0	3.945689e-01	-7.349776e-02	0.0	4.621901e-02	-4.062311e-02	0.0	4.101097e-01	-7.330836e-02	0.0	3.187146e-01	-7.321368e-02	0.0	3.486125e-01	-7.358043e-02	0.0	3.350773e-02	-3.558982e-02	0.0	2.895104e-01	-7.250822e-02	0.0	9.348849e-01	-2.086602e-02	0.0	1.468045e-01	-6.216164e-02	0.0	1.946434e-01	-6.723370e-02	0.0	8.579568e-02	-5.175688e-02	0.0	1.045869e-01	-5.560413e-02	0.0	5.678223e-01	-6.716038e-02	0.0	1.700658e-01	-6.489209e-02	0.0	6.145275e-01	-6.388340e-02	0.0	8.804131e-01	-3.122167e-02	0.0	2.266815e-02	-3.027715e-02	0.0	9.952218e-01	-2.870136e-03	0.0	6.736383e-03	-1.882149e-02	0.0	1.849217e-02	2.151190e-02	0.0	9.183775e-01	-2.423563e-02	0.0	9.49640
[...]
POINT_DATA 5233

SCALARS Conservative_1 float 1
LOOKUP_TABLE default
1.199829e+00	1.181603e+00	1.171179e+00	1.164739e+00	1.160166e+00	1.155701e+00	1.148816e+00	1.137898e+00	1.121717e+00	1.100362e+00	1.075074e+00	1.048463e+00	1.024896e+00	1.008362e+00	9.999882e-01	9.979300e-01	9.990394e-01	1.000482e+00	1.000509e+00	9.985211e-01	9.947376e-01	9.897160e-01	9.840416e-01	9.781861e-01	9.724272e-01	9.668756e-01	9.615227e-01	9.563221e-01	9.512090e-01	9.461521e-01	9.411353e-01	9.361148e-01	9.310567e-01	9.259774e-01	9.209281e-01	9.159572e-01	9.110835e-01	9.063112e-01	9.016520e-01	8.971221e-01	8.927214e-01	8.884604e-01	8.843216e-01	8.803216e-01	8.764753e-01	8.728343e-01	8.693882e-01	8.660730e-01	8.627416e-01	8.593844e-01	8.562036e-01	8.535530e-01	8.515466e-01	8.498922e-01	8.479170e-01	8.448700e-01	8.402516e-01	8.342099e-01	8.276246e-01	8.217522e-01	8.174788e-01	8.149974e-01	8.140353e-01	8.141598e-01	8.150611e-01	8.165403e-01	8.185479e-01	8.210004e-01	8.238116e-01	8.268689e-01	8.301914e-01	8.339419e-01	8.383674e-01	8.435359e-01	8.493712e-01	8.557267e-01	8.626672e-01	8.703709e-01	8.788950e-01	8.882787e-01	8.986338e-01	9.100192e-01	9.225863e-01	9.364530e-01	9.518091e-01	9.689317e-01	9.880491e-01	1.009520e+00	1.033830e+00	1.061294e+00	1.092442e+00	1.127743e+00	1.167045e+00	1.209885e+00	1.254555e+00	1.298041e+00	1.331744e+00	1.350900e+00	1.339534e+00	1.308267e+00	1.284253e+00	1.221086e+00	1.099438e+00	1.001957e+00	9.259621e-01	8.702585e-01	8.322827e-01	8.072841e-01	7.904568e-01	7.790612e-01	7.714020e-01	7.663104e-01	7.632268e-01	7.614139e-01	7.604976e-01	7.604745e-01	7.612160e-01	7.624855e-01	7.639613e-01	7.653165e-01	7.665680e-01	7.680398e-01	7.699902e-01	7.722691e-01	7.744773e-01	7.763871e-01	7.780904e-01	7.797341e-01	7.814211e-01	7.832219e-01	7.851915e-01	7.873138e-01	7.895159e-01	7.916975e-01	7.938151e-01	7.958431e-01	7.977720e-01	7.995634e-01	8.012266e-01	8.028770e-01	8.047264e-01	8.069300e-01	8.095360e-01	8.125076e-01	8.158501e-01	8.196280e-01	8.238743e-01	8.285565e-01	8.335006e-01	8.384970e-01	8.433405e-01	8.480914e-01	8.530490e-01	8.585653e-01	8.647004e-01	8.712225e-01	8.779101e-01	8.847631e-01	8.919495e-01	8.995167e-01	9.074125e-01	9.155490e-01	9.238774e-01	9.323856e-01	9.410442e-01	9.498397e-01	9.587218e-01	9.676729e-01	9.766186e-01	9.855615e-01	9.944187e-01	1.003109e+00	1.011571e+00	1.019720e+00	1.027509e+00	1.034917e+00	1.041992e+00	1.048913e+00	1.055939e+00	1.063460e+00	1.071774e+00	1.080976e+00	1.090684e+00	1.100036e+00	1.107782e+00	1.112587e+00	1.113361e+00	1.109742e+00	1.102492e+00	1.093778e+00	1.086677e+00	1.084160e+00	1.088064e+00	1.098280e+00	1.112853e+00	1.130017e+00	1.148479e+00	1.168636e+00	1.192714e+00	1.181127e+00	9.999764e-01	9.999694e-01	9.999527e-01	9.999288e-01	9.999046e-01	9.998764e-01	9.998368e-01	9.997815e-01	9.997188e-01	9.996667e-01	9.996322e-01	9.996438e-01	9.996982e-01	9.998089e-01	9.999040e-01	9.999808e-01	1.000023e+00	1.000049e+00	1.000064e+00	1.000070e+00	1.000073e+00	1.000074e+00	1.000074e+00	1.000076e+00	1.000077e+00	1.000080e+00	1.000085e+00	1.000092e+00	1.000101e+00	1.000114e+00	1.000129e+00	1.000150e+00	1.000169e+00	1.000196e+00	1.000213e+00	1.000224e+00	1.000226e+00	1.000213e+00	1.000203e+00	1.000190e+00	1.000184e+00	1.000168e+00	1.000151e+00	1.000130e+00	1.000106e+00	1.000078e+00	1.000060e+00	1.000046e+00	1.000013e+00	9.999797e-01	9.443324e-01	9.020674e-01	8.213824e-01	9.232640e-01	8.406845e-01	1.183062e+00	1.173570e+00	9.408043e-01	9.112726e-01	1.217005e+00	9.308313e-01	8.720756e-01	1.151717e+00	1.144987e+00	8.786889e-01	9.208901e-01	1.307636e+00	1.136015e+00	1.123647e+00	1.337687e+00	8.976504e-01	9.609039e-01	9.507432e-01	8.073061e-01	9.714746e-01	7.943609e-01	9.825805e-01	8.784172e-01	9.931904e-01	9.171329e-01	1.000619e+00	1.344665e+00	1.006088e+00	1.003002e+00	1.100369e+00	8.522892e-01	9.769842e-01	1.025356e+00	1.107395e+00	1.065588e+00	8.484528e-01	9.974990e-01	9.358375e-01	1.164146e+00	8.851359e-01	8.538368e-01	8.706363e-01	8.576917e-01	8.639707e-01	8.606414e-01	8.683341e-01	1.042991e+00	8.461739e-01	9.775533e-01	8.499733e-01	8.197392e-01	8.278155e-01	1.018714e+00	8.182300e-01	1.003612e+00	8.544759e-01	8.348279e-01	9.053972e-01	8.850024e-01	8.774987e-01	8.431863e-01	8.891895e-01	9.880867e-01	1.070117e+00	1.157649e+00	1.209200e+00	8.234952e-01	1.002357e+00	1.012767e+00	1.087634e+00	1.133864e+00	9.661212e-01	8.225146e-01	8.739876e-01	9.258260e-01	9.457567e-01	8.762364e-01	8.280140e-01	8.812307e-01	9.066163e-01	9.600953e-01	1.248743e+00	1.133830e+00	8.341472e-01	8.387182e-01	1.211158e+00	8.250583e-01	8.947197e-01	8.183326e-01	8.204889e-01	8.554542e-01	9.160322e-01	1.279726e+00	1.318487e+00	8.546474e-01	1.324586e+00	7.951297e-01	7.745949e-01	7.811539e-01	7.756264e-01	8.177808e-01	1.140214e+00	8.498455e-01	8.348983e-01	1.097231e+00	1.105871e+00	1.052285e+00	8.400083e-01	8.254472e-01	8.117554e-01	1.083646e+00	1.067048e+00	7.730735e-01	1.092478e+00	1.106615e+00	1.099062e+00	7.740070e-01	7.731987e-01	8.004100e-01	7.964435e-01	7.836798e-01	8.039641e-01	8.299857e-01	8.145817e-01	7.808072e-01	7.772288e-01	8.923359e-01	7.865848e-01	7.901917e-01	9.072732e-01	8.656805e-01	9.569825e-01	9.398891e-01	9.915032e-01	9.742812e-01	1.023931e+00	1.008231e+00	1.059446e+00	1.038436e+00	1.104231e+00	1.075184e+00	1.102347e+00	1.031324e+00	1.045364e+00	9.999592e-01	1.016229e+00	9.656278e-01	9.829348e-01	9.315020e-01	9.483884e-01	8.996252e-01	9.151730e-01	8.598326e-01	8.853944e-01	7.882878e-01	7.922522e-01	7.823063e-01	7.850761e-01	7.771772e-01	7.790910e-01	8.464837e-01	7.868991e-01	8.312955e-01	9.814554e-01	1.043720e+00	9.557850e-01	8.228462e-01	8.673403e-01	1.053420e+00	8.069092e-01	9.226088e-01	7.735552e-01	7.728078e-01	7.984629e-01	7.745830e-01	1.090302e+00	1.092376e+00	8.022525e-01	1.099372e+00	1.110421e+00	8.055901e-01	8.093212e-01	1.091888e+00	1.206471e+00	1.157952e+00	1.174455e+00	8.933540e-01	9.970036e-01	1.124416e+00	8.450291e-01	1.286683e+00	1.170399e+00	9.300597e-01	8.611267e-01	8.190196e-01	7.851278e-01	1.199583e+00	1.259536e+00	8.238823e-01	9.165130e-01	1.003320e+00	1.199632e+00	8.735075e-01	9.118651e-01	9.456833e-01	1.133353e+00	8.258193e-01	9.762959e-01	9.657751e-01	9.126362e-01	1.317252e+00	8.364011e-01	1.132828e+00	1.041624e+00	8.603866e-01	9.212425e-01	9.028929e-01	8.580280e-01	9.245808e-01	8.471609e-01	9.965509e-01	9.505763e-01	9.565193e-01	8.548438e-01	9.153165e-01	1.020540e+00	7.830740e-01	9.231557e-01	7.883659e-01	1.041856e+00	1.100606e+00	8.103925e-01	8.519428e-01	1.099646e+00	1.048670e+00	1.108354e+00	1.100927e+00	1.094590e+00	7.975374e-01	8.087018e-01	7.956084e-01	7.829393e-01	9.073336e-01	8.402443e-01	9.139761e-01	7.860604e-01	7.940031e-01	1.098098e+00	1.119028e+00	1.055545e+00	8.542429e-01	1.215365e+00	1.145818e+00	1.131612e+00	1.009086e+00	1.133509e+00	1.234090e+00	1.331024e+00	1.315058e+00	1.102266e+00	1.217657e+00	9.519901e-01	1.163047e+00	1.148576e+00	8.237854e-01	8.755347e-01	1.123031e+00	9.869521e-01	8.799726e-01	1.141661e+00	1.332380e+00	8.564860e-01	8.203454e-01	9.709838e-01	8.034027e-01	9.816539e-01	9.920006e-01	9.376506e-01	1.000359e+00	1.005626e+00	1.017436e+00	1.048648e+00	1.027464e+00	1.058816e+00	1.110018e+00	8.747694e-01	9.359170e-01	9.408183e-01	1.155386e+00	8.599554e-01	8.625944e-01	8.657155e-01	1.074346e+00	8.516672e-01	8.546383e-01	8.296467e-01	1.004277e+00	1.007902e+00	1.011330e+00	8.672724e-01	9.017326e-01	8.789476e-01	8.903310e-01	1.077036e+00	1.094514e+00	9.260451e-01	9.309765e-01	8.918756e-01	8.829209e-01	8.825754e-01	8.863680e-01	9.852044e-01	9.678277e-01	1.165345e+00	8.350762e-01	8.413112e-01	8.490006e-01	8.444004e-01	8.329320e-01	8.298610e-01	8.232783e-01	8.238108e-01	8.272984e-01	1.298357e+00	1.267562e+00	8.001656e-01	1.095900e+00	8.567159e-01	8.470224e-01	8.419225e-01	8.368262e-01	1.095747e+00	1.100203e+00	1.077311e+00	8.320492e-01	8.276825e-01	8.173074e-01	1.069902e+00	1.096249e+00	7.868135e-01	7.896387e-01	7.995095e-01	8.014665e-01	7.872076e-01	7.849579e-01	7.838549e-01	9.889523e-01	9.557110e-01	9.474229e-01	9.807203e-01	1.012978e+00	1.062590e+00	1.034942e+00	1.027847e+00	1.005208e+00	9.971735e-01	9.723783e-01	9.640333e-01	9.392264e-01	9.311224e-01	9.076763e-01	9.002916e-01	8.672955e-01	8.616981e-01	8.932623e-01	8.865153e-01	7.937856e-01	7.921723e-01	7.907688e-01	7.895444e-01	8.807977e-01	8.086165e-01	8.199850e-01	9.555569e-01	9.606343e-01	8.689916e-01	8.722317e-01	1.069717e+00	8.350109e-01	7.833754e-01	7.840943e-01	8.070380e-01	8.052694e-01	8.146412e-01	8.123249e-01	1.091038e+00	1.084525e+00	8.943928e-01	8.985929e-01	1.025309e+00	1.297444e+00	8.252609e-01	1.311609e+00	8.534821e-01	8.292077e-01	9.510681e-01	8.777099e-01	1.007443e+00	1.107321e+00	1.101255e+00	1.096612e+00	1.081181e+00	1.115974e+00	1.160563e+00	1.181452e+00	1.153144e+00	1.200927e+00	1.103907e+00	1.283257e+00	9.202891e-01	1.010850e+00	1.131558e+00	8.756491e-01	1.172914e+00	1.220863e+00	9.222702e-01	1.275977e+00	9.269378e-01	1.131353e+00	9.863633e-01	1.190709e+00	8.325214e-01	9.812357e-01	9.176647e-01	1.139453e+00	1.160739e+00	1.095995e+00	8.593505e-01	1.093256e+00	9.162918e-01	1.125966e+00	8.544497e-01	8.065678e-01	8.136942e-01	7.935661e-01	7.998315e-01	1.171571e+00	1.293314e+00	1.184881e+00	9.088676e-01	1.240739e+00	1.055117e+00	9.323288e-01	1.312119e+00	8.665467e-01	8.627456e-01	1.078029e+00	9.819559e-01	1.017741e+00	9.871784e-01	9.238612e-01	1.097524e+00	1.095649e+00	1.051740e+00	1.045113e+00	8.120050e-01	8.084534e-01	8.010098e-01	7.918085e-01	9.087138e-01	9.131400e-01	8.458296e-01	9.421794e-01	7.927078e-01	1.095971e+00	1.136242e+00	1.028967e+00	1.134215e+00	1.249581e+00	1.314999e+00	1.053695e+00	1.186192e+00	1.178452e+00	1.070321e+00	1.122723e+00	8.819603e-01	8.611117e-01	8.265212e-01	9.708782e-01	9.760478e-01	9.913499e-01	9.960377e-01	9.598088e-01	9.454969e-01	1.000285e+00	1.004064e+00	1.029628e+00	1.041165e+00	1.112209e+00	9.414419e-01	9.462679e-01	1.145973e+00	8.650191e-01	8.679888e-01	8.572351e-01	8.595393e-01	1.031623e+00	1.015034e+00	1.021003e+00	8.815563e-01	8.737012e-01	8.810469e-01	8.845632e-01	1.085511e+00	1.099622e+00	9.317160e-01	9.366263e-01	9.092660e-01	8.990532e-01	8.898666e-01	8.882505e-01	8.921140e-01	1.011545e+00	9.928134e-01	9.755091e-01	8.368379e-01	8.424611e-01	8.483577e-01	8.605095e-01	8.551682e-01	8.503169e-01	8.418012e-01	8.381840e-01	8.289219e-01	8.298765e-01	8.350787e-01	8.181495e-01	8.493051e-01	8.440574e-01	1.096482e+00	8.390670e-01	8.344350e-01	8.302489e-01	8.232597e-01	1.071763e+00	8.042168e-01	8.102035e-01	8.046632e-01	8.028139e-01	7.921317e-01	7.919506e-01	7.917810e-01	9.552707e-01	1.065109e+00	1.058364e+00	1.038449e+00	1.031736e+00	1.024907e+00	1.010340e+00	1.002817e+00	9.950643e-01	9.792988e-01	9.713065e-01	9.632869e-01	9.473130e-01	9.393931e-01	9.315855e-01	9.088992e-01	8.695580e-01	8.642929e-01	9.018027e-01	8.949878e-01	8.883906e-01	7.993310e-01	7.977965e-01	7.965145e-01	7.954163e-01	7.944822e-01	8.287534e-01	8.425694e-01	9.559178e-01	9.608730e-01	9.658244e-01	8.711937e-01	8.744266e-01	8.600694e-01	8.817358e-01	7.926844e-01	7.944830e-01	7.967838e-01	8.102862e-01	8.203979e-01	8.178705e-01	8.155971e-01	1.089390e+00	1.084278e+00	1.078288e+00	8.960890e-01	9.001876e-01	9.043903e-01	8.324660e-01	8.304929e-01	1.289944e+00	9.281048e-01	1.129356e+00	1.097677e+00	8.830975e-01	1.261892e+00	1.159456e+00	1.013180e+00	1.018104e+00	1.057421e+00	1.112694e+00	8.576191e-01	1.271269e+00	9.660492e-01	1.206348e+00	1.092415e+00	1.120629e+00	1.172028e+00	9.172786e-01	1.130608e+00	1.185407e+00	1.188067e+00	9.563966e-01	8.739578e-01	1.104106e+00	8.600135e-01	9.402568e-01	8.662805e-01	8.357826e-01	1.101034e+00	8.780695e-01	1.090332e+00	1.087297e+00	9.861650e-01	7.998876e-01	8.103215e-01	1.122118e+00	8.186943e-01	9.865911e-01	1.146693e+00	1.106000e+00	1.144057e+00	1.078630e+00	1.128382e+00	9.234024e-01	1.231575e+00	9.285124e-01	9.326054e-01	1.154393e+00	1.129950e+00	1.180682e+00	1.015148e+00	8.615610e-01	8.157874e-01	1.219408e+00	1.002398e+00	9.253565e-01	1.048416e+00	8.175498e-01	8.140214e-01	8.121462e-01	9.144795e-01	9.194789e-01	1.095702e+00	1.042543e+00	1.086578e+00	1.254719e+00	1.296767e+00	1.080054e+00	1.065698e+00	1.113091e+00	8.850272e-01	9.764886e-01	9.814742e-01	9.914639e-01	9.961972e-01	9.674057e-01	9.532910e-01	1.000617e+00	1.004881e+00	1.009007e+00	1.041510e+00	1.053086e+00	9.468074e-01	9.520337e-01	1.137239e+00	8.682072e-01	8.708995e-01	8.628966e-01	8.647504e-01	1.024026e+00	1.031682e+00	8.891124e-01	8.806339e-01	8.871903e-01	1.091098e+00	1.102743e+00	9.377249e-01	9.429977e-01	9.169152e-01	9.067810e-01	8.978006e-01	8.901697e-01	8.945566e-01	1.037363e+00	1.017936e+00	9.994166e-01	9.825777e-01	8.403628e-01	8.449258e-01	8.502783e-01	8.555052e-01	8.679503e-01	8.623814e-01	8.571443e-01	8.524429e-01	8.482203e-01	8.373019e-01	8.358092e-01	8.445428e-01	8.519887e-01	1.094599e+00	1.093693e+00	8.468445e-01	8.419984e-01	8.375412e-01	8.335307e-01	8.299778e-01	8.268101e-01	8.370812e-01	8.085138e-01	8.068912e-01	7.996793e-01	7.999853e-01	8.007526e-01	8.015066e-01	1.067028e+00	1.060914e+00	1.054737e+00	1.042056e+00	1.035722e+00	1.029367e+00	1.021897e+00	1.008908e+00	1.000845e+00	9.934058e-01	9.781916e-01	9.709364e-01	9.627650e-01	9.555920e-01	9.473337e-01	9.403319e-01	9.321166e-01	8.673753e-01	8.717376e-01	9.108710e-01	9.031591e-01	8.972424e-01	8.900155e-01	8.053114e-01	8.039512e-01	8.026274e-01	8.016089e-01	8.007162e-01	8.001227e-01	8.492084e-01	8.647112e-01	9.616025e-01	9.667671e-01	9.715222e-01	8.740811e-01	8.764179e-01	8.803374e-01	8.841577e-01	9.071226e-01	9.339694e-01	8.026140e-01	8.049020e-01	8.086946e-01	8.131284e-01	8.268567e-01	8.241403e-01	8.217044e-01	8.193639e-01	1.072927e+00	1.083239e+00	1.078466e+00	8.978133e-01	9.024317e-01	9.059280e-01	9.107509e-01	8.413393e-01	8.387489e-01	8.368158e-01	1.148052e+00	1.125343e+00	1.073701e+00	1.177465e+00	1.171259e+00	9.363817e-01	9.362978e-01	1.193494e+00	1.096515e+00	1.235366e+00	1.081067e+00	8.826998e-01	8.076860e-01	1.018704e+00	1.127164e+00	1.234987e+00	1.292318e+00	1.294371e+00	1.281516e+00	1.250849e+00	1.138724e+00	8.218732e-01	1.084565e+00	1.121530e+00	1.026546e+00	9.595747e-01	8.664526e-01	1.115925e+00	1.068625e+00	1.081997e+00	8.773958e-01	8.678266e-01	9.226583e-01	9.813149e-01	8.606296e-01	8.874920e-01	8.229522e-01	1.109674e+00	9.483857e-01	1.165199e+00	1.099799e+00	1.292575e+00	1.182391e+00	1.173230e+00	1.019720e+00	1.061232e+00	1.266771e+00	9.858856e-01	1.215152e+00	1.088026e+00	1.162025e+00	1.177068e+00	1.178082e+00	1.125472e+00	8.423700e-01	8.430950e-01	1.104119e+00	8.873886e-01	1.085384e+00	1.113477e+00	9.275542e-01	1.200179e+00	8.193620e-01	8.182326e-01	8.157057e-01	9.187721e-01	1.053283e+00	1.090000e+00	1.275306e+00	1.103696e+00	9.825633e-01	9.866811e-01	9.920586e-01	9.964862e-01	9.612010e-01	9.754590e-01	1.001612e+00	1.005604e+00	1.010547e+00	1.015616e+00	1.052038e+00	1.062704e+00	9.507978e-01	1.128574e+00	8.712892e-01	8.741604e-01	8.679894e-01	8.702938e-01	1.033977e+00	1.042187e+00	8.964431e-01	8.873738e-01	1.095029e+00	1.104728e+00	9.443578e-01	9.247725e-01	9.139068e-01	9.072025e-01	8.946981e-01	1.042327e+00	1.023734e+00	1.005932e+00	9.904305e-01	8.452055e-01	8.475751e-01	8.527404e-01	8.570487e-01	8.623094e-01	8.749230e-01	8.704831e-01	8.634250e-01	8.598994e-01	8.541909e-01	1.094057e+00	1.092109e+00	1.090214e+00	8.543437e-01	8.501261e-01	8.446743e-01	8.411785e-01	8.365182e-01	8.442568e-01	8.563832e-01	8.147554e-01	8.124413e-01	8.070703e-01	8.098580e-01	8.118451e-01	1.062732e+00	1.057299e+00	1.051225e+00	1.045389e+00	1.039174e+00	1.033229e+00	1.026391e+00	1.016497e+00	1.007092e+00	9.954002e-01	9.666343e-01	9.518459e-01	9.371543e-01	9.086544e-01	8.962872e-01	8.118613e-01	8.097816e-01	8.095686e-01	8.076475e-01	8.080158e-01	8.072960e-01	8.072729e-01	8.706293e-01	8.867909e-01	9.677452e-01	9.722246e-01	9.772699e-01	8.772659e-01	8.811130e-01	9.067086e-01	9.305688e-01	9.565273e-01	8.138313e-01	8.168163e-01	8.216847e-01	8.286965e-01	8.357985e-01	8.339273e-01	8.301646e-01	8.285522e-01	8.257645e-01	1.078201e+00	1.072942e+00	9.023164e-01	9.103412e-01	8.516358e-01	8.471354e-01	8.457400e-01	8.427933e-01	1.166078e+00	1.154375e+00	1.181134e+00	1.254995e+00	1.180682e+00	1.088606e+00	1.106555e+00	1.183409e+00	1.086403e+00	1.141045e+00	1.105939e+00	1.255338e+00	1.081817e+00	1.161524e+00	8.282814e-01	1.177728e+00	1.060978e+00	1.152350e+00	1.141414e+00	1.079418e+00	8.888012e-01	1.101716e+00	8.496576e-01	1.035166e+00	1.024797e+00	9.106110e-01	9.442046e-01	8.864974e-01	1.231222e+00	8.726347e-01	9.701578e-01	9.573048e-01	8.172577e-01	1.094246e+00	1.066030e+00	1.212903e+00	1.031029e+00	1.070053e+00	1.170731e+00	1.097582e+00	1.291355e+00	1.244999e+00	1.113741e+00	9.441420e-01	8.700794e-01	8.599592e-01	1.112130e+00	1.173869e+00	1.129522e+00	1.275256e+00	1.176732e+00	1.064259e+00	1.216966e+00	1.199795e+00	8.879950e-01	1.101542e+00	1.083946e+00	1.080337e+00	8.786947e-01	8.245658e-01	8.210684e-01	9.358654e-01	1.091852e+00	1.122779e+00	1.122176e+00	9.901258e-01	9.994897e-01	9.830070e-01	1.009059e+00	1.017510e+00	1.060615e+00	1.120995e+00	8.760577e-01	1.043362e+00	1.051497e+00	8.996468e-01	1.097454e+00	9.513573e-01	9.587471e-01	9.280373e-01	9.145908e-01	8.954365e-01	1.046656e+00	1.028100e+00	1.011331e+00	9.997734e-01	8.534505e-01	8.612419e-01	8.688093e-01	8.740496e-01	8.636773e-01	1.091457e+00	1.088962e+00	8.503205e-01	8.421762e-01	8.759974e-01	8.182488e-01	8.225201e-01	1.003199e+00	1.056070e+00	1.044841e+00	1.033301e+00	1.022714e+00	1.013321e+00	9.908541e-01	9.771682e-01	9.630719e-01	9.489368e-01	9.347843e-01	9.208104e-01	9.080895e-01	8.975899e-01	8.161976e-01	8.148877e-01	8.151001e-01	8.138357e-01	8.158978e-01	8.921847e-01	9.090293e-01	9.672459e-01	9.753276e-01	9.832598e-01	8.800657e-01	8.837894e-01	9.281703e-01	9.512338e-01	9.763568e-01	1.002455e+00	8.263349e-01	8.299358e-01	8.354861e-01	8.439645e-01	8.548090e-01	8.607990e-01	8.360131e-01	8.325389e-01	1.077797e+00	1.073291e+00	9.028476e-01	9.187256e-01	9.272103e-01	8.557865e-01	8.507892e-01	1.117389e+00	1.166018e+00	1.161177e+00	1.136253e+00	1.025474e+00	1.108370e+00	1.173798e+00	1.135620e+00	1.185597e+00	1.135184e+00	1.147603e+00	1.126775e+00	1.092507e+00	1.193612e+00	1.235630e+00	1.088367e+00	9.515856e-01	8.358930e-01	1.125044e+00	1.017129e+00	1.099452e+00	8.876473e-01	1.066665e+00	1.169561e+00	8.756819e-01	1.043570e+00	9.189962e-01	8.966386e-01	1.083528e+00	1.091447e+00	1.082186e+00	1.067015e+00	1.171389e+00	1.098736e+00	1.103073e+00	1.082831e+00	8.283542e-01	8.985343e-01	9.355852e-01	9.897537e-01	1.150518e+00	1.157258e+00	1.272004e+00	1.075361e+00	1.085452e+00	1.175645e+00	1.099194e+00	1.169039e+00	1.152265e+00	8.908628e-01	1.224908e+00	9.799766e-01	9.646833e-01	1.094849e+00	1.233600e+00	1.067210e+00	1.106562e+00	9.439013e-01	1.254312e+00	1.176116e+00	1.005258e+00	1.213096e+00	1.200148e+00	8.801846e-01	1.117598e+00	1.079350e+00	8.891329e-01	8.319056e-01	9.086230e-01	1.118330e+00	1.143433e+00	9.980320e-01	1.007580e+00	1.025398e+00	1.034306e+00	1.114269e+00	8.793730e-01	1.051246e+00	1.059001e+00	8.698635e-01	9.748692e-01	9.828014e-01	9.588340e-01	9.500543e-01	9.347834e-01	9.199798e-01	1.049060e+00	8.581124e-01	8.628202e-01	9.055729e-01	8.916469e-01	9.271672e-01	1.091450e+00	8.707166e-01	8.609012e-01	8.332072e-01	1.059486e+00	1.049543e+00	1.009807e+00	1.038878e+00	1.028572e+00	1.019146e+00	9.991162e-01	9.867726e-01	9.735533e-01	9.600766e-01	9.464816e-01	9.328355e-01	9.199154e-01	8.255159e-01	8.237023e-01	8.228199e-01	8.228550e-01	8.230370e-01	8.274064e-01	9.123124e-01	9.305352e-01	9.666075e-01	9.900220e-01	8.826195e-01	8.863470e-01	9.484968e-01	9.694022e-01	9.929324e-01	1.016438e+00	1.041006e+00	8.402662e-01	8.460681e-01	8.514155e-01	8.596246e-01	8.717150e-01	8.520777e-01	8.450918e-01	8.400833e-01	1.074558e+00	1.067818e+00	9.035871e-01	9.111421e-01	8.791563e-01	8.690421e-01	8.617386e-01	8.577973e-01	1.152328e+00	1.152977e+00	1.149675e+00	1.121132e+00	1.156070e+00	1.140384e+00	1.113590e+00	1.050483e+00	1.172800e+00	1.120684e+00	1.117931e+00	1.071726e+00	1.166005e+00	1.084786e+00	8.331574e-01	1.137606e+00	1.141596e+00	1.128290e+00	1.169441e+00	1.070945e+00	9.260651e-01	1.027036e+00	1.024946e+00	9.594719e-01	1.132800e+00	1.131997e+00	1.128187e+00	1.171839e+00	1.172189e+00	9.002133e-01	9.