# vtk DataFile Version 3.0
vtk output
ASCII
DATASET UNSTRUCTURED_GRID
POINTS 200 float
9.997500e-01	-3.633243e-05	0.0	9.990000e-01	-1.454723e-04	0.0	9.977600e-01	-3.275074e-04	0.0	9.960200e-01	-5.899271e-04	0.0	9.937800e-01	-9.470945e-04	0.0	9.910500e-01	-1.422095e-03	0.0	9.878400e-01	-2.045516e-03	0.0	9.841300e-01	-2.853672e-03	0.0	9.799500e-01	-3.858880e-03	0.0	9.752800e-01	-5.058299e-03	0.0	9.701500e-01	-6.405112e-03	0.0	9.645400e-01	-7.840846e-03	0.0	9.584700e-01	-9.290163e-03	0.0	9.519400e-01	-1.069771e-02	0.0	9.449600e-01	-1.203553e-02	0.0	9.375400e-01	-1.330803e-02	0.0	9.296900e-01	-1.454251e-02	0.0	9.214000e-01	-1.577727e-02	0.0	9.127000e-01	-1.703954e-02	0.0	9.035800e-01	-1.835036e-02	0.0	8.940600e-01	-1.971338e-02	0.0	8.841500e-01	-2.112398e-02	0.0	8.738500e-01	-2.257397e-02	0.0	8.631800e-01	-2.405123e-02	0.0	8.521600e-01	-2.554511e-02	0.0	8.407700e-01	-2.705246e-02	0.0	8.290500e-01	-2.856403e-02	0.0	8.170100e-01	-3.007597e-02	0.0	8.046400e-01	-3.158747e-02	0.0	7.919700e-01	-3.309287e-02	0.0	7.790100e-01	-3.458890e-02	0.0	7.657800e-01	-3.607095e-02	0.0	7.522800e-01	-3.753647e-02	0.0	7.385200e-01	-3.898160e-02	0.0	7.245300e-01	-4.040048e-02	0.0	7.103200e-01	-4.178947e-02	0.0	6.958900e-01	-4.314602e-02	0.0	6.812700e-01	-4.446493e-02	0.0	6.664700e-01	-4.574319e-02	0.0	6.515000e-01	-4.697804e-02	0.0	6.363800e-01	-4.816616e-02	0.0	6.211300e-01	-4.930464e-02	0.0	6.057600e-01	-5.039162e-02	0.0	5.902800e-01	-5.142547e-02	0.0	5.747100e-01	-5.240414e-02	0.0	5.590600e-01	-5.332646e-02	0.0	5.433600e-01	-5.419034e-02	0.0	5.276100e-01	-5.499559e-02	0.0	5.118400e-01	-5.574057e-02	0.0	4.960500e-01	-5.642522e-02	0.0	4.802700e-01	-5.704819e-02	0.0	4.645100e-01	-5.760909e-02	0.0	4.487800e-01	-5.810746e-02	0.0	4.331100e-01	-5.854221e-02	0.0	4.175000e-01	-5.891312e-02	0.0	4.019700e-01	-5.921928e-02	0.0	3.865400e-01	-5.945982e-02	0.0	3.712300e-01	-5.963385e-02	0.0	3.560400e-01	-5.974056e-02	0.0	3.409900e-01	-5.977881e-02	0.0	3.261100e-01	-5.974750e-02	0.0	3.114000e-01	-5.964548e-02	0.0	2.968700e-01	-5.947137e-02	0.0	2.825500e-01	-5.922409e-02	0.0	2.684500e-01	-5.890235e-02	0.0	2.545700e-01	-5.850447e-02	0.0	2.409400e-01	-5.802960e-02	0.0	2.275700e-01	-5.747644e-02	0.0	2.144700e-01	-5.684371e-02	0.0	2.016600e-01	-5.613072e-02	0.0	1.891400e-01	-5.533580e-02	0.0	1.769300e-01	-5.445854e-02	0.0	1.650400e-01	-5.349808e-02	0.0	1.534900e-01	-5.245466e-02	0.0	1.422900e-01	-5.132799e-02	0.0	1.314400e-01	-5.011682e-02	0.0	1.209500e-01	-4.882090e-02	0.0	1.108500e-01	-4.744301e-02	0.0	1.011300e-01	-4.598098e-02	0.0	9.181000e-02	-4.443692e-02	0.0	8.290000e-02	-4.281196e-02	0.0	7.440000e-02	-4.110546e-02	0.0	6.633000e-02	-3.932094e-02	0.0	5.869000e-02	-3.745812e-02	0.0	5.149000e-02	-3.551900e-02	0.0	4.474000e-02	-3.350613e-02	0.0	3.844000e-02	-3.141918e-02	0.0	3.260000e-02	-2.926100e-02	0.0	2.723000e-02	-2.703528e-02	0.0	2.232000e-02	-2.473699e-02	0.0	1.790000e-02	-2.238013e-02	0.0	1.395000e-02	-1.995387e-02	0.0	1.049000e-02	-1.746947e-02	0.0	7.520000e-03	-1.492785e-02	0.0	5.040000e-03	-1.232919e-02	0.0	3.050000e-03	-9.671942e-03	0.0	1.560000e-03	-6.971350e-03	0.0	5.600000e-04	-4.206259e-03	0.0	6.000000e-05	-1.384017e-03	0.0	0.000000e+00	0.000000e+00	0.0	6.000000e-05	1.263720e-03	0.0	5.600000e-04	3.624971e-03	0.0	1.560000e-03	5.788708e-03	0.0	3.050000e-03	7.806692e-03	0.0	5.040000e-03	9.723944e-03	0.0	7.520000e-03	1.154822e-02	0.0	1.049000e-02	1.329450e-02	0.0	1.395000e-02	1.497331e-02	0.0	1.790000e-02	1.659255e-02	0.0	2.232000e-02	1.815185e-02	0.0	2.723000e-02	1.966435e-02	0.0	3.260000e-02	2.112593e-02	0.0	3.844000e-02	2.254427e-02	0.0	4.474000e-02	2.392075e-02	0.0	5.149000e-02	2.525673e-02	0.0	5.869000e-02	2.655525e-02	0.0	6.633000e-02	2.781702e-02	0.0	7.440000e-02	2.904271e-02	0.0	8.290000e-02	3.023424e-02	0.0	9.181000e-02	3.139050e-02	0.0	1.011300e-01	3.251300e-02	0.0	1.108500e-01	3.360171e-02	0.0	1.209500e-01	3.465550e-02	0.0	1.314400e-01	3.567622e-02	0.0	1.422900e-01	3.666159e-02	0.0	1.534900e-01	3.761135e-02	0.0	1.650400e-01	3.852585e-02	0.0	1.769300e-01	3.940441e-02	0.0	1.891400e-01	4.024556e-02	0.0	2.016600e-01	4.104852e-02	0.0	2.144700e-01	4.181177e-02	0.0	2.275700e-01	4.253493e-02	0.0	2.409400e-01	4.321627e-02	0.0	2.545700e-01	4.385455e-02	0.0	2.684500e-01	4.444836e-02	0.0	2.825500e-01	4.499540e-02	0.0	2.968700e-01	4.549450e-02	0.0	3.114000e-01	4.594386e-02	0.0	3.261100e-01	4.634104e-02	0.0	3.409900e-01	4.668416e-02	0.0	3.560400e-01	4.697134e-02	0.0	3.712300e-01	4.720002e-02	0.0	3.865400e-01	4.736791e-02	0.0	4.019700e-01	4.747283e-02	0.0	4.175000e-01	4.751235e-02	0.0	4.331100e-01	4.748412e-02	0.0	4.487800e-01	4.738590e-02	0.0	4.645100e-01	4.721534e-02	0.0	4.802700e-01	4.697047e-02	0.0	4.960500e-01	4.664927e-02	0.0	5.118400e-01	4.624981e-02	0.0	5.276100e-01	4.577096e-02	0.0	5.433600e-01	4.521102e-02	0.0	5.590600e-01	4.456963e-02	0.0	5.747100e-01	4.384568e-02	0.0	5.902800e-01	4.303979e-02	0.0	6.057600e-01	4.215225e-02	0.0	6.211300e-01	4.118443e-02	0.0	6.363800e-01	4.013773e-02	0.0	6.515000e-01	3.901409e-02	0.0	6.664700e-01	3.781688e-02	0.0	6.812700e-01	3.655030e-02	0.0	6.958900e-01	3.521850e-02	0.0	7.103200e-01	3.382630e-02	0.0	7.245300e-01	3.238125e-02	0.0	7.385200e-01	3.088870e-02	0.0	7.522800e-01	2.935558e-02	0.0	7.657800e-01	2.779181e-02	0.0	7.790100e-01	2.620575e-02	0.0	7.919700e-01	2.460505e-02	0.0	8.046400e-01	2.300024e-02	0.0	8.170100e-01	2.140096e-02	0.0	8.290500e-01	1.981955e-02	0.0	8.407700e-01	1.826280e-02	0.0	8.521600e-01	1.673917e-02	0.0	8.631800e-01	1.525949e-02	0.0	8.738500e-01	1.382424e-02	0.0	8.841500e-01	1.243665e-02	0.0	8.940600e-01	1.109791e-02	0.0	9.035800e-01	9.806341e-03	0.0	9.127000e-01	8.564646e-03	0.0	9.214000e-01	7.383771e-03	0.0	9.296900e-01	6.280276e-03	0.0	9.375400e-01	5.285125e-03	0.0	9.449600e-01	4.427458e-03	0.0	9.519400e-01	3.732191e-03	0.0	9.584700e-01	3.205440e-03	0.0	9.645400e-01	2.827030e-03	0.0	9.701500e-01	2.552105e-03	0.0	9.752800e-01	2.324866e-03	0.0	9.799500e-01	2.093081e-03	0.0	9.841300e-01	1.827035e-03	0.0	9.878400e-01	1.519905e-03	0.0	9.910500e-01	1.190203e-03	0.0	9.937800e-01	8.630223e-04	0.0	9.960200e-01	5.666264e-04	0.0	9.977600e-01	3.231883e-04	0.0	9.990000e-01	1.450783e-04	0.0	9.997500e-01	3.632619e-05	0.0	1.000000e+00	0.000000e+00	0.0	
CELLS 200	600
2	149	150	2	150	151	2	151	152	2	152	153	2	153	154	2	154	155	2	155	156	2	156	157	2	157	158	2	158	159	2	159	160	2	160	161	2	161	162	2	162	163	2	163	164	2	164	165	2	165	166	2	166	167	2	167	168	2	168	169	2	169	170	2	170	171	2	171	172	2	172	173	2	173	174	2	174	175	2	175	176	2	176	177	2	177	178	2	178	179	2	179	180	2	180	181	2	181	182	2	31	32	2	32	33	2	33	34	2	34	35	2	35	36	2	36	37	2	37	38	2	38	39	2	39	40	2	40	41	2	41	42	2	42	43	2	43	44	2	44	45	2	45	46	2	46	47	2	47	48	2	48	49	2	49	50	2	50	51	2	51	52	2	52	53	2	53	54	2	54	55	2	55	56	2	56	57	2	57	58	2	58	59	2	59	60	2	60	61	2	61	62	2	62	63	2	63	64	2	64	65	2	65	66	2	66	67	2	67	68	2	68	69	2	69	70	2	70	71	2	71	72	2	72	73	2	73	74	2	74	75	2	75	76	2	76	77	2	77	78	2	78	79	2	79	80	2	80	81	2	81	82	2	82	83	2	83	84	2	113	114	2	114	115	2	115	116	2	116	117	2	117	118	2	118	119	2	119	120	2	120	121	2	121	122	2	122	123	2	123	124	2	124	125	2	125	126	2	126	127	2	127	128	2	128	129	2	129	130	2	130	131	2	131	132	2	132	133	2	133	134	2	134	135	2	135	136	2	136	137	2	137	138	2	138	139	2	139	140	2	140	141	2	141	142	2	142	143	2	143	144	2	144	145	2	145	146	2	146	147	2	147	148	2	148	149	2	84	85	2	85	86	2	86	87	2	87	88	2	88	89	2	89	90	2	90	91	2	91	92	2	92	93	2	93	94	2	94	95	2	95	96	2	96	97	2	97	98	2	98	99	2	99	100	2	100	101	2	101	102	2	102	103	2	103	104	2	104	105	2	105	106	2	106	107	2	107	108	2	108	109	2	109	110	2	110	111	2	111	112	2	112	113	2	199	0	2	0	1	2	1	2	2	2	3	2	3	4	2	4	5	2	5	6	2	6	7	2	182	183	2	183	184	2	184	185	2	185	186	2	186	187	2	187	188	2	188	189	2	189	190	2	190	191	2	191	192	2	192	193	2	193	194	2	194	195	2	195	196	2	196	197	2	197	198	2	198	199	2	7	8	2	8	9	2	9	10	2	10	11	2	11	12	2	12	13	2	13	14	2	14	15	2	15	16	2	16	17	2	17	18	2	18	19	2	19	20	2	20	21	2	21	22	2	22	23	2	23	24	2	24	25	2	25	26	2	26	27	2	27	28	2	28	29	2	29	30	2	30	31	
CELL_TYPES 200
3	3	3	3	3	3	3	3	3	3	3	3	3	3	3	3	3	3	3	3	3	3	3	3	3	3	3	3	3	3	3	3	3	3	3	3	3	3	3	3	3	3	3	3	3	3	3	3	3	3	3	3	3	3	3	3	3	3	3	3	3	3	3	3	3	3	3	3	3	3	3	3	3	3	3	3	3	3	3	3	3	3	3	3	3	3	3	3	3	3	3	3	3	3	3	3	3	3	3	3	3	3	3	3	3	3	3	3	3	3	3	3	3	3	3	3	3	3	3	3	3	3	3	3	3	3	3	3	3	3	3	3	3	3	3	3	3	3	3	3	3	3	3	3	3	3	3	3	3	3	3	3	3	3	3	3	3	3	3	3	3	3	3	3	3	3	3	3	3	3	3	3	3	3	3	3	3	3	3	3	3	3	3	3	3	3	3	3	3	3	3	3	3	3	3	3	3	3	3	3	
POINT_DATA 200

SCALARS Conservative_1 float 1
LOOKUP_TABLE default
1.199829e+00	1.181603e+00	1.171179e+00	1.164739e+00	1.160166e+00	1.155701e+00	1.148816e+00	1.137898e+00	1.121717e+00	1.100362e+00	1.075074e+00	1.048463e+00	1.024896e+00	1.008362e+00	9.999882e-01	9.979300e-01	9.990394e-01	1.000482e+00	1.000509e+00	9.985211e-01	9.947376e-01	9.897160e-01	9.840416e-01	9.781861e-01	9.724272e-01	9.668756e-01	9.615227e-01	9.563221e-01	9.512090e-01	9.461521e-01	9.411353e-01	9.361148e-01	9.310567e-01	9.259774e-01	9.209281e-01	9.159572e-01	9.110835e-01	9.063112e-01	9.016520e-01	8.971221e-01	8.927214e-01	8.884604e-01	8.843216e-01	8.803216e-01	8.764753e-01	8.728343e-01	8.693882e-01	8.660730e-01	8.627416e-01	8.593844e-01	8.562036e-01	8.535530e-01	8.515466e-01	8.498922e-01	8.479170e-01	8.448700e-01	8.402516e-01	8.342099e-01	8.276246e-01	8.217522e-01	8.174788e-01	8.149974e-01	8.140353e-01	8.141598e-01	8.150611e-01	8.165403e-01	8.185479e-01	8.210004e-01	8.238116e-01	8.268689e-01	8.301914e-01	8.339419e-01	8.383674e-01	8.435359e-01	8.493712e-01	8.557267e-01	8.626672e-01	8.703709e-01	8.788950e-01	8.882787e-01	8.986338e-01	9.100192e-01	9.225863e-01	9.364530e-01	9.518091e-01	9.689317e-01	9.880491e-01	1.009520e+00	1.033830e+00	1.061294e+00	1.092442e+00	1.127743e+00	1.167045e+00	1.209885e+00	1.254555e+00	1.298041e+00	1.331744e+00	1.350900e+00	1.339534e+00	1.308267e+00	1.284253e+00	1.221086e+00	1.099438e+00	1.001957e+00	9.259621e-01	8.702585e-01	8.322827e-01	8.072841e-01	7.904568e-01	7.790612e-01	7.714020e-01	7.663104e-01	7.632268e-01	7.614139e-01	7.604976e-01	7.604745e-01	7.612160e-01	7.624855e-01	7.639613e-01	7.653165e-01	7.665680e-01	7.680398e-01	7.699902e-01	7.722691e-01	7.744773e-01	7.763871e-01	7.780904e-01	7.797341e-01	7.814211e-01	7.832219e-01	7.851915e-01	7.873138e-01	7.895159e-01	7.916975e-01	7.938151e-01	7.958431e-01	7.977720e-01	7.995634e-01	8.012266e-01	8.028770e-01	8.047264e-01	8.069300e-01	8.095360e-01	8.125076e-01	8.158501e-01	8.196280e-01	8.238743e-01	8.285565e-01	8.335006e-01	8.384970e-01	8.433405e-01	8.480914e-01	8.530490e-01	8.585653e-01	8.647004e-01	8.712225e-01	8.779101e-01	8.847631e-01	8.919495e-01	8.995167e-01	9.074125e-01	9.155490e-01	9.238774e-01	9.323856e-01	9.410442e-01	9.498397e-01	9.587218e-01	9.676729e-01	9.766186e-01	9.855615e-01	9.944187e-01	1.003109e+00	1.011571e+00	1.019720e+00	1.027509e+00	1.034917e+00	1.041992e+00	1.048913e+00	1.055939e+00	1.063460e+00	1.071774e+00	1.080976e+00	1.090684e+00	1.100036e+00	1.107782e+00	1.112587e+00	1.113361e+00	1.109742e+00	1.102492e+00	1.093778e+00	1.086677e+00	1.084160e+00	1.088064e+00	1.098280e+00	1.112853e+00	1.130017e+00	1.148479e+00	1.168636e+00	1.192714e+00	1.181127e+00	
SCALARS Conservative_2 float 1
LOOKUP_TABLE default
7.195757e-01	7.459512e-01	7.640420e-01	7.748514e-01	7.807433e-01	7.855168e-01	7.913228e-01	8.009880e-01	8.159974e-01	8.364042e-01	8.604926e-01	8.849354e-01	9.060896e-01	9.215745e-01	9.308007e-01	9.347635e-01	9.355175e-01	9.351569e-01	9.351404e-01	9.360797e-01	9.380284e-01	9.406856e-01	9.436756e-01	9.467080e-01	9.495961e-01	9.522741e-01	9.547371e-01	9.570271e-01	9.591546e-01	9.611517e-01	9.630536e-01	9.648525e-01	9.665626e-01	9.681818e-01	9.696973e-01	9.710971e-01	9.723958e-01	9.735743e-01	9.746430e-01	9.756170e-01	9.764774e-01	9.772590e-01	9.779355e-01	9.785441e-01	9.790520e-01	9.795001e-01	9.798658e-01	9.802012e-01	9.804743e-01	9.807244e-01	9.808924e-01	9.810053e-01	9.810482e-01	9.810777e-01	9.811133e-01	9.811870e-01	9.812258e-01	9.811488e-01	9.808247e-01	9.803293e-01	9.798254e-01	9.794123e-01	9.791627e-01	9.790114e-01	9.789592e-01	9.789153e-01	9.789026e-01	9.788493e-01	9.787689e-01	9.785943e-01	9.783390e-01	9.779491e-01	9.774267e-01	9.766915e-01	9.757310e-01	9.744048e-01	9.727329e-01	9.706207e-01	9.678376e-01	9.642287e-01	9.597039e-01	9.539713e-01	9.467675e-01	9.376758e-01	9.261806e-01	9.115538e-01	8.928636e-01	8.690353e-01	8.384963e-01	7.990973e-01	7.483521e-01	6.832133e-01	6.000170e-01	4.965585e-01	3.728454e-01	2.366376e-01	1.074525e-01	1.080559e-02	-2.158003e-02	5.237548e-03	7.307120e-02	2.105326e-01	4.135685e-01	5.903305e-01	7.153298e-01	7.968929e-01	8.484669e-01	8.813700e-01	9.026346e-01	9.169623e-01	9.269995e-01	9.341654e-01	9.396343e-01	9.439109e-01	9.473422e-01	9.502841e-01	9.527988e-01	9.549724e-01	9.569026e-01	9.585677e-01	9.600534e-01	9.614730e-01	9.628423e-01	9.640734e-01	9.651712e-01	9.661344e-01	9.670190e-01	9.678299e-01	9.686091e-01	9.693535e-01	9.700955e-01	9.708145e-01	9.715143e-01	9.721632e-01	9.727752e-01	9.733351e-01	9.738555e-01	9.743275e-01	9.747652e-01	9.751860e-01	9.756381e-01	9.761004e-01	9.765795e-01	9.770587e-01	9.775346e-01	9.780051e-01	9.784396e-01	9.788393e-01	9.791210e-01	9.793169e-01	9.794115e-01	9.794417e-01	9.793879e-01	9.792218e-01	9.788784e-01	9.783293e-01	9.776102e-01	9.766662e-01	9.755021e-01	9.740597e-01	9.723366e-01	9.703077e-01	9.679776e-01	9.653301e-01	9.623603e-01	9.590620e-01	9.554339e-01	9.515160e-01	9.472424e-01	9.427245e-01	9.379688e-01	9.329941e-01	9.279161e-01	9.227898e-01	9.176699e-01	9.125825e-01	9.074718e-01	9.022149e-01	8.965193e-01	8.900887e-01	8.825875e-01	8.740085e-01	8.647774e-01	8.559769e-01	8.491467e-01	8.458524e-01	8.471036e-01	8.528048e-01	8.614970e-01	8.705147e-01	8.765522e-01	8.769673e-01	8.704534e-01	8.577433e-01	8.395692e-01	8.174785e-01	7.911822e-01	7.596446e-01	7.213183e-01	6.623527e-01	
SCALARS Conservative_3 float 1
LOOKUP_TABLE default
1.010185e-01	1.066669e-01	1.128621e-01	1.197578e-01	1.301705e-01	1.447846e-01	1.632539e-01	1.836652e-01	2.028706e-01	2.169482e-01	2.227158e-01	2.185966e-01	2.055572e-01	1.873916e-01	1.688249e-01	1.535248e-01	1.431294e-01	1.373982e-01	1.349796e-01	1.342415e-01	1.338881e-01	1.331558e-01	1.317593e-01	1.297261e-01	1.272243e-01	1.244536e-01	1.215475e-01	1.185952e-01	1.156224e-01	1.126170e-01	1.095675e-01	1.064536e-01	1.032637e-01	9.999042e-02	9.661979e-02	9.316667e-02	8.962750e-02	8.602075e-02	8.235280e-02	7.863561e-02	7.488240e-02	7.110000e-02	6.730695e-02	6.350472e-02	5.970087e-02	5.588676e-02	5.206617e-02	4.825115e-02	4.446524e-02	4.071280e-02	3.695752e-02	3.314257e-02	2.924550e-02	2.525332e-02	2.119833e-02	1.712446e-02	1.307672e-02	9.041921e-03	4.912393e-03	5.517465e-04	-4.076666e-03	-8.951283e-03	-1.406077e-02	-1.939374e-02	-2.498843e-02	-3.087288e-02	-3.710339e-02	-4.369682e-02	-5.068673e-02	-5.809308e-02	-6.596277e-02	-7.435987e-02	-8.335474e-02	-9.297990e-02	-1.032780e-01	-1.143010e-01	-1.261598e-01	-1.389211e-01	-1.526608e-01	-1.675031e-01	-1.835664e-01	-2.009631e-01	-2.198489e-01	-2.403585e-01	-2.626124e-01	-2.867289e-01	-3.127789e-01	-3.407080e-01	-3.701299e-01	-4.003140e-01	-4.297851e-01	-4.554381e-01	-4.721996e-01	-4.716549e-01	-4.408856e-01	-3.644600e-01	-2.306553e-01	-3.806624e-02	1.858117e-01	3.519113e-01	4.964222e-01	6.611532e-01	7.236641e-01	6.884012e-01	6.111873e-01	5.275064e-01	4.530430e-01	3.912948e-01	3.411206e-01	3.001204e-01	2.665551e-01	2.386384e-01	2.151959e-01	1.952756e-01	1.781416e-01	1.632801e-01	1.503060e-01	1.388673e-01	1.287100e-01	1.195623e-01	1.112257e-01	1.036311e-01	9.672910e-02	9.042711e-02	8.459489e-02	7.908654e-02	7.387652e-02	6.894027e-02	6.426830e-02	5.981026e-02	5.553430e-02	5.140887e-02	4.740271e-02	4.347795e-02	3.961029e-02	3.577992e-02	3.197303e-02	2.816822e-02	2.433632e-02	2.045704e-02	1.653394e-02	1.256909e-02	8.551552e-03	4.449405e-03	2.444455e-04	-4.069427e-03	-8.488995e-03	-1.300588e-02	-1.763652e-02	-2.239089e-02	-2.729034e-02	-3.235483e-02	-3.753443e-02	-4.280018e-02	-4.810075e-02	-5.345626e-02	-5.888226e-02	-6.435873e-02	-6.982802e-02	-7.524640e-02	-8.057356e-02	-8.579647e-02	-9.085664e-02	-9.572511e-02	-1.003319e-01	-1.046529e-01	-1.086175e-01	-1.121911e-01	-1.153181e-01	-1.179547e-01	-1.200602e-01	-1.216006e-01	-1.225770e-01	-1.230151e-01	-1.229875e-01	-1.226398e-01	-1.221469e-01	-1.216863e-01	-1.213297e-01	-1.209130e-01	-1.199042e-01	-1.174076e-01	-1.123063e-01	-1.037165e-01	-9.144854e-02	-7.642432e-02	-6.080608e-02	-4.767923e-02	-4.028739e-02	-4.083321e-02	-4.941201e-02	-6.378987e-02	-8.016144e-02	-9.479980e-02	-1.049851e-01	-1.097971e-01	-1.102825e-01	-1.061985e-01	-1.003424e-01	2.575606e-03	
SCALARS Conservative_4 float 1
LOOKUP_TABLE default
3.446401e+00	3.400790e+00	3.375502e+00	3.359982e+00	3.348831e+00	3.337958e+00	3.320862e+00	3.293674e+00	3.253302e+00	3.199973e+00	3.136708e+00	3.069894e+00	3.010548e+00	2.968893e+00	2.947825e+00	2.942637e+00	2.945384e+00	2.948942e+00	2.948917e+00	2.943786e+00	2.934114e+00	2.921300e+00	2.906814e+00	2.891850e+00	2.877109e+00	2.862877e+00	2.849132e+00	2.835763e+00	2.822598e+00	2.809562e+00	2.796621e+00	2.783655e+00	2.770577e+00	2.757429e+00	2.744344e+00	2.731447e+00	2.718791e+00	2.706382e+00	2.694253e+00	2.682451e+00	2.670970e+00	2.659847e+00	2.649027e+00	2.638564e+00	2.628488e+00	2.618946e+00	2.609902e+00	2.601205e+00	2.592454e+00	2.583638e+00	2.575269e+00	2.568286e+00	2.562981e+00	2.558604e+00	2.553391e+00	2.545382e+00	2.533245e+00	2.517352e+00	2.499973e+00	2.484426e+00	2.473079e+00	2.466462e+00	2.463882e+00	2.464187e+00	2.466568e+00	2.470477e+00	2.475797e+00	2.482287e+00	2.489732e+00	2.497818e+00	2.506605e+00	2.516508e+00	2.528186e+00	2.541801e+00	2.557161e+00	2.573850e+00	2.592062e+00	2.612258e+00	2.634540e+00	2.658997e+00	2.685936e+00	2.715472e+00	2.747989e+00	2.783754e+00	2.823216e+00	2.867034e+00	2.915722e+00	2.970160e+00	3.031499e+00	3.100389e+00	3.178093e+00	3.265659e+00	3.362447e+00	3.467275e+00	3.575828e+00	3.681278e+00	3.762484e+00	3.809725e+00	3.781237e+00	3.702860e+00	3.649620e+00	3.499808e+00	3.190704e+00	2.942787e+00	2.747803e+00	2.604065e+00	2.505846e+00	2.441113e+00	2.397378e+00	2.367663e+00	2.347664e+00	2.334308e+00	2.326239e+00	2.321517e+00	2.319161e+00	2.319196e+00	2.321252e+00	2.324698e+00	2.328705e+00	2.332389e+00	2.335807e+00	2.339828e+00	2.345120e+00	2.351254e+00	2.357189e+00	2.362325e+00	2.366918e+00	2.371347e+00	2.375894e+00	2.380739e+00	2.386034e+00	2.391729e+00	2.397635e+00	2.403478e+00	2.409150e+00	2.414579e+00	2.419741e+00	2.424536e+00	2.428990e+00	2.433411e+00	2.438368e+00	2.444260e+00	2.451216e+00	2.459135e+00	2.468033e+00	2.478079e+00	2.489351e+00	2.501768e+00	2.514850e+00	2.528058e+00	2.540851e+00	2.553398e+00	2.566481e+00	2.581020e+00	2.597155e+00	2.614273e+00	2.631803e+00	2.649731e+00	2.668504e+00	2.688233e+00	2.708783e+00	2.729917e+00	2.751508e+00	2.773523e+00	2.795882e+00	2.818549e+00	2.841391e+00	2.864372e+00	2.887275e+00	2.910137e+00	2.932736e+00	2.954858e+00	2.976365e+00	2.997041e+00	3.016775e+00	3.035517e+00	3.053381e+00	3.070829e+00	3.088494e+00	3.107365e+00	3.128163e+00	3.151142e+00	3.175348e+00	3.198668e+00	3.218027e+00	3.230130e+00	3.232245e+00	3.223404e+00	3.205424e+00	3.183663e+00	3.165775e+00	3.159222e+00	3.168682e+00	3.194032e+00	3.230163e+00	3.272673e+00	3.318105e+00	3.367492e+00	3.426997e+00	3.383858e+00	
SCALARS Pressure float 1
LOOKUP_TABLE default
1.290549e+00	1.264206e+00	1.248338e+00	1.238435e+00	1.231530e+00	1.224774e+00	1.214690e+00	1.198774e+00	1.175262e+00	1.144282e+00	1.107707e+00	1.069460e+00	1.035763e+00	1.012141e+00	1.000150e+00	9.972121e-01	9.988455e-01	1.000984e+00	1.001116e+00	9.983965e-01	9.931311e-01	9.861202e-01	9.782040e-01	9.700504e-01	9.620544e-01	9.543684e-01	9.469801e-01	9.398172e-01	9.327952e-01	9.258663e-01	9.190009e-01	9.121465e-01	9.052555e-01	8.983501e-01	8.915003e-01	8.847721e-01	8.781862e-01	8.717541e-01	8.654883e-01	8.594060e-01	8.535134e-01	8.478142e-01	8.422942e-01	8.369644e-01	8.318553e-01	8.270226e-01	8.224609e-01	8.180704e-01	8.136686e-01	8.092301e-01	8.050408e-01	8.015594e-01	7.989428e-01	7.967889e-01	7.942038e-01	7.901835e-01	7.840867e-01	7.761271e-01	7.675067e-01	7.598689e-01	7.543450e-01	7.511658e-01	7.499470e-01	7.501338e-01	7.513110e-01	7.532415e-01	7.558482e-01	7.590403e-01	7.626944e-01	7.666788e-01	7.710090e-01	7.759124e-01	7.817066e-01	7.884973e-01	7.961749e-01	8.045780e-01	8.137666e-01	8.239851e-01	8.353565e-01	8.479469e-01	8.618899e-01	8.773036e-01	8.944014e-01	9.133829e-01	9.345466e-01	9.583291e-01	9.851166e-01	1.015446e+00	1.050083e+00	1.089621e+00	1.134892e+00	1.186696e+00	1.245070e+00	1.309377e+00	1.377182e+00	1.443417e+00	1.495270e+00	1.523658e+00	1.507270e+00	1.462208e+00	1.420638e+00	1.321068e+00	1.149903e+00	1.012959e+00	9.079153e-01	8.317342e-01	7.800237e-01	7.460619e-01	7.233627e-01	7.080873e-01	6.978478e-01	6.911025e-01	6.869973e-01	6.845609e-01	6.833002e-01	6.831733e-01	6.840453e-01	6.856107e-01	6.874307e-01	6.890966e-01	6.906201e-01	6.924099e-01	6.948183e-01	6.976810e-01	7.004640e-01	7.028678e-01	7.049999e-01	7.070598e-01	7.091731e-01	7.114382e-01	7.139194e-01	7.166032e-01	7.193913e-01	7.221606e-01	7.248487e-01	7.274273e-01	7.298795e-01	7.321577e-01	7.342700e-01	7.363650e-01	7.387094e-01	7.415173e-01	7.448499e-01	7.486622e-01	7.529608e-01	7.578304e-01	7.633225e-01	7.693905e-01	7.758287e-01	7.823463e-01	7.886761e-01	7.948852e-01	8.013747e-01	8.086144e-01	8.167004e-01	8.253324e-01	8.342049e-01	8.433330e-01	8.529319e-01	8.630783e-01	8.737011e-01	8.846904e-01	8.959797e-01	9.075559e-01	9.193814e-01	9.314387e-01	9.436637e-01	9.560215e-01	9.684366e-01	9.808814e-01	9.932506e-01	1.005439e+00	1.017339e+00	1.028834e+00	1.039851e+00	1.050358e+00	1.060425e+00	1.070301e+00	1.080376e+00	1.091200e+00	1.103223e+00	1.116573e+00	1.130694e+00	1.144298e+00	1.155522e+00	1.162389e+00	1.163330e+00	1.157881e+00	1.147239e+00	1.134596e+00	1.124449e+00	1.121064e+00	1.127019e+00	1.141999e+00	1.163405e+00	1.188659e+00	1.216116e+00	1.246309e+00	1.281864e+00	1.279255e+00	
SCALARS Temperature float 1
LOOKUP_TABLE default
1.075611e+00	1.069907e+00	1.065881e+00	1.063272e+00	1.061512e+00	1.059767e+00	1.057340e+00	1.053498e+00	1.047735e+00	1.039913e+00	1.030354e+00	1.020026e+00	1.010603e+00	1.003748e+00	1.000161e+00	9.992806e-01	9.998058e-01	1.000501e+00	1.000606e+00	9.998752e-01	9.983850e-01	9.963668e-01	9.940677e-01	9.916829e-01	9.893331e-01	9.870643e-01	9.848754e-01	9.827413e-01	9.806417e-01	9.785597e-01	9.764812e-01	9.743959e-01	9.722883e-01	9.701641e-01	9.680455e-01	9.659536e-01	9.638921e-01	9.618706e-01	9.598918e-01	9.579588e-01	9.560804e-01	9.542509e-01	9.524750e-01	9.507484e-01	9.490915e-01	9.475138e-01	9.460226e-01	9.445744e-01	9.431197e-01	9.416393e-01	9.402446e-01	9.390857e-01	9.382257e-01	9.375177e-01	9.366528e-01	9.352723e-01	9.331571e-01	9.303739e-01	9.273609e-01	9.246935e-01	9.227700e-01	9.216788e-01	9.212708e-01	9.213594e-01	9.217848e-01	9.224792e-01	9.234012e-01	9.245310e-01	9.258116e-01	9.272071e-01	9.287123e-01	9.304155e-01	9.324153e-01	9.347525e-01	9.373698e-01	9.402277e-01	9.433146e-01	9.467057e-01	9.504622e-01	9.545955e-01	9.591114e-01	9.640496e-01	9.694501e-01	9.753644e-01	9.818635e-01	9.890574e-01	9.970321e-01	1.005871e+00	1.015721e+00	1.026691e+00	1.038858e+00	1.052275e+00	1.066857e+00	1.082233e+00	1.097745e+00	1.111996e+00	1.122791e+00	1.127884e+00	1.125220e+00	1.117667e+00	1.106198e+00	1.081879e+00	1.045900e+00	1.010981e+00	9.805103e-01	9.557323e-01	9.372100e-01	9.241627e-01	9.151198e-01	9.088982e-01	9.046486e-01	9.018571e-01	9.001220e-01	8.990655e-01	8.984909e-01	8.983513e-01	8.986217e-01	8.991787e-01	8.998240e-01	9.004074e-01	9.009247e-01	9.015287e-01	9.023729e-01	9.034169e-01	9.044345e-01	9.053059e-01	9.060643e-01	9.067960e-01	9.075428e-01	9.083482e-01	9.092297e-01	9.101876e-01	9.111802e-01	9.121674e-01	9.131203e-01	9.140335e-01	9.148974e-01	9.156969e-01	9.164324e-01	9.171579e-01	9.179634e-01	9.189364e-01	9.200948e-01	9.214218e-01	9.229157e-01	9.246028e-01	9.265035e-01	9.285915e-01	9.308076e-01	9.330341e-01	9.351811e-01	9.372636e-01	9.394239e-01	9.418205e-01	9.444895e-01	9.473268e-01	9.502167e-01	9.531737e-01	9.562559e-01	9.594911e-01	9.628489e-01	9.662950e-01	9.698037e-01	9.733696e-01	9.769800e-01	9.806273e-01	9.842936e-01	9.879594e-01	9.916221e-01	9.952513e-01	9.988254e-01	1.002323e+00	1.005702e+00	1.008938e+00	1.012012e+00	1.014920e+00	1.017690e+00	1.020391e+00	1.023142e+00	1.026084e+00	1.029343e+00	1.032931e+00	1.036684e+00	1.040237e+00	1.043095e+00	1.044762e+00	1.044881e+00	1.043378e+00	1.040587e+00	1.037318e+00	1.034759e+00	1.034039e+00	1.035802e+00	1.039807e+00	1.045426e+00	1.051895e+00	1.058892e+00	1.066464e+00	1.074745e+00	1.083081e+00	
SCALARS Pressure_Coefficient float 1
LOOKUP_TABLE default
6.485461e-01	5.897450e-01	5.543255e-01	5.322206e-01	5.168081e-01	5.017283e-01	4.792182e-01	4.436927e-01	3.912108e-01	3.220570e-01	2.404176e-01	1.550446e-01	7.982767e-02	2.710009e-02	3.339660e-04	-6.222956e-03	-2.577045e-03	2.195406e-03	2.491659e-03	-3.579220e-03	-1.533230e-02	-3.098171e-02	-4.865182e-02	-6.685169e-02	-8.469996e-02	-1.018563e-01	-1.183480e-01	-1.343366e-01	-1.500107e-01	-1.654770e-01	-1.808015e-01	-1.961017e-01	-2.114832e-01	-2.268971e-01	-2.421868e-01	-2.572050e-01	-2.719059e-01	-2.862632e-01	-3.002493e-01	-3.138258e-01	-3.269789e-01	-3.397005e-01	-3.520218e-01	-3.639188e-01	-3.753231e-01	-3.861103e-01	-3.962927e-01	-4.060928e-01	-4.159183e-01	-4.258257e-01	-4.351768e-01	-4.429477e-01	-4.487883e-01	-4.535962e-01	-4.593664e-01	-4.683404e-01	-4.819493e-01	-4.997163e-01	-5.189583e-01	-5.360069e-01	-5.483371e-01	-5.554334e-01	-5.581540e-01	-5.577370e-01	-5.551094e-01	-5.508003e-01	-5.449818e-01	-5.378564e-01	-5.297001e-01	-5.208064e-01	-5.111407e-01	-5.001954e-01	-4.872621e-01	-4.721042e-01	-4.549666e-01	-4.362099e-01	-4.156996e-01	-3.928904e-01	-3.675079e-01	-3.394043e-01	-3.082815e-01	-2.738759e-01	-2.357111e-01	-1.933417e-01	-1.461013e-01	-9.301548e-02	-3.322189e-02	3.447870e-02	1.117921e-01	2.000465e-01	3.010985e-01	4.167332e-01	5.470306e-01	6.905745e-01	8.419236e-01	9.897698e-01	1.105513e+00	1.168879e+00	1.132300e+00	1.031714e+00	9.389251e-01	7.166689e-01	3.346045e-01	2.892582e-02	-2.055461e-01	-3.755933e-01	-4.910185e-01	-5.668261e-01	-6.174940e-01	-6.515908e-01	-6.744468e-01	-6.895034e-01	-6.986668e-01	-7.041051e-01	-7.069192e-01	-7.072026e-01	-7.052561e-01	-7.017618e-01	-6.976994e-01	-6.939808e-01	-6.905802e-01	-6.865849e-01	-6.812092e-01	-6.748193e-01	-6.686071e-01	-6.632415e-01	-6.584823e-01	-6.538845e-01	-6.491673e-01	-6.441112e-01	-6.385728e-01	-6.325821e-01	-6.263587e-01	-6.201772e-01	-6.141771e-01	-6.084212e-01	-6.029475e-01	-5.978623e-01	-5.931473e-01	-5.884711e-01	-5.832379e-01	-5.769704e-01	-5.695316e-01	-5.610218e-01	-5.514267e-01	-5.405572e-01	-5.282980e-01	-5.147534e-01	-5.003823e-01	-4.858341e-01	-4.717050e-01	-4.578456e-01	-4.433601e-01	-4.272001e-01	-4.091508e-01	-3.898830e-01	-3.700783e-01	-3.497032e-01	-3.282769e-01	-3.056289e-01	-2.819171e-01	-2.573874e-01	-2.321881e-01	-2.063485e-01	-1.799523e-01	-1.530386e-01	-1.257506e-01	-9.816627e-02	-7.045398e-02	-4.267535e-02	-1.506567e-02	1.214115e-02	3.870390e-02	6.436118e-02	8.895387e-02	1.124073e-01	1.348778e-01	1.569224e-01	1.794108e-01	2.035719e-01	2.304090e-01	2.602072e-01	2.917281e-01	3.220942e-01	3.471469e-01	3.624751e-01	3.645751e-01	3.524120e-01	3.286583e-01	3.004364e-01	2.777881e-01	2.702320e-01	2.835242e-01	3.169618e-01	3.647434e-01	4.211144e-01	4.824009e-01	5.497965e-01	6.291607e-01	6.233378e-01	
SCALARS Mach float 1
LOOKUP_TABLE default
4.935188e-01	5.210711e-01	5.398372e-01	5.517337e-01	5.596486e-01	5.674078e-01	5.780728e-01	5.946598e-01	6.189265e-01	6.508139e-01	6.883854e-01	7.275290e-01	7.621401e-01	7.867476e-01	7.994501e-01	8.025530e-01	8.007035e-01	7.982519e-01	7.978800e-01	8.004592e-01	8.057009e-01	8.127710e-01	8.207856e-01	8.290556e-01	8.371625e-01	8.449524e-01	8.524342e-01	8.596975e-01	8.668146e-01	8.738445e-01	8.808362e-01	8.878251e-01	8.948635e-01	9.019318e-01	9.089579e-01	9.158722e-01	9.226642e-01	9.293045e-01	9.357854e-01	9.420989e-01	9.482181e-01	9.541632e-01	9.599207e-01	9.655057e-01	9.708540e-01	9.759367e-01	9.807320e-01	9.853809e-01	9.900433e-01	9.947802e-01	9.992356e-01	1.002933e+00	1.005674e+00	1.007928e+00	1.010680e+00	1.015068e+00	1.021779e+00	1.030588e+00	1.040100e+00	1.048500e+00	1.054545e+00	1.057971e+00	1.059251e+00	1.058973e+00	1.057638e+00	1.055458e+00	1.052562e+00	1.049011e+00	1.044981e+00	1.040585e+00	1.035837e+00	1.030457e+00	1.024129e+00	1.016718e+00	1.008399e+00	9.992896e-01	9.894191e-01	9.785364e-01	9.664303e-01	9.530445e-01	9.383365e-01	9.221462e-01	9.043025e-01	8.845822e-01	8.626764e-01	8.381112e-01	8.104443e-01	7.791749e-01	7.434608e-01	7.024277e-01	6.550336e-01	5.998695e-01	5.353367e-01	4.598659e-01	3.712567e-01	2.683055e-01	1.523978e-01	2.331034e-02	1.112618e-01	2.150624e-01	3.139603e-01	4.617158e-01	6.265093e-01	7.607704e-01	8.672591e-01	9.493505e-01	1.008907e+00	1.050169e+00	1.078500e+00	1.097884e+00	1.111080e+00	1.119731e+00	1.125101e+00	1.128368e+00	1.130144e+00	1.130576e+00	1.129740e+00	1.128018e+00	1.126023e+00	1.124218e+00	1.122617e+00	1.120747e+00	1.118133e+00	1.114899e+00	1.111744e+00	1.109041e+00	1.106688e+00	1.104416e+00	1.102097e+00	1.099594e+00	1.096853e+00	1.093873e+00	1.090783e+00	1.087708e+00	1.084738e+00	1.081890e+00	1.079194e+00	1.076697e+00	1.074399e+00	1.072131e+00	1.069612e+00	1.066566e+00	1.062938e+00	1.058777e+00	1.054088e+00	1.048785e+00	1.042802e+00	1.036218e+00	1.029217e+00	1.022168e+00	1.015357e+00	1.008737e+00	1.001854e+00	9.942009e-01	9.856534e-01	9.765385e-01	9.672230e-01	9.576570e-01	9.476472e-01	9.370955e-01	9.260934e-01	9.147452e-01	9.031289e-01	8.912554e-01	8.791608e-01	8.668635e-01	8.544175e-01	8.418835e-01	8.292657e-01	8.166647e-01	8.041540e-01	7.918091e-01	7.797766e-01	7.681584e-01	7.570243e-01	7.464028e-01	7.362001e-01	7.261695e-01	7.158629e-01	7.047368e-01	6.922799e-01	6.783967e-01	6.636668e-01	6.495160e-01	6.379790e-01	6.311801e-01	6.306945e-01	6.368256e-01	6.481111e-01	6.611565e-01	6.712473e-01	6.740676e-01	6.671485e-01	6.512391e-01	6.284594e-01	6.014832e-01	5.712709e-01	5.371517e-01	4.977781e-01	4.554091e-01	