# vtk DataFile Version 3.0
vtk output
ASCII
DATASET UNSTRUCTURED_GRID
POINTS 5233 float
9.997500e-01	-3.633002e-05	0.0	9.990000e-01	-1.453200e-04	0.0	9.977600e-01	-3.258377e-04	0.0	9.960200e-01	-5.809184e-04	0.0	9.937800e-01	-9.145818e-04	0.0	9.910500e-01	-1.332385e-03	0.0	9.878400e-01	-1.842074e-03	0.0	9.841300e-01	-2.456016e-03	0.0	9.799500e-01	-3.174228e-03	0.0	9.752800e-01	-3.996973e-03	0.0	9.701500e-01	-4.906157e-03	0.0	9.645400e-01	-5.884991e-03	0.0	9.584700e-01	-6.907636e-03	0.0	9.519400e-01	-7.956252e-03	0.0	9.449600e-01	-9.020397e-03	0.0	9.375400e-01	-1.009949e-02	0.0	9.296900e-01	-1.119993e-02	0.0	9.214000e-01	-1.233331e-02	0.0	9.127000e-01	-1.350419e-02	0.0	9.035800e-01	-1.471888e-02	0.0	8.940600e-01	-1.597567e-02	0.0	8.841500e-01	-1.727125e-02	0.0	8.738500e-01	-1.860209e-02	0.0	8.631800e-01	-1.996172e-02	0.0	8.521600e-01	-2.134424e-02	0.0	8.407700e-01	-2.274939e-02	0.0	8.290500e-01	-2.417011e-02	0.0	8.170100e-01	-2.560356e-02	0.0	8.046400e-01	-2.704947e-02	0.0	7.919700e-01	-2.850295e-02	0.0	7.790100e-01	-2.996145e-02	0.0	7.657800e-01	-3.142130e-02	0.0	7.522800e-01	-3.288097e-02	0.0	7.385200e-01	-3.433775e-02	0.0	7.245300e-01	-3.578681e-02	0.0	7.103200e-01	-3.722547e-02	0.0	6.958900e-01	-3.865200e-02	0.0	6.812700e-01	-4.006166e-02	0.0	6.664700e-01	-4.145173e-02	0.0	6.515000e-01	-4.281945e-02	0.0	6.363800e-01	-4.416114e-02	0.0	6.211300e-01	-4.547315e-02	0.0	6.057600e-01	-4.675273e-02	0.0	5.902800e-01	-4.799705e-02	0.0	5.747100e-01	-4.920246e-02	0.0	5.590600e-01	-5.036610e-02	0.0	5.433600e-01	-5.148363e-02	0.0	5.276100e-01	-5.255291e-02	0.0	5.118400e-01	-5.356971e-02	0.0	4.960500e-01	-5.453176e-02	0.0	4.802700e-01	-5.543497e-02	0.0	4.645100e-01	-5.627648e-02	0.0	4.487800e-01	-5.705341e-02	0.0	4.331100e-01	-5.776196e-02	0.0	4.175000e-01	-5.839980e-02	0.0	4.019700e-01	-5.896371e-02	0.0	3.865400e-01	-5.945066e-02	0.0	3.712300e-01	-5.985778e-02	0.0	3.560400e-01	-6.018284e-02	0.0	3.409900e-01	-6.042312e-02	0.0	3.261100e-01	-6.057610e-02	0.0	3.114000e-01	-6.063983e-02	0.0	2.968700e-01	-6.061225e-02	0.0	2.825500e-01	-6.049160e-02	0.0	2.684500e-01	-6.027639e-02	0.0	2.545700e-01	-5.996503e-02	0.0	2.409400e-01	-5.955673e-02	0.0	2.275700e-01	-5.905066e-02	0.0	2.144700e-01	-5.844615e-02	0.0	2.016600e-01	-5.774331e-02	0.0	1.891400e-01	-5.694141e-02	0.0	1.769300e-01	-5.604113e-02	0.0	1.650400e-01	-5.504286e-02	0.0	1.534900e-01	-5.394817e-02	0.0	1.422900e-01	-5.275825e-02	0.0	1.314400e-01	-5.147324e-02	0.0	1.209500e-01	-5.009443e-02	0.0	1.108500e-01	-4.862636e-02	0.0	1.011300e-01	-4.706827e-02	0.0	9.181000e-02	-4.542399e-02	0.0	8.290000e-02	-4.369625e-02	0.0	7.440000e-02	-4.188588e-02	0.0	6.633000e-02	-3.999809e-02	0.0	5.869000e-02	-3.803397e-02	0.0	5.149000e-02	-3.599698e-02	0.0	4.474000e-02	-3.389105e-02	0.0	3.844000e-02	-3.171703e-02	0.0	3.260000e-02	-2.947898e-02	0.0	2.723000e-02	-2.718171e-02	0.0	2.232000e-02	-2.482094e-02	0.0	1.790000e-02	-2.241177e-02	0.0	1.395000e-02	-1.994373e-02	0.0	1.049000e-02	-1.742873e-02	0.0	7.520000e-03	-1.486783e-02	0.0	5.040000e-03	-1.226115e-02	0.0	3.050000e-03	-9.606704e-03	0.0	1.560000e-03	-6.918667e-03	0.0	5.600000e-04	-4.173994e-03	0.0	6.000000e-05	-1.375585e-03	0.0	0.000000e+00	0.000000e+00	0.0	6.000000e-05	1.349433e-03	0.0	5.600000e-04	4.036337e-03	0.0	1.560000e-03	6.620779e-03	0.0	3.050000e-03	9.111763e-03	0.0	5.040000e-03	1.153676e-02	0.0	7.520000e-03	1.388692e-02	0.0	1.049000e-02	1.616747e-02	0.0	1.395000e-02	1.838119e-02	0.0	1.790000e-02	2.052968e-02	0.0	2.232000e-02	2.260510e-02	0.0	2.723000e-02	2.461877e-02	0.0	3.260000e-02	2.656005e-02	0.0	3.844000e-02	2.843481e-02	0.0	4.474000e-02	3.024114e-02	0.0	5.149000e-02	3.197779e-02	0.0	5.869000e-02	3.364612e-02	0.0	6.633000e-02	3.524494e-02	0.0	7.440000e-02	3.677343e-02	0.0	8.290000e-02	3.823266e-02	0.0	9.181000e-02	3.962033e-02	0.0	1.011300e-01	4.093763e-02	0.0	1.108500e-01	4.218416e-02	0.0	1.209500e-01	4.335859e-02	0.0	1.314400e-01	4.446317e-02	0.0	1.422900e-01	4.549582e-02	0.0	1.534900e-01	4.645698e-02	0.0	1.650400e-01	4.734787e-02	0.0	1.769300e-01	4.816878e-02	0.0	1.891400e-01	4.891949e-02	0.0	2.016600e-01	4.960064e-02	0.0	2.144700e-01	5.021240e-02	0.0	2.275700e-01	5.075599e-02	0.0	2.409400e-01	5.123167e-02	0.0	2.545700e-01	5.164020e-02	0.0	2.684500e-01	5.198226e-02	0.0	2.825500e-01	5.225813e-02	0.0	2.968700e-01	5.246877e-02	0.0	3.114000e-01	5.261475e-02	0.0	3.261100e-01	5.269647e-02	0.0	3.409900e-01	5.271453e-02	0.0	3.560400e-01	5.266934e-02	0.0	3.712300e-01	5.256127e-02	0.0	3.865400e-01	5.239076e-02	0.0	4.019700e-01	5.215789e-02	0.0	4.175000e-01	5.186290e-02	0.0	4.331100e-01	5.150601e-02	0.0	4.487800e-01	5.108749e-02	0.0	4.645100e-01	5.060701e-02	0.0	4.802700e-01	5.006508e-02	0.0	4.960500e-01	4.946166e-02	0.0	5.118400e-01	4.879665e-02	0.0	5.276100e-01	4.807093e-02	0.0	5.433600e-01	4.728415e-02	0.0	5.590600e-01	4.643756e-02	0.0	5.747100e-01	4.553100e-02	0.0	5.902800e-01	4.456625e-02	0.0	6.057600e-01	4.354422e-02	0.0	6.211300e-01	4.246676e-02	0.0	6.363800e-01	4.133539e-02	0.0	6.515000e-01	4.015193e-02	0.0	6.664700e-01	3.891935e-02	0.0	6.812700e-01	3.764114e-02	0.0	6.958900e-01	3.632040e-02	0.0	7.103200e-01	3.496057e-02	0.0	7.245300e-01	3.356749e-02	0.0	7.385200e-01	3.214451e-02	0.0	7.522800e-01	3.069628e-02	0.0	7.657800e-01	2.922994e-02	0.0	7.790100e-01	2.775091e-02	0.0	7.919700e-01	2.626366e-02	0.0	8.046400e-01	2.477512e-02	0.0	8.170100e-01	2.329119e-02	0.0	8.290500e-01	2.182024e-02	0.0	8.407700e-01	2.036562e-02	0.0	8.521600e-01	1.893272e-02	0.0	8.631800e-01	1.753017e-02	0.0	8.738500e-01	1.615817e-02	0.0	8.841500e-01	1.482111e-02	0.0	8.940600e-01	1.352272e-02	0.0	9.035800e-01	1.226394e-02	0.0	9.127000e-01	1.104789e-02	0.0	9.214000e-01	9.881019e-03	0.0	9.296900e-01	8.768671e-03	0.0	9.375400e-01	7.724209e-03	0.0	9.449600e-01	6.756617e-03	0.0	9.519400e-01	5.875409e-03	0.0	9.584700e-01	5.084335e-03	0.0	9.645400e-01	4.379104e-03	0.0	9.701500e-01	3.746911e-03	0.0	9.752800e-01	3.173517e-03	0.0	9.799500e-01	2.641773e-03	0.0	9.841300e-01	2.146233e-03	0.0	9.878400e-01	1.683394e-03	0.0	9.910500e-01	1.262353e-03	0.0	9.937800e-01	8.891852e-04	0.0	9.960200e-01	5.738785e-04	0.0	9.977600e-01	3.245327e-04	0.0	9.990000e-01	1.452010e-04	0.0	9.997500e-01	3.632813e-05	0.0	1.000000e+00	0.000000e+00	0.0	1.984229e+01	2.506660e+00	0.0	1.937166e+01	4.973800e+00	0.0	1.859553e+01	7.362490e+00	0.0	1.752613e+01	9.635070e+00	0.0	1.618034e+01	1.175571e+01	0.0	1.457937e+01	1.369094e+01	0.0	1.274848e+01	1.541027e+01	0.0	1.071654e+01	1.688656e+01	0.0	8.515590e+00	1.809654e+01	0.0	6.180340e+00	1.902113e+01	0.0	3.747630e+00	1.964575e+01	0.0	1.255810e+00	1.996053e+01	0.0	-1.255810e+00	1.996053e+01	0.0	-3.747630e+00	1.964574e+01	0.0	-6.180340e+00	1.902113e+01	0.0	-8.515590e+00	1.809654e+01	0.0	-1.071654e+01	1.688656e+01	0.0	-1.274848e+01	1.541026e+01	0.0	-1.457937e+01	1.369094e+01	0.0	-1.618034e+01	1.175570e+01	0.0	-1.752613e+01	9.635070e+00	0.0	-1.859553e+01	7.362490e+00	0.0	-1.937166e+01	4.973800e+00	0.0	-1.984229e+01	2.506660e+00	0.0	-2.000000e+01	0.000000e+00	0.0	-1.984229e+01	-2.506670e+00	0.0	-1.937166e+01	-4.973800e+00	0.0	-1.859553e+01	-7.362490e+00	0.0	-1.752613e+01	-9.635080e+00	0.0	-1.618034e+01	-1.175571e+01	0.0	-1.457937e+01	-1.369094e+01	0.0	-1.274848e+01	-1.541027e+01	0.0	-1.071653e+01	-1.688656e+01	0.0	-8.515580e+00	-1.809654e+01	0.0	-6.180340e+00	-1.902113e+01	0.0	-3.747620e+00	-1.964575e+01	0.0	-1.255810e+00	-1.996053e+01	0.0	1.255810e+00	-1.996053e+01	0.0	3.747630e+00	-1.964574e+01	0.0	6.180340e+00	-1.902113e+01	0.0	8.515590e+00	-1.809654e+01	0.0	1.071654e+01	-1.688656e+01	0.0	1.274848e+01	-1.541026e+01	0.0	1.457937e+01	-1.369094e+01	0.0	1.618034e+01	-1.175570e+01	0.0	1.752614e+01	-9.635070e+00	0.0	1.859553e+01	-7.362490e+00	0.0	1.937166e+01	-4.973790e+00	0.0	1.984229e+01	-2.506660e+00	0.0	2.000000e+01	0.000000e+00	0.0	6.070060e-02	-4.598218e-02	0.0	6.602525e-01	-5.584075e-02	0.0	4.257578e-01	6.597444e-02	0.0	6.897999e-01	5.028881e-02	0.0	3.792664e-01	-7.367575e-02	0.0	9.994626e-01	-7.224583e-04	0.0	9.985473e-01	-1.318204e-03	0.0	7.737538e-01	-4.280546e-02	0.0	6.898923e-01	-5.274455e-02	0.0	-1.350336e-03	6.207826e-03	0.0	7.467496e-01	-4.620298e-02	0.0	5.834585e-01	5.923573e-02	0.0	9.927843e-01	-3.625771e-03	0.0	9.898867e-01	-4.539365e-03	0.0	5.990215e-01	5.815429e-02	0.0	7.187648e-01	-4.952027e-02	0.0	-1.556510e-03	7.250625e-04	0.0	9.864995e-01	-5.549698e-03	0.0	9.826314e-01	-6.649343e-03	0.0	-1.408821e-03	-6.450367e-03	0.0	6.451845e-01	-5.733344e-02	0.0	8.243697e-01	-3.590963e-02	0.0	7.996550e-01	-3.937395e-02	0.0	3.486677e-01	6.650756e-02	0.0	8.477678e-01	-3.246064e-02	0.0	2.474519e-01	6.399363e-02	0.0	8.697878e-01	-2.904050e-02	0.0	1.011384e-02	2.043166e-02	0.0	8.903230e-01	-2.568660e-02	0.0	7.698080e-02	-5.055150e-02	0.0	9.093006e-01	-2.243330e-02	0.0	-1.890425e-03	-3.183357e-03	0.0	9.422611e-01	-1.626505e-02	0.0	9.266395e-01	-1.929627e-02	0.0	1.790084e-02	-2.762779e-02	0.0	4.258995e-01	-7.236895e-02	0.0	8.589592e-01	-3.074245e-02	0.0	9.561159e-01	-1.331906e-02	0.0	9.782759e-01	-7.856198e-03	0.0	9.681411e-01	-1.047691e-02	0.0	1.582506e-01	-6.506459e-02	0.0	9.000135e-01	-2.404597e-02	0.0	7.603844e-01	-4.451158e-02	0.0	9.971240e-01	-2.058783e-03	0.0	5.991703e-01	-6.154848e-02	0.0	4.416049e-01	-7.175553e-02	0.0	5.364754e-01	-6.642913e-02	0.0	4.731795e-01	-7.028142e-02	0.0	5.048393e-01	-6.849806e-02	0.0	4.889980e-01	-6.942631e-02	0.0	1.249203e-01	-6.036725e-02	0.0	2.780067e-02	-3.322498e-02	0.0	3.947181e-01	-7.333265e-02	0.0	4.617705e-02	-4.110308e-02	0.0	4.102638e-01	-7.289682e-02	0.0	3.188243e-01	-7.407649e-02	0.0	3.487408e-01	-7.407925e-02	0.0	3.346513e-02	-3.590872e-02	0.0	2.895988e-01	-7.366238e-02	0.0	9.346692e-01	-1.776768e-02	0.0	1.467856e-01	-6.359979e-02	0.0	1.946553e-01	-6.880351e-02	0.0	8.575607e-02	-5.270530e-02	0.0	1.045511e-01	-5.673866e-02	0.0	5.679638e-01	-6.411055e-02	0.0	1.700604e-01	-6.642336e-02	0.0	6.146352e-01	-6.018747e-02	0.0	8.802495e-01	-2.735415e-02	0.0	2.262328e-02	-3.046292e-02	0.0	9.952021e-01	-2.813261e-03	0.0	6.675945e-03	-1.884104e-02	0.0	1.812247e-02	2.562231e-02	0.0	9.181785e-01	-2.085005e-02	0.0	9.49416
[...]
POINT_DATA 5233

SCALARS Conservative_1 float 1
LOOKUP_TABLE default
1.191298e+00	1.169103e+00	1.155619e+00	1.145282e+00	1.136813e+00	1.129339e+00	1.121518e+00	1.112738e+00	1.102494e+00	1.090917e+00	1.078619e+00	1.066659e+00	1.056207e+00	1.047982e+00	1.042030e+00	1.037802e+00	1.034496e+00	1.031374e+00	1.027980e+00	1.024131e+00	1.019872e+00	1.015347e+00	1.010703e+00	1.006076e+00	1.001527e+00	9.970822e-01	9.927304e-01	9.884583e-01	9.842406e-01	9.800641e-01	9.759191e-01	9.717840e-01	9.676250e-01	9.634416e-01	9.592407e-01	9.550221e-01	9.507939e-01	9.465297e-01	9.422343e-01	9.378921e-01	9.334998e-01	9.290510e-01	9.245409e-01	9.199569e-01	9.152808e-01	9.105127e-01	9.057160e-01	9.009823e-01	8.962790e-01	8.913354e-01	8.858104e-01	8.799611e-01	8.751377e-01	8.730648e-01	8.738129e-01	8.735929e-01	8.649610e-01	8.425393e-01	8.127846e-01	7.913307e-01	7.836326e-01	7.842686e-01	7.874750e-01	7.907372e-01	7.938266e-01	7.971419e-01	8.009839e-01	8.053312e-01	8.100525e-01	8.150097e-01	8.202220e-01	8.258703e-01	8.321873e-01	8.392171e-01	8.468434e-01	8.548979e-01	8.634269e-01	8.726020e-01	8.824682e-01	8.930508e-01	9.044497e-01	9.167057e-01	9.299481e-01	9.442738e-01	9.598462e-01	9.769066e-01	9.956477e-01	1.016396e+00	1.039588e+00	1.065495e+00	1.094631e+00	1.127481e+00	1.164032e+00	1.204090e+00	1.246323e+00	1.288581e+00	1.323467e+00	1.348484e+00	1.347476e+00	1.330458e+00	1.318502e+00	1.278077e+00	1.196364e+00	1.123722e+00	1.055874e+00	9.963885e-01	9.472748e-01	9.078384e-01	8.760260e-01	8.501629e-01	8.288445e-01	8.109586e-01	7.959223e-01	7.830257e-01	7.719232e-01	7.625209e-01	7.544960e-01	7.474293e-01	7.410022e-01	7.349576e-01	7.292985e-01	7.242766e-01	7.200700e-01	7.164470e-01	7.130156e-01	7.095818e-01	7.063494e-01	7.033733e-01	7.005381e-01	6.977236e-01	6.950684e-01	6.927580e-01	6.909103e-01	6.894441e-01	6.882383e-01	6.871418e-01	6.860633e-01	6.849451e-01	6.837150e-01	6.823646e-01	6.809212e-01	6.794569e-01	6.779781e-01	6.763927e-01	6.746371e-01	6.727518e-01	6.708363e-01	6.691800e-01	6.684417e-01	6.688784e-01	6.670397e-01	6.587567e-01	6.450819e-01	6.887703e-01	8.416666e-01	9.675925e-01	9.736321e-01	9.576325e-01	9.509980e-01	9.510238e-01	9.514354e-01	9.519593e-01	9.536725e-01	9.564829e-01	9.599381e-01	9.638647e-01	9.681934e-01	9.728744e-01	9.778194e-01	9.829994e-01	9.883354e-01	9.937686e-01	9.992521e-01	1.004733e+00	1.010180e+00	1.015571e+00	1.020909e+00	1.026243e+00	1.031643e+00	1.037233e+00	1.043098e+00	1.049282e+00	1.055681e+00	1.062035e+00	1.067947e+00	1.072999e+00	1.076892e+00	1.079621e+00	1.081584e+00	1.083519e+00	1.086329e+00	1.090758e+00	1.097174e+00	1.105599e+00	1.115569e+00	1.127240e+00	1.140389e+00	1.156138e+00	1.174667e+00	1.167519e+00	9.996074e-01	9.998275e-01	9.998082e-01	9.997182e-01	9.996381e-01	9.995418e-01	9.994257e-01	9.992794e-01	9.991204e-01	9.990037e-01	9.989340e-01	9.989789e-01	9.991154e-01	9.993886e-01	9.996222e-01	9.998174e-01	9.999314e-01	1.000006e+00	1.000057e+00	1.000083e+00	1.000100e+00	1.000109e+00	1.000117e+00	1.000124e+00	1.000130e+00	1.000139e+00	1.000153e+00	1.000170e+00	1.000193e+00	1.000229e+00	1.000269e+00	1.000335e+00	1.000400e+00	1.000510e+00	1.000614e+00	1.000743e+00	1.000879e+00	1.000939e+00	1.000963e+00	1.000900e+00	1.000828e+00	1.000713e+00	1.000605e+00	1.000496e+00	1.000395e+00	1.000280e+00	1.000195e+00	1.000165e+00	9.998512e-01	9.994533e-01	9.518270e-01	9.418214e-01	6.772040e-01	9.562440e-01	8.598316e-01	1.171833e+00	1.160497e+00	9.752232e-01	9.503027e-01	1.261998e+00	9.669863e-01	9.512366e-01	1.130702e+00	1.122836e+00	9.884899e-01	9.586735e-01	1.327599e+00	1.114632e+00	1.105646e+00	1.333962e+00	9.375215e-01	9.918442e-01	9.834588e-01	6.853896e-01	1.000469e+00	6.950216e-01	1.009411e+00	9.776745e-01	1.018433e+00	9.235547e-01	1.026869e+00	1.346347e+00	1.042348e+00	1.034303e+00	1.102973e+00	8.769112e-01	1.004905e+00	1.054964e+00	1.095672e+00	1.074078e+00	8.441817e-01	1.022774e+00	9.711171e-01	1.148377e+00	9.242970e-01	8.765911e-01	9.057276e-01	8.855371e-01	8.965436e-01	8.913866e-01	8.690399e-01	1.048632e+00	8.762814e-01	9.851861e-01	8.790713e-01	7.881949e-01	8.023889e-01	1.025347e+00	7.947442e-01	1.038032e+00	8.519619e-01	8.250478e-01	9.109901e-01	8.884380e-01	9.151071e-01	8.370997e-01	9.287656e-01	1.013949e+00	1.074410e+00	1.139003e+00	1.205475e+00	9.029836e-01	1.030678e+00	1.047838e+00	1.084959e+00	1.202730e+00	9.961200e-01	8.052237e-01	9.103995e-01	9.628301e-01	9.793292e-01	8.783741e-01	8.144919e-01	9.197546e-01	9.460823e-01	9.677878e-01	1.243175e+00	1.134444e+00	8.298908e-01	8.307861e-01	1.203857e+00	8.096375e-01	8.993118e-01	7.911815e-01	8.013785e-01	8.799465e-01	9.544934e-01	1.309031e+00	1.312147e+00	6.543985e-01	1.336873e+00	8.507795e-01	7.863418e-01	8.135317e-01	7.320732e-01	6.790180e-01	1.133452e+00	6.671845e-01	6.720429e-01	1.082958e+00	1.077432e+00	1.030369e+00	6.715894e-01	6.753310e-01	6.822940e-01	1.053012e+00	1.041317e+00	7.583373e-01	1.086092e+00	1.073964e+00	1.064574e+00	7.439279e-01	7.756693e-01	6.908362e-01	6.934427e-01	7.117962e-01	6.882904e-01	6.734917e-01	6.807139e-01	7.192286e-01	7.274035e-01	9.557618e-01	7.052450e-01	6.993575e-01	9.550538e-01	7.433698e-01	9.691914e-01	9.615896e-01	9.882174e-01	9.782223e-01	1.009338e+00	9.987288e-01	1.035757e+00	1.019860e+00	1.069660e+00	1.047088e+00	1.080281e+00	1.014613e+00	1.025095e+00	9.934348e-01	1.004037e+00	9.735593e-01	9.831370e-01	9.585023e-01	9.651852e-01	9.544291e-01	9.552319e-01	6.526431e-01	9.683942e-01	7.021752e-01	6.969797e-01	7.153906e-01	7.084710e-01	7.988535e-01	7.232617e-01	9.369576e-01	8.306882e-01	8.196535e-01	1.080886e+00	1.063828e+00	9.876259e-01	7.896142e-01	9.011768e-01	1.141537e+00	8.745618e-01	1.025636e+00	7.508896e-01	7.664682e-01	6.920844e-01	7.375845e-01	1.090272e+00	1.095875e+00	6.895918e-01	1.103107e+00	1.111776e+00	6.869038e-01	6.838401e-01	1.058928e+00	1.186791e+00	1.147147e+00	1.160439e+00	9.331666e-01	1.004292e+00	1.121921e+00	6.721229e-01	1.280064e+00	1.168839e+00	9.371230e-01	8.602772e-01	7.980032e-01	7.799958e-01	1.241581e+00	1.287879e+00	8.030532e-01	9.542025e-01	1.029881e+00	1.197841e+00	8.814330e-01	9.500507e-01	9.787966e-01	1.115902e+00	7.947635e-01	1.004022e+00	9.954106e-01	9.179510e-01	1.314376e+00	8.251230e-01	1.134391e+00	1.061718e+00	8.579324e-01	9.583336e-01	9.416613e-01	8.817606e-01	9.306744e-01	8.724143e-01	1.021593e+00	9.828599e-01	1.039759e+00	9.247973e-01	9.585868e-01	1.008698e+00	7.474128e-01	9.590794e-01	7.222261e-01	1.024116e+00	1.100424e+00	6.905024e-01	6.729561e-01	1.070958e+00	1.029259e+00	1.107594e+00	1.074906e+00	1.089255e+00	7.023093e-01	6.921232e-01	7.048036e-01	7.542651e-01	9.458821e-01	8.307916e-01	9.963026e-01	7.310481e-01	8.160076e-01	1.081701e+00	1.116093e+00	1.034456e+00	8.501018e-01	1.199146e+00	1.136550e+00	1.125665e+00	1.087905e+00	1.191475e+00	1.230834e+00	1.336471e+00	1.328323e+00	1.105394e+00	1.206544e+00	9.590837e-01	1.149753e+00	1.131641e+00	6.821006e-01	9.106560e-01	1.107659e+00	1.012836e+00	9.860677e-01	1.123759e+00	1.332405e+00	8.799329e-01	6.838934e-01	9.996826e-01	6.966763e-01	1.008410e+00	1.017244e+00	9.443413e-01	1.025806e+00	1.033888e+00	1.047730e+00	1.054228e+00	1.054104e+00	1.070449e+00	1.098823e+00	8.754272e-01	9.706690e-01	9.747421e-01	1.140148e+00	8.862318e-01	8.917639e-01	8.970076e-01	1.078821e+00	8.808440e-01	8.808597e-01	8.014056e-01	1.011228e+00	1.037980e+00	1.042468e+00	8.664300e-01	9.061052e-01	9.152511e-01	9.287585e-01	1.079867e+00	1.089479e+00	9.624316e-01	9.665741e-01	8.951529e-01	8.849553e-01	9.198397e-01	9.243335e-01	9.924404e-01	9.751105e-01	1.165226e+00	8.212106e-01	8.500708e-01	8.431163e-01	8.367503e-01	8.197903e-01	8.148589e-01	7.994769e-01	7.960249e-01	8.104598e-01	1.317526e+00	1.263353e+00	8.318568e-01	1.094261e+00	6.615984e-01	6.752738e-01	6.761497e-01	6.770961e-01	1.085189e+00	1.078411e+00	1.050666e+00	6.786277e-01	6.803234e-01	6.856550e-01	1.045171e+00	1.066458e+00	7.903887e-01	8.022765e-01	7.001874e-01	6.983120e-01	7.264243e-01	7.362055e-01	7.415344e-01	9.883670e-01	9.705288e-01	9.668530e-01	9.835684e-01	1.003555e+00	1.039745e+00	1.018979e+00	1.013834e+00	9.984564e-01	9.933821e-01	9.789367e-01	9.745705e-01	9.635940e-01	9.608899e-01	9.590251e-01	9.589143e-01	6.887271e-01	6.499873e-01	9.617233e-01	9.773269e-01	7.076237e-01	7.109074e-01	7.144865e-01	7.183314e-01	9.581173e-01	8.503072e-01	8.717331e-01	9.869878e-01	9.911791e-01	9.016845e-01	9.061269e-01	1.139858e+00	8.963383e-01	7.620674e-01	7.706413e-01	6.936402e-01	6.951346e-01	6.873038e-01	6.888984e-01	1.061478e+00	1.056151e+00	9.331051e-01	9.374140e-01	1.031717e+00	1.292992e+00	8.065758e-01	1.312136e+00	8.808997e-01	8.085936e-01	9.826942e-01	9.115418e-01	1.033334e+00	1.104129e+00	1.097850e+00	1.076194e+00	1.138606e+00	1.111697e+00	1.148279e+00	1.164767e+00	1.140472e+00	1.187749e+00	1.107470e+00	1.299906e+00	9.254440e-01	1.037629e+00	1.117198e+00	7.961682e-01	1.161278e+00	1.219594e+00	9.584372e-01	1.273818e+00	9.624675e-01	1.133712e+00	1.011971e+00	1.190521e+00	8.042226e-01	1.007659e+00	9.543659e-01	1.125046e+00	1.161794e+00	1.087651e+00	6.696713e-01	1.068219e+00	9.619945e-01	1.119409e+00	6.765452e-01	7.035212e-01	6.962430e-01	7.344854e-01	8.054488e-01	1.157339e+00	1.292019e+00	1.222282e+00	9.761740e-01	1.266749e+00	1.067782e+00	9.382014e-01	1.323602e+00	8.643080e-01	8.876713e-01	1.082664e+00	1.051155e+00	1.008337e+00	9.887951e-01	9.619111e-01	1.092388e+00	1.072362e+00	1.033206e+00	1.028176e+00	6.979961e-01	7.015326e-01	7.108291e-01	7.655465e-01	9.461505e-01	9.502752e-01	8.368475e-01	1.012021e+00	7.393357e-01	1.083588e+00	1.127683e+00	1.093773e+00	1.182674e+00	1.247613e+00	1.319517e+00	1.059244e+00	1.177105e+00	1.167870e+00	1.076079e+00	1.109585e+00	9.655008e-01	8.846848e-01	6.875471e-01	9.991029e-01	1.003364e+00	1.016299e+00	1.020622e+00	9.665981e-01	9.519211e-01	1.024879e+00	1.029123e+00	1.053299e+00	1.060119e+00	1.101661e+00	9.746446e-01	9.786897e-01	1.132499e+00	8.925236e-01	8.978378e-01	8.848282e-01	8.842835e-01	1.037847e+00	1.042225e+00	1.047360e+00	8.823017e-01	8.729999e-01	9.160018e-01	9.204724e-01	1.084697e+00	1.093266e+00	9.665388e-01	9.706181e-01	9.135376e-01	9.022900e-01	8.919299e-01	9.249064e-01	9.292626e-01	1.018219e+00	9.997352e-01	9.824663e-01	8.160888e-01	8.401590e-01	8.659524e-01	8.566601e-01	8.496612e-01	8.430890e-01	8.310096e-01	8.255707e-01	8.050278e-01	8.023803e-01	8.206292e-01	8.500696e-01	6.800074e-01	6.815667e-01	1.079844e+00	6.828135e-01	6.842310e-01	6.858097e-01	6.893734e-01	1.048593e+00	8.185310e-01	8.333619e-01	7.056602e-01	7.081597e-01	7.449692e-01	7.516484e-01	7.584657e-01	9.720084e-01	1.043439e+00	1.038280e+00	1.023161e+00	1.018215e+00	1.013320e+00	1.003327e+00	9.984185e-01	9.935644e-01	9.842634e-01	9.799013e-01	9.758131e-01	9.686184e-01	9.655842e-01	9.632484e-01	9.626292e-01	6.656607e-01	6.558066e-01	9.624188e-01	9.678652e-01	9.845931e-01	7.138578e-01	7.171228e-01	7.209932e-01	7.252341e-01	7.298745e-01	8.691533e-01	8.912430e-01	9.867339e-01	9.908292e-01	9.949205e-01	9.026608e-01	9.071265e-01	9.163901e-01	9.443538e-01	7.738258e-01	7.834016e-01	7.938826e-01	6.997527e-01	6.912531e-01	6.929736e-01	6.945811e-01	1.063700e+00	1.058851e+00	1.053781e+00	9.335594e-01	9.377974e-01	9.419961e-01	8.161980e-01	8.122782e-01	1.291392e+00	9.331122e-01	1.120894e+00	1.090179e+00	9.167582e-01	1.278926e+00	1.148019e+00	1.037299e+00	1.042052e+00	1.062937e+00	1.106966e+00	6.808038e-01	1.271611e+00	1.024405e+00	1.206789e+00	1.073846e+00	1.113741e+00	1.205747e+00	9.629220e-01	1.171890e+00	1.167778e+00	1.179947e+00	9.865645e-01	8.720531e-01	1.108054e+00	8.869273e-01	9.459303e-01	8.904926e-01	8.156474e-01	1.095197e+00	7.319061e-01	1.069819e+00	1.065605e+00	9.892418e-01	7.493915e-01	7.124428e-01	1.111064e+00	8.346408e-01	1.011641e+00	1.135975e+00	1.100787e+00	1.132596e+00	1.080688e+00	1.131444e+00	9.586154e-01	1.231502e+00	9.629428e-01	9.666106e-01	1.156494e+00	1.118200e+00	1.181878e+00	1.007683e+00	6.730192e-01	7.053026e-01	1.244696e+00	1.059340e+00	9.634732e-01	1.032179e+00	7.033863e-01	7.075637e-01	7.097483e-01	9.505609e-01	9.549533e-01	1.085666e+00	1.095813e+00	1.134313e+00	1.254493e+00	1.301092e+00	1.084854e+00	1.073005e+00	1.103766e+00	9.189097e-01	1.003144e+00	1.007312e+00	1.015866e+00	1.020117e+00	9.739008e-01	9.594558e-01	1.024312e+00	1.028600e+00	1.032909e+00	1.058777e+00	1.065661e+00	9.784974e-01	9.827782e-01	1.125402e+00	8.942091e-01	8.991997e-01	8.888817e-01	8.889326e-01	1.047041e+00	1.052523e+00	8.899953e-01	8.801420e-01	9.216191e-01	1.088447e+00	1.096216e+00	9.707921e-01	9.752051e-01	9.211211e-01	9.100278e-01	8.999360e-01	9.255506e-01	9.302755e-01	1.043406e+00	1.024343e+00	1.006043e+00	9.892374e-01	8.183431e-01	8.346647e-01	8.580593e-01	8.773986e-01	8.645521e-01	8.573910e-01	8.505157e-01	8.440903e-01	8.381393e-01	8.122956e-01	8.126786e-01	8.326631e-01	6.857927e-01	1.081602e+00	1.077707e+00	6.881245e-01	6.893273e-01	6.907694e-01	6.922006e-01	6.940448e-01	8.507124e-01	8.686570e-01	7.151063e-01	7.183647e-01	7.553034e-01	7.622368e-01	7.702479e-01	7.784427e-01	1.046873e+00	1.041972e+00	1.037090e+00	1.027287e+00	1.022517e+00	1.017811e+00	1.012481e+00	1.003525e+00	9.982627e-01	9.935349e-01	9.845914e-01	9.807568e-01	9.765750e-01	9.733875e-01	9.698416e-01	9.673787e-01	9.647104e-01	6.666818e-01	6.660965e-01	9.640644e-01	9.667879e-01	9.799817e-01	9.870899e-01	7.214483e-01	7.250869e-01	7.286179e-01	7.330864e-01	7.378419e-01	7.433964e-01	8.878466e-01	9.095307e-01	9.907556e-01	9.950674e-01	9.990249e-01	9.042486e-01	9.079267e-01	9.127972e-01	9.346570e-01	9.620564e-01	9.914940e-01	7.869174e-01	7.967719e-01	8.084422e-01	8.209517e-01	6.958488e-01	6.978924e-01	6.997112e-01	7.013886e-01	1.051768e+00	1.061130e+00	1.056568e+00	9.340793e-01	9.386533e-01	9.423870e-01	9.468628e-01	8.276881e-01	8.232261e-01	8.192404e-01	1.151027e+00	1.116991e+00	1.077374e+00	1.161521e+00	1.173588e+00	9.688635e-01	9.411866e-01	1.195318e+00	1.087738e+00	1.236815e+00	1.086020e+00	8.813843e-01	7.673197e-01	1.065907e+00	1.162645e+00	1.252777e+00	1.303787e+00	1.304918e+00	1.293860e+00	1.252712e+00	1.128012e+00	7.116430e-01	1.084384e+00	1.112160e+00	1.046532e+00	9.883624e-01	8.927585e-01	1.108523e+00	1.050004e+00	1.063271e+00	6.876978e-01	6.744094e-01	9.629192e-01	9.868078e-01	6.872082e-01	9.200654e-01	7.083329e-01	1.102869e+00	9.538673e-01	1.151285e+00	1.092374e+00	1.301135e+00	1.173396e+00	1.163214e+00	1.041364e+00	1.066707e+00	1.269478e+00	1.034577e+00	1.216646e+00	1.071397e+00	1.191979e+00	1.162491e+00	1.167787e+00	1.129107e+00	8.210229e-01	8.243351e-01	1.097364e+00	8.387641e-01	1.067413e+00	1.105327e+00	9.611935e-01	1.224028e+00	7.131111e-01	7.169421e-01	7.186921e-01	9.532821e-01	1.097588e+00	1.130276e+00	1.279788e+00	1.107993e+00	1.007515e+00	1.011092e+00	1.015588e+00	1.019633e+00	9.671284e-01	9.816477e-01	1.024141e+00	1.028123e+00	1.032574e+00	1.037400e+00	1.063877e+00	1.070496e+00	9.810117e-01	1.118613e+00	8.960044e-01	9.004945e-01	8.933270e-01	8.946834e-01	1.052152e+00	1.057624e+00	8.975033e-01	8.871591e-01	1.091482e+00	1.098497e+00	9.755393e-01	9.289092e-01	9.171841e-01	9.095908e-01	9.287778e-01	1.048195e+00	1.029918e+00	1.012283e+00	9.967573e-01	8.253326e-01	8.326807e-01	8.507927e-01	8.705835e-01	8.846976e-01	8.720369e-01	8.662917e-01	8.574159e-01	8.524854e-01	8.448358e-01	1.083397e+00	1.079347e+00	1.075381e+00	6.920840e-01	6.948589e-01	6.958964e-01	6.979708e-01	6.985507e-01	8.683647e-01	8.869713e-01	7.232353e-01	7.253786e-01	7.719946e-01	7.824666e-01	7.922845e-01	1.045221e+00	1.040495e+00	1.035762e+00	1.030959e+00	1.026260e+00	1.021563e+00	1.016568e+00	1.009403e+00	1.002970e+00	9.953063e-01	9.790484e-01	9.723757e-01	9.659745e-01	9.760648e-01	9.796334e-01	7.305317e-01	7.328159e-01	7.385004e-01	7.410523e-01	7.478568e-01	7.533948e-01	7.600509e-01	9.068140e-01	9.276136e-01	9.951256e-01	9.989796e-01	1.003050e+00	9.057981e-01	9.117701e-01	9.512730e-01	9.780548e-01	1.005324e+00	8.018216e-01	8.120587e-01	8.241526e-01	8.386583e-01	8.530576e-01	7.011362e-01	7.022230e-01	7.050971e-01	7.071809e-01	1.059137e+00	1.054206e+00	9.371660e-01	9.452823e-01	8.408056e-01	8.342563e-01	8.312470e-01	8.259035e-01	1.154596e+00	1.142727e+00	1.184116e+00	1.268670e+00	1.172226e+00	1.087168e+00	1.098989e+00	1.205911e+00	1.072864e+00	1.130912e+00	1.100145e+00	1.260463e+00	1.086896e+00	1.164831e+00	7.156479e-01	1.161448e+00	1.098065e+00	1.179085e+00	1.145133e+00	1.080780e+00	9.193872e-01	1.094055e+00	8.327962e-01	1.051070e+00	1.043396e+00	9.440399e-01	9.489398e-01	8.849839e-01	1.234438e+00	8.980937e-01	9.758401e-01	9.625805e-01	7.898464e-01	1.084931e+00	1.049672e+00	1.231038e+00	1.070290e+00	1.074501e+00	1.155805e+00	1.089280e+00	1.301795e+00	1.248864e+00	1.106531e+00	9.744663e-01	6.832104e-01	6.964508e-01	1.104165e+00	1.161759e+00	1.120144e+00	1.282308e+00	1.167173e+00	1.069688e+00	1.219834e+00	1.202613e+00	7.676893e-01	1.106174e+00	1.069191e+00	1.064768e+00	6.839844e-01	7.213082e-01	7.281542e-01	9.673774e-01	1.125993e+00	1.153431e+00	1.126329e+00	1.013212e+00	1.021261e+00	9.889452e-01	1.029763e+00	1.037156e+00	1.068293e+00	1.112842e+00	9.007111e-01	1.056917e+00	1.062306e+00	9.003938e-01	1.093610e+00	9.805527e-01	9.867791e-01	9.318146e-01	9.170779e-01	9.275737e-01	1.052379e+00	1.034051e+00	1.017419e+00	1.005853e+00	8.421242e-01	8.696557e-01	8.916992e-01	8.697088e-01	8.561818e-01	1.080821e+00	1.076869e+00	7.019138e-01	7.050677e-01	9.044421e-01	7.360494e-01	8.062229e-01	1.000807e+00	1.040901e+00	1.031586e+00	1.022457e+00	1.014532e+00	1.007768e+00	9.927830e-01	9.848311e-01	9.779478e-01	9.708969e-01	9.636061e-01	9.679979e-01	9.848796e-01	9.409680e-01	7.448320e-01	7.544361e-01	7.648084e-01	7.692753e-01	7.793407e-01	9.252221e-01	9.454515e-01	9.939313e-01	1.000741e+00	1.007297e+00	9.063247e-01	9.123661e-01	9.669257e-01	9.916562e-01	1.017388e+00	1.043039e+00	8.181120e-01	8.287149e-01	8.408095e-01	8.557808e-01	8.735092e-01	8.845936e-01	7.083612e-01	7.125037e-01	1.061236e+00	1.056766e+00	9.359648e-01	9.519099e-01	9.597237e-01	8.448904e-01	8.362726e-01	1.108938e+00	1.155677e+00	1.150446e+00	1.126286e+00	1.031334e+00	1.100082e+00	1.158050e+00	1.126106e+00	1.189517e+00	1.139541e+00	1.137199e+00	1.118157e+00	1.121761e+00	1.211408e+00	1.241490e+00	1.078110e+00	9.797737e-01	7.215341e-01	1.115898e+00	1.035256e+00	1.104370e+00	9.122322e-01	1.098006e+00	1.173518e+00	8.989800e-01	1.055609e+00	9.507606e-01	9.268675e-01	1.083448e+00	1.089307e+00	1.087365e+00	1.072412e+00	1.156042e+00	1.090552e+00	1.094984e+00	1.070566e+00	7.343489e-01	8.890202e-01	9.660101e-01	9.954833e-01	1.138794e+00	1.144468e+00	1.282045e+00	1.077598e+00	1.074178e+00	1.167099e+00	1.095276e+00	1.189972e+00	1.156390e+00	9.193960e-01	1.229853e+00	9.854926e-01	9.698018e-01	1.086254e+00	1.247795e+00	1.071916e+00	1.101180e+00	9.732522e-01	1.261668e+00	1.166982e+00	1.011104e+00	1.217480e+00	1.204207e+00	6.866099e-01	1.122212e+00	1.066220e+00	7.316295e-01	7.269678e-01	9.769396e-01	1.145037e+00	1.167355e+00	1.018969e+00	1.027142e+00	1.042076e+00	1.048876e+00	1.107609e+00	9.039045e-01	1.060946e+00	1.066256e+00	8.841735e-01	9.994436e-01	1.006060e+00	9.859067e-01	9.546101e-01	9.384383e-01	9.223783e-01	1.054650e+00	8.459732e-01	8.611006e-01	9.062900e-01	8.901259e-01	9.584284e-01	1.082114e+00	6.943519e-01	7.053546e-01	8.191311e-01	1.045301e+00	1.036552e+00	1.005918e+00	1.027720e+00	1.019635e+00	1.012599e+00	9.986200e-01	9.907857e-01	9.835941e-01	9.769362e-01	9.690363e-01	9.647161e-01	9.747054e-01	7.430070e-01	7.527925e-01	7.635526e-01	7.751024e-01	7.862756e-01	8.029850e-01	9.414456e-01	9.622792e-01	9.924963e-01	1.012147e+00	9.073080e-01	9.127898e-01	9.817465e-01	1.003504e+00	1.027349e+00	1.050360e+00	1.073897e+00	8.352176e-01	8.480546e-01	8.591584e-01	8.727118e-01	8.902433e-01	7.102947e-01	7.136533e-01	7.174546e-01	1.060255e+00	1.053262e+00	9.349126e-01	9.429666e-01	8.749311e-01	8.617761e-01	8.513032e-01	8.446495e-01	1.139850e+00	1.141878e+00	1.137829e+00	1.112842e+00	1.175510e+00	1.130176e+00	1.137049e+00	1.059265e+00	1.164833e+00	1.113180e+00	1.111110e+00	1.074472e+00	1.151606e+00	1.075022e+00	7.504689e-01	1.128423e+00	1.132155e+00	1.133195e+00	1.153273e+00	1.097589e+00	9.284212e-01	1.032709e+00	1.040221e+00	9.853634e-01	1.123012e+00	1.121696e+00	1.118328e+00	1.162261e+00	1.177045e+00	8.364694e-01	9.