# vtk DataFile Version 3.0
vtk output
ASCII
DATASET UNSTRUCTURED_GRID
POINTS 200 float
9.997500e-01	-3.633002e-05	0.0	9.990000e-01	-1.453200e-04	0.0	9.977600e-01	-3.258377e-04	0.0	9.960200e-01	-5.809184e-04	0.0	9.937800e-01	-9.145818e-04	0.0	9.910500e-01	-1.332385e-03	0.0	9.878400e-01	-1.842074e-03	0.0	9.841300e-01	-2.456016e-03	0.0	9.799500e-01	-3.174228e-03	0.0	9.752800e-01	-3.996973e-03	0.0	9.701500e-01	-4.906157e-03	0.0	9.645400e-01	-5.884991e-03	0.0	9.584700e-01	-6.907636e-03	0.0	9.519400e-01	-7.956252e-03	0.0	9.449600e-01	-9.020397e-03	0.0	9.375400e-01	-1.009949e-02	0.0	9.296900e-01	-1.119993e-02	0.0	9.214000e-01	-1.233331e-02	0.0	9.127000e-01	-1.350419e-02	0.0	9.035800e-01	-1.471888e-02	0.0	8.940600e-01	-1.597567e-02	0.0	8.841500e-01	-1.727125e-02	0.0	8.738500e-01	-1.860209e-02	0.0	8.631800e-01	-1.996172e-02	0.0	8.521600e-01	-2.134424e-02	0.0	8.407700e-01	-2.274939e-02	0.0	8.290500e-01	-2.417011e-02	0.0	8.170100e-01	-2.560356e-02	0.0	8.046400e-01	-2.704947e-02	0.0	7.919700e-01	-2.850295e-02	0.0	7.790100e-01	-2.996145e-02	0.0	7.657800e-01	-3.142130e-02	0.0	7.522800e-01	-3.288097e-02	0.0	7.385200e-01	-3.433775e-02	0.0	7.245300e-01	-3.578681e-02	0.0	7.103200e-01	-3.722547e-02	0.0	6.958900e-01	-3.865200e-02	0.0	6.812700e-01	-4.006166e-02	0.0	6.664700e-01	-4.145173e-02	0.0	6.515000e-01	-4.281945e-02	0.0	6.363800e-01	-4.416114e-02	0.0	6.211300e-01	-4.547315e-02	0.0	6.057600e-01	-4.675273e-02	0.0	5.902800e-01	-4.799705e-02	0.0	5.747100e-01	-4.920246e-02	0.0	5.590600e-01	-5.036610e-02	0.0	5.433600e-01	-5.148363e-02	0.0	5.276100e-01	-5.255291e-02	0.0	5.118400e-01	-5.356971e-02	0.0	4.960500e-01	-5.453176e-02	0.0	4.802700e-01	-5.543497e-02	0.0	4.645100e-01	-5.627648e-02	0.0	4.487800e-01	-5.705341e-02	0.0	4.331100e-01	-5.776196e-02	0.0	4.175000e-01	-5.839980e-02	0.0	4.019700e-01	-5.896371e-02	0.0	3.865400e-01	-5.945066e-02	0.0	3.712300e-01	-5.985778e-02	0.0	3.560400e-01	-6.018284e-02	0.0	3.409900e-01	-6.042312e-02	0.0	3.261100e-01	-6.057610e-02	0.0	3.114000e-01	-6.063983e-02	0.0	2.968700e-01	-6.061225e-02	0.0	2.825500e-01	-6.049160e-02	0.0	2.684500e-01	-6.027639e-02	0.0	2.545700e-01	-5.996503e-02	0.0	2.409400e-01	-5.955673e-02	0.0	2.275700e-01	-5.905066e-02	0.0	2.144700e-01	-5.844615e-02	0.0	2.016600e-01	-5.774331e-02	0.0	1.891400e-01	-5.694141e-02	0.0	1.769300e-01	-5.604113e-02	0.0	1.650400e-01	-5.504286e-02	0.0	1.534900e-01	-5.394817e-02	0.0	1.422900e-01	-5.275825e-02	0.0	1.314400e-01	-5.147324e-02	0.0	1.209500e-01	-5.009443e-02	0.0	1.108500e-01	-4.862636e-02	0.0	1.011300e-01	-4.706827e-02	0.0	9.181000e-02	-4.542399e-02	0.0	8.290000e-02	-4.369625e-02	0.0	7.440000e-02	-4.188588e-02	0.0	6.633000e-02	-3.999809e-02	0.0	5.869000e-02	-3.803397e-02	0.0	5.149000e-02	-3.599698e-02	0.0	4.474000e-02	-3.389105e-02	0.0	3.844000e-02	-3.171703e-02	0.0	3.260000e-02	-2.947898e-02	0.0	2.723000e-02	-2.718171e-02	0.0	2.232000e-02	-2.482094e-02	0.0	1.790000e-02	-2.241177e-02	0.0	1.395000e-02	-1.994373e-02	0.0	1.049000e-02	-1.742873e-02	0.0	7.520000e-03	-1.486783e-02	0.0	5.040000e-03	-1.226115e-02	0.0	3.050000e-03	-9.606704e-03	0.0	1.560000e-03	-6.918667e-03	0.0	5.600000e-04	-4.173994e-03	0.0	6.000000e-05	-1.375585e-03	0.0	0.000000e+00	0.000000e+00	0.0	6.000000e-05	1.349433e-03	0.0	5.600000e-04	4.036337e-03	0.0	1.560000e-03	6.620779e-03	0.0	3.050000e-03	9.111763e-03	0.0	5.040000e-03	1.153676e-02	0.0	7.520000e-03	1.388692e-02	0.0	1.049000e-02	1.616747e-02	0.0	1.395000e-02	1.838119e-02	0.0	1.790000e-02	2.052968e-02	0.0	2.232000e-02	2.260510e-02	0.0	2.723000e-02	2.461877e-02	0.0	3.260000e-02	2.656005e-02	0.0	3.844000e-02	2.843481e-02	0.0	4.474000e-02	3.024114e-02	0.0	5.149000e-02	3.197779e-02	0.0	5.869000e-02	3.364612e-02	0.0	6.633000e-02	3.524494e-02	0.0	7.440000e-02	3.677343e-02	0.0	8.290000e-02	3.823266e-02	0.0	9.181000e-02	3.962033e-02	0.0	1.011300e-01	4.093763e-02	0.0	1.108500e-01	4.218416e-02	0.0	1.209500e-01	4.335859e-02	0.0	1.314400e-01	4.446317e-02	0.0	1.422900e-01	4.549582e-02	0.0	1.534900e-01	4.645698e-02	0.0	1.650400e-01	4.734787e-02	0.0	1.769300e-01	4.816878e-02	0.0	1.891400e-01	4.891949e-02	0.0	2.016600e-01	4.960064e-02	0.0	2.144700e-01	5.021240e-02	0.0	2.275700e-01	5.075599e-02	0.0	2.409400e-01	5.123167e-02	0.0	2.545700e-01	5.164020e-02	0.0	2.684500e-01	5.198226e-02	0.0	2.825500e-01	5.225813e-02	0.0	2.968700e-01	5.246877e-02	0.0	3.114000e-01	5.261475e-02	0.0	3.261100e-01	5.269647e-02	0.0	3.409900e-01	5.271453e-02	0.0	3.560400e-01	5.266934e-02	0.0	3.712300e-01	5.256127e-02	0.0	3.865400e-01	5.239076e-02	0.0	4.019700e-01	5.215789e-02	0.0	4.175000e-01	5.186290e-02	0.0	4.331100e-01	5.150601e-02	0.0	4.487800e-01	5.108749e-02	0.0	4.645100e-01	5.060701e-02	0.0	4.802700e-01	5.006508e-02	0.0	4.960500e-01	4.946166e-02	0.0	5.118400e-01	4.879665e-02	0.0	5.276100e-01	4.807093e-02	0.0	5.433600e-01	4.728415e-02	0.0	5.590600e-01	4.643756e-02	0.0	5.747100e-01	4.553100e-02	0.0	5.902800e-01	4.456625e-02	0.0	6.057600e-01	4.354422e-02	0.0	6.211300e-01	4.246676e-02	0.0	6.363800e-01	4.133539e-02	0.0	6.515000e-01	4.015193e-02	0.0	6.664700e-01	3.891935e-02	0.0	6.812700e-01	3.764114e-02	0.0	6.958900e-01	3.632040e-02	0.0	7.103200e-01	3.496057e-02	0.0	7.245300e-01	3.356749e-02	0.0	7.385200e-01	3.214451e-02	0.0	7.522800e-01	3.069628e-02	0.0	7.657800e-01	2.922994e-02	0.0	7.790100e-01	2.775091e-02	0.0	7.919700e-01	2.626366e-02	0.0	8.046400e-01	2.477512e-02	0.0	8.170100e-01	2.329119e-02	0.0	8.290500e-01	2.182024e-02	0.0	8.407700e-01	2.036562e-02	0.0	8.521600e-01	1.893272e-02	0.0	8.631800e-01	1.753017e-02	0.0	8.738500e-01	1.615817e-02	0.0	8.841500e-01	1.482111e-02	0.0	8.940600e-01	1.352272e-02	0.0	9.035800e-01	1.226394e-02	0.0	9.127000e-01	1.104789e-02	0.0	9.214000e-01	9.881019e-03	0.0	9.296900e-01	8.768671e-03	0.0	9.375400e-01	7.724209e-03	0.0	9.449600e-01	6.756617e-03	0.0	9.519400e-01	5.875409e-03	0.0	9.584700e-01	5.084335e-03	0.0	9.645400e-01	4.379104e-03	0.0	9.701500e-01	3.746911e-03	0.0	9.752800e-01	3.173517e-03	0.0	9.799500e-01	2.641773e-03	0.0	9.841300e-01	2.146233e-03	0.0	9.878400e-01	1.683394e-03	0.0	9.910500e-01	1.262353e-03	0.0	9.937800e-01	8.891852e-04	0.0	9.960200e-01	5.738785e-04	0.0	9.977600e-01	3.245327e-04	0.0	9.990000e-01	1.452010e-04	0.0	9.997500e-01	3.632813e-05	0.0	1.000000e+00	0.000000e+00	0.0	
CELLS 200	600
2	199	0	2	0	1	2	1	2	2	2	3	2	3	4	2	4	5	2	5	6	2	6	7	2	7	8	2	8	9	2	9	10	2	10	11	2	11	12	2	12	13	2	13	14	2	14	15	2	15	16	2	16	17	2	17	18	2	18	19	2	19	20	2	20	21	2	21	22	2	22	23	2	23	24	2	24	25	2	25	26	2	26	27	2	27	28	2	28	29	2	29	30	2	30	31	2	31	32	2	32	33	2	33	34	2	34	35	2	35	36	2	36	37	2	37	38	2	38	39	2	39	40	2	40	41	2	41	42	2	42	43	2	43	44	2	44	45	2	45	46	2	46	47	2	47	48	2	48	49	2	49	50	2	50	51	2	51	52	2	52	53	2	53	54	2	54	55	2	55	56	2	56	57	2	57	58	2	58	59	2	59	60	2	60	61	2	61	62	2	62	63	2	63	64	2	64	65	2	65	66	2	66	67	2	67	68	2	68	69	2	69	70	2	70	71	2	71	72	2	72	73	2	73	74	2	74	75	2	75	76	2	76	77	2	77	78	2	78	79	2	79	80	2	80	81	2	81	82	2	82	83	2	83	84	2	84	85	2	85	86	2	86	87	2	87	88	2	88	89	2	89	90	2	90	91	2	91	92	2	92	93	2	93	94	2	94	95	2	95	96	2	96	97	2	97	98	2	98	99	2	99	100	2	100	101	2	101	102	2	102	103	2	103	104	2	104	105	2	105	106	2	106	107	2	107	108	2	108	109	2	109	110	2	110	111	2	111	112	2	112	113	2	113	114	2	114	115	2	115	116	2	116	117	2	117	118	2	118	119	2	119	120	2	120	121	2	121	122	2	122	123	2	123	124	2	124	125	2	125	126	2	126	127	2	127	128	2	128	129	2	129	130	2	130	131	2	131	132	2	132	133	2	133	134	2	134	135	2	135	136	2	136	137	2	137	138	2	138	139	2	139	140	2	140	141	2	141	142	2	142	143	2	143	144	2	144	145	2	145	146	2	146	147	2	147	148	2	148	149	2	149	150	2	150	151	2	151	152	2	152	153	2	153	154	2	154	155	2	155	156	2	156	157	2	157	158	2	158	159	2	159	160	2	160	161	2	161	162	2	162	163	2	163	164	2	164	165	2	165	166	2	166	167	2	167	168	2	168	169	2	169	170	2	170	171	2	171	172	2	172	173	2	173	174	2	174	175	2	175	176	2	176	177	2	177	178	2	178	179	2	179	180	2	180	181	2	181	182	2	182	183	2	183	184	2	184	185	2	185	186	2	186	187	2	187	188	2	188	189	2	189	190	2	190	191	2	191	192	2	192	193	2	193	194	2	194	195	2	195	196	2	196	197	2	197	198	2	198	199	
CELL_TYPES 200
3	3	3	3	3	3	3	3	3	3	3	3	3	3	3	3	3	3	3	3	3	3	3	3	3	3	3	3	3	3	3	3	3	3	3	3	3	3	3	3	3	3	3	3	3	3	3	3	3	3	3	3	3	3	3	3	3	3	3	3	3	3	3	3	3	3	3	3	3	3	3	3	3	3	3	3	3	3	3	3	3	3	3	3	3	3	3	3	3	3	3	3	3	3	3	3	3	3	3	3	3	3	3	3	3	3	3	3	3	3	3	3	3	3	3	3	3	3	3	3	3	3	3	3	3	3	3	3	3	3	3	3	3	3	3	3	3	3	3	3	3	3	3	3	3	3	3	3	3	3	3	3	3	3	3	3	3	3	3	3	3	3	3	3	3	3	3	3	3	3	3	3	3	3	3	3	3	3	3	3	3	3	3	3	3	3	3	3	3	3	3	3	3	3	3	3	3	3	3	3	
POINT_DATA 200

SCALARS Conservative_1 float 1
LOOKUP_TABLE default
1.191298e+00	1.169103e+00	1.155619e+00	1.145282e+00	1.136813e+00	1.129339e+00	1.121518e+00	1.112738e+00	1.102494e+00	1.090917e+00	1.078619e+00	1.066659e+00	1.056207e+00	1.047982e+00	1.042030e+00	1.037802e+00	1.034496e+00	1.031374e+00	1.027980e+00	1.024131e+00	1.019872e+00	1.015347e+00	1.010703e+00	1.006076e+00	1.001527e+00	9.970822e-01	9.927304e-01	9.884583e-01	9.842406e-01	9.800641e-01	9.759191e-01	9.717840e-01	9.676250e-01	9.634416e-01	9.592407e-01	9.550221e-01	9.507939e-01	9.465297e-01	9.422343e-01	9.378921e-01	9.334998e-01	9.290510e-01	9.245409e-01	9.199569e-01	9.152808e-01	9.105127e-01	9.057160e-01	9.009823e-01	8.962790e-01	8.913354e-01	8.858104e-01	8.799611e-01	8.751377e-01	8.730648e-01	8.738129e-01	8.735929e-01	8.649610e-01	8.425393e-01	8.127846e-01	7.913307e-01	7.836326e-01	7.842686e-01	7.874750e-01	7.907372e-01	7.938266e-01	7.971419e-01	8.009839e-01	8.053312e-01	8.100525e-01	8.150097e-01	8.202220e-01	8.258703e-01	8.321873e-01	8.392171e-01	8.468434e-01	8.548979e-01	8.634269e-01	8.726020e-01	8.824682e-01	8.930508e-01	9.044497e-01	9.167057e-01	9.299481e-01	9.442738e-01	9.598462e-01	9.769066e-01	9.956477e-01	1.016396e+00	1.039588e+00	1.065495e+00	1.094631e+00	1.127481e+00	1.164032e+00	1.204090e+00	1.246323e+00	1.288581e+00	1.323467e+00	1.348484e+00	1.347476e+00	1.330458e+00	1.318502e+00	1.278077e+00	1.196364e+00	1.123722e+00	1.055874e+00	9.963885e-01	9.472748e-01	9.078384e-01	8.760260e-01	8.501629e-01	8.288445e-01	8.109586e-01	7.959223e-01	7.830257e-01	7.719232e-01	7.625209e-01	7.544960e-01	7.474293e-01	7.410022e-01	7.349576e-01	7.292985e-01	7.242766e-01	7.200700e-01	7.164470e-01	7.130156e-01	7.095818e-01	7.063494e-01	7.033733e-01	7.005381e-01	6.977236e-01	6.950684e-01	6.927580e-01	6.909103e-01	6.894441e-01	6.882383e-01	6.871418e-01	6.860633e-01	6.849451e-01	6.837150e-01	6.823646e-01	6.809212e-01	6.794569e-01	6.779781e-01	6.763927e-01	6.746371e-01	6.727518e-01	6.708363e-01	6.691800e-01	6.684417e-01	6.688784e-01	6.670397e-01	6.587567e-01	6.450819e-01	6.887703e-01	8.416666e-01	9.675925e-01	9.736321e-01	9.576325e-01	9.509980e-01	9.510238e-01	9.514354e-01	9.519593e-01	9.536725e-01	9.564829e-01	9.599381e-01	9.638647e-01	9.681934e-01	9.728744e-01	9.778194e-01	9.829994e-01	9.883354e-01	9.937686e-01	9.992521e-01	1.004733e+00	1.010180e+00	1.015571e+00	1.020909e+00	1.026243e+00	1.031643e+00	1.037233e+00	1.043098e+00	1.049282e+00	1.055681e+00	1.062035e+00	1.067947e+00	1.072999e+00	1.076892e+00	1.079621e+00	1.081584e+00	1.083519e+00	1.086329e+00	1.090758e+00	1.097174e+00	1.105599e+00	1.115569e+00	1.127240e+00	1.140389e+00	1.156138e+00	1.174667e+00	1.167519e+00	
SCALARS Conservative_2 float 1
LOOKUP_TABLE default
7.375705e-01	7.632363e-01	7.847266e-01	8.003956e-01	8.117071e-01	8.211654e-01	8.297092e-01	8.388208e-01	8.489985e-01	8.603223e-01	8.721792e-01	8.835677e-01	8.934996e-01	9.013290e-01	9.069909e-01	9.108886e-01	9.137001e-01	9.160727e-01	9.184558e-01	9.210420e-01	9.238610e-01	9.268103e-01	9.297660e-01	9.326619e-01	9.354257e-01	9.380513e-01	9.405334e-01	9.428993e-01	9.451504e-01	9.473016e-01	9.493793e-01	9.513829e-01	9.533128e-01	9.551878e-01	9.570064e-01	9.587524e-01	9.604569e-01	9.620819e-01	9.636566e-01	9.651779e-01	9.666375e-01	9.680479e-01	9.693935e-01	9.706920e-01	9.719279e-01	9.731093e-01	9.742019e-01	9.752047e-01	9.761249e-01	9.770495e-01	9.779727e-01	9.787709e-01	9.792231e-01	9.792362e-01	9.789596e-01	9.790102e-01	9.799622e-01	9.811914e-01	9.801246e-01	9.768140e-01	9.748401e-01	9.744551e-01	9.748226e-01	9.753449e-01	9.758609e-01	9.762775e-01	9.766814e-01	9.770158e-01	9.772769e-01	9.773954e-01	9.773672e-01	9.771518e-01	9.767305e-01	9.760269e-01	9.750029e-01	9.735209e-01	9.715923e-01	9.691280e-01	9.658949e-01	9.617376e-01	9.565772e-01	9.501341e-01	9.421589e-01	9.322675e-01	9.199869e-01	9.046405e-01	8.853817e-01	8.612495e-01	8.308326e-01	7.921858e-01	7.430813e-01	6.807714e-01	6.018648e-01	5.042313e-01	3.872842e-01	2.572420e-01	1.311496e-01	3.161528e-02	-8.560287e-03	5.746962e-03	4.869459e-02	1.483094e-01	3.087913e-01	4.683902e-01	6.032772e-01	7.063090e-01	7.805821e-01	8.332072e-01	8.697482e-01	8.951778e-01	9.128689e-01	9.250659e-01	9.336113e-01	9.395473e-01	9.435856e-01	9.463784e-01	9.482378e-01	9.493600e-01	9.499654e-01	9.501238e-01	9.499455e-01	9.496466e-01	9.493228e-01	9.488261e-01	9.482416e-01	9.474969e-01	9.467447e-01	9.459088e-01	9.450502e-01	9.440771e-01	9.431574e-01	9.423174e-01	9.416732e-01	9.411269e-01	9.406674e-01	9.402000e-01	9.397084e-01	9.391821e-01	9.385550e-01	9.378741e-01	9.371380e-01	9.363739e-01	9.355593e-01	9.346679e-01	9.336670e-01	9.325911e-01	9.315098e-01	9.306019e-01	9.301847e-01	9.298751e-01	9.277439e-01	9.269628e-01	9.073901e-01	9.283625e-01	9.219618e-01	9.100523e-01	9.149073e-01	9.220451e-01	9.249003e-01	9.252946e-01	9.251527e-01	9.246412e-01	9.236047e-01	9.220965e-01	9.202051e-01	9.180131e-01	9.155404e-01	9.128163e-01	9.098085e-01	9.066027e-01	9.031857e-01	8.995731e-01	8.958236e-01	8.919568e-01	8.879916e-01	8.839327e-01	8.797663e-01	8.754560e-01	8.709071e-01	8.660349e-01	8.607170e-01	8.549526e-01	8.488662e-01	8.427792e-01	8.371542e-01	8.324497e-01	8.289431e-01	8.265005e-01	8.245631e-01	8.221863e-01	8.183488e-01	8.122435e-01	8.033487e-01	7.918411e-01	7.772277e-01	7.598296e-01	7.380937e-01	7.102506e-01	6.728041e-01	6.484166e-01	
SCALARS Conservative_3 float 1
LOOKUP_TABLE default
1.005969e-01	1.087186e-01	1.135615e-01	1.175288e-01	1.222978e-01	1.279235e-01	1.344738e-01	1.414135e-01	1.476612e-01	1.519295e-01	1.532711e-01	1.514091e-01	1.469070e-01	1.409954e-01	1.350352e-01	1.300496e-01	1.264859e-01	1.242609e-01	1.229685e-01	1.221356e-01	1.213772e-01	1.204660e-01	1.193159e-01	1.179402e-01	1.163929e-01	1.147397e-01	1.130185e-01	1.112625e-01	1.094815e-01	1.076713e-01	1.058303e-01	1.039540e-01	1.020329e-01	1.000656e-01	9.803958e-02	9.595981e-02	9.381283e-02	9.159917e-02	8.931447e-02	8.694991e-02	8.451001e-02	8.197542e-02	7.935378e-02	7.662425e-02	7.379904e-02	7.086234e-02	6.780801e-02	6.459184e-02	6.120090e-02	5.767783e-02	5.413807e-02	5.059417e-02	4.686533e-02	4.258934e-02	3.746258e-02	3.174062e-02	2.649991e-02	2.301160e-02	2.006200e-02	1.469475e-02	8.134702e-03	1.572044e-03	-4.894927e-03	-1.140565e-02	-1.819214e-02	-2.534290e-02	-3.289540e-02	-4.083271e-02	-4.916478e-02	-5.790648e-02	-6.709247e-02	-7.678491e-02	-8.703598e-02	-9.786806e-02	-1.093068e-01	-1.213966e-01	-1.342339e-01	-1.478731e-01	-1.623743e-01	-1.778455e-01	-1.943894e-01	-2.121000e-01	-2.311137e-01	-2.515485e-01	-2.735043e-01	-2.970848e-01	-3.223591e-01	-3.492954e-01	-3.775580e-01	-4.065444e-01	-4.350268e-01	-4.603650e-01	-4.782637e-01	-4.814764e-01	-4.586735e-01	-3.959558e-01	-2.823612e-01	-1.152054e-01	8.001117e-02	2.239799e-01	3.607208e-01	5.317701e-01	6.407599e-01	6.731852e-01	6.539584e-01	6.070429e-01	5.499869e-01	4.928063e-01	4.400092e-01	3.926638e-01	3.510594e-01	3.145560e-01	2.825822e-01	2.545023e-01	2.297197e-01	2.077518e-01	1.882075e-01	1.706892e-01	1.549087e-01	1.405915e-01	1.275057e-01	1.155567e-01	1.046612e-01	9.467730e-02	8.548609e-02	7.688868e-02	6.889772e-02	6.143584e-02	5.451393e-02	4.799042e-02	4.184324e-02	3.603113e-02	3.058523e-02	2.544812e-02	2.059572e-02	1.595928e-02	1.151108e-02	7.231747e-03	3.094111e-03	-9.132099e-04	-4.829272e-03	-8.634193e-03	-1.234701e-02	-1.597993e-02	-1.957817e-02	-2.316803e-02	-2.675905e-02	-3.043771e-02	-3.404087e-02	-3.738334e-02	-4.004194e-02	-4.177442e-02	-4.747934e-02	-6.177605e-02	-5.378072e-02	-4.985627e-02	-5.991451e-02	-6.696572e-02	-7.117206e-02	-7.445954e-02	-7.802131e-02	-8.177217e-02	-8.536463e-02	-8.874826e-02	-9.197648e-02	-9.506371e-02	-9.796133e-02	-1.006478e-01	-1.031051e-01	-1.053136e-01	-1.072607e-01	-1.089333e-01	-1.103349e-01	-1.114746e-01	-1.123729e-01	-1.130838e-01	-1.136594e-01	-1.141605e-01	-1.146124e-01	-1.149686e-01	-1.150706e-01	-1.146581e-01	-1.133895e-01	-1.109983e-01	-1.074298e-01	-1.029959e-01	-9.840089e-02	-9.460834e-02	-9.253458e-02	-9.269552e-02	-9.496469e-02	-9.859005e-02	-1.025018e-01	-1.056661e-01	-1.072345e-01	-1.067888e-01	-1.046894e-01	-9.961405e-02	-9.676016e-02	6.299134e-03	
SCALARS Conservative_4 float 1
LOOKUP_TABLE default
3.425941e+00	3.369528e+00	3.336593e+00	3.311357e+00	3.290519e+00	3.272134e+00	3.252703e+00	3.230851e+00	3.205286e+00	3.176360e+00	3.145596e+00	3.115636e+00	3.089429e+00	3.068790e+00	3.053830e+00	3.043171e+00	3.034801e+00	3.026878e+00	3.018259e+00	3.008489e+00	2.997686e+00	2.986204e+00	2.974409e+00	2.962652e+00	2.951077e+00	2.939758e+00	2.928661e+00	2.917759e+00	2.906983e+00	2.896301e+00	2.885694e+00	2.875104e+00	2.864438e+00	2.853702e+00	2.842912e+00	2.832065e+00	2.821189e+00	2.810203e+00	2.799130e+00	2.787926e+00	2.776580e+00	2.765079e+00	2.753406e+00	2.741532e+00	2.729406e+00	2.717030e+00	2.704563e+00	2.692247e+00	2.679996e+00	2.667123e+00	2.652728e+00	2.637454e+00	2.624797e+00	2.619265e+00	2.621084e+00	2.620455e+00	2.597936e+00	2.539310e+00	2.460990e+00	2.403866e+00	2.383120e+00	2.384625e+00	2.393096e+00	2.401788e+00	2.410048e+00	2.418886e+00	2.429120e+00	2.440680e+00	2.453227e+00	2.466384e+00	2.480206e+00	2.495159e+00	2.511859e+00	2.530408e+00	2.550502e+00	2.571669e+00	2.594055e+00	2.618102e+00	2.643881e+00	2.671444e+00	2.701070e+00	2.732828e+00	2.767045e+00	2.803938e+00	2.843894e+00	2.887483e+00	2.935138e+00	2.987667e+00	3.046110e+00	3.111025e+00	3.183648e+00	3.265100e+00	3.355129e+00	3.453234e+00	3.555969e+00	3.658550e+00	3.742675e+00	3.804273e+00	3.800604e+00	3.757316e+00	3.732564e+00	3.638278e+00	3.434191e+00	3.254429e+00	3.084694e+00	2.934201e+00	2.808846e+00	2.707589e+00	2.625348e+00	2.558044e+00	2.502235e+00	2.455101e+00	2.415300e+00	2.381021e+00	2.351384e+00	2.326210e+00	2.304652e+00	2.285603e+00	2.268252e+00	2.251911e+00	2.236590e+00	2.222991e+00	2.211584e+00	2.201698e+00	2.192340e+00	2.182970e+00	2.174163e+00	2.166023e+00	2.158271e+00	2.150558e+00	2.143299e+00	2.136975e+00	2.131928e+00	2.127911e+00	2.124607e+00	2.121590e+00	2.118620e+00	2.115544e+00	2.112151e+00	2.108438e+00	2.104473e+00	2.100450e+00	2.096377e+00	2.092008e+00	2.087169e+00	2.081976e+00	2.076711e+00	2.072182e+00	2.070188e+00	2.071226e+00	2.065747e+00	2.044428e+00	2.001984e+00	2.121899e+00	2.518287e+00	2.851280e+00	2.869013e+00	2.828043e+00	2.811103e+00	2.811354e+00	2.812501e+00	2.813855e+00	2.818257e+00	2.825476e+00	2.834326e+00	2.844369e+00	2.855425e+00	2.867371e+00	2.879962e+00	2.893145e+00	2.906705e+00	2.920489e+00	2.934386e+00	2.948260e+00	2.962033e+00	2.975644e+00	2.989102e+00	3.002534e+00	3.016109e+00	3.030143e+00	3.044837e+00	3.060310e+00	3.076299e+00	3.092166e+00	3.106930e+00	3.119560e+00	3.129304e+00	3.136134e+00	3.141028e+00	3.145812e+00	3.152731e+00	3.163647e+00	3.179457e+00	3.200277e+00	3.224765e+00	3.253458e+00	3.285546e+00	3.323900e+00	3.368780e+00	3.343885e+00	
SCALARS Pressure float 1
LOOKUP_TABLE default
1.277347e+00	1.246135e+00	1.225831e+00	1.210257e+00	1.197661e+00	1.186538e+00	1.175091e+00	1.162280e+00	1.147401e+00	1.130618e+00	1.112833e+00	1.095575e+00	1.080514e+00	1.068682e+00	1.060142e+00	1.054110e+00	1.049425e+00	1.045025e+00	1.040242e+00	1.034816e+00	1.028807e+00	1.022425e+00	1.015884e+00	1.009375e+00	1.002988e+00	9.967594e-01	9.906749e-01	9.847108e-01	9.788350e-01	9.730279e-01	9.672702e-01	9.615354e-01	9.557809e-01	9.500011e-01	9.442053e-01	9.383980e-01	9.325805e-01	9.267305e-01	9.208456e-01	9.149066e-01	9.089115e-01	9.028486e-01	8.967156e-01	8.904914e-01	8.841561e-01	8.777072e-01	8.712367e-01	8.648644e-01	8.585460e-01	8.519016e-01	8.444845e-01	8.366647e-01	8.302791e-01	8.276268e-01	8.287608e-01	8.285217e-01	8.169615e-01	7.870662e-01	7.479134e-01	7.203370e-01	7.106906e-01	7.116968e-01	7.158839e-01	7.200719e-01	7.240083e-01	7.282595e-01	7.331941e-01	7.387976e-01	7.448896e-01	7.513038e-01	7.580608e-01	7.654070e-01	7.736471e-01	7.828525e-01	7.928673e-01	8.034992e-01	8.147865e-01	8.269627e-01	8.401354e-01	8.543530e-01	8.697304e-01	8.863600e-01	9.044245e-01	9.240900e-01	9.456141e-01	9.693801e-01	9.957157e-01	1.025102e+00	1.058220e+00	1.095590e+00	1.137994e+00	1.186236e+00	1.240512e+00	1.300557e+00	1.364558e+00	1.428816e+00	1.482423e+00	1.519592e+00	1.519280e+00	1.495380e+00	1.472929e+00	1.407618e+00	1.289099e+00	1.182068e+00	1.083935e+00	9.995770e-01	9.310296e-01	8.765907e-01	8.332347e-01	7.984305e-01	7.700733e-01	7.465927e-01	7.270306e-01	7.103933e-01	6.961966e-01	6.842502e-01	6.741255e-01	6.652759e-01	6.572525e-01	6.497291e-01	6.427077e-01	6.364801e-01	6.312784e-01	6.268613e-01	6.226721e-01	6.184852e-01	6.145302e-01	6.109209e-01	6.074790e-01	6.040804e-01	6.008565e-01	5.980593e-01	5.958107e-01	5.940392e-01	5.925833e-01	5.912711e-01	5.899835e-01	5.886448e-01	5.871813e-01	5.855631e-01	5.838294e-01	5.820708e-01	5.803055e-01	5.784151e-01	5.763233e-01	5.740730e-01	5.717756e-01	5.697656e-01	5.688446e-01	5.695301e-01	5.677499e-01	5.563680e-01	5.448229e-01	5.973917e-01	8.046439e-01	9.688112e-01	9.749227e-01	9.527248e-01	9.434722e-01	9.433232e-01	9.438014e-01	9.445156e-01	9.468774e-01	9.507541e-01	9.555446e-01	9.610040e-01	9.670377e-01	9.735728e-01	9.805049e-01	9.877728e-01	9.952795e-01	1.002946e+00	1.010698e+00	1.018463e+00	1.026197e+00	1.033868e+00	1.041483e+00	1.049109e+00	1.056854e+00	1.064890e+00	1.073351e+00	1.082295e+00	1.091570e+00	1.100788e+00	1.109363e+00	1.116681e+00	1.122307e+00	1.126251e+00	1.129104e+00	1.131962e+00	1.136137e+00	1.142707e+00	1.152225e+00	1.164666e+00	1.179544e+00	1.196925e+00	1.216753e+00	1.240578e+00	1.268847e+00	1.265524e+00	
SCALARS Temperature float 1
LOOKUP_TABLE default
1.072231e+00	1.065890e+00	1.060758e+00	1.056733e+00	1.053525e+00	1.050648e+00	1.047768e+00	1.044522e+00	1.040732e+00	1.036393e+00	1.031719e+00	1.027109e+00	1.023013e+00	1.019752e+00	1.017381e+00	1.015714e+00	1.014432e+00	1.013235e+00	1.011928e+00	1.010434e+00	1.008761e+00	1.006970e+00	1.005126e+00	1.003278e+00	1.001459e+00	9.996762e-01	9.979295e-01	9.962087e-01	9.945079e-01	9.928206e-01	9.911377e-01	9.894538e-01	9.877597e-01	9.860495e-01	9.843258e-01	9.825929e-01	9.808441e-01	9.790824e-01	9.773000e-01	9.754924e-01	9.736601e-01	9.717966e-01	9.699037e-01	9.679708e-01	9.659944e-01	9.639703e-01	9.619315e-01	9.599127e-01	9.579004e-01	9.557588e-01	9.533468e-01	9.507973e-01	9.487411e-01	9.479557e-01	9.484420e-01	9.484071e-01	9.445067e-01	9.341596e-01	9.201866e-01	9.102857e-01	9.069181e-01	9.074656e-01	9.090879e-01	9.106336e-01	9.120484e-01	9.135883e-01	9.153668e-01	9.173835e-01	9.195573e-01	9.218342e-01	9.242142e-01	9.267883e-01	9.296550e-01	9.328366e-01	9.362620e-01	9.398774e-01	9.436658e-01	9.476975e-01	9.520292e-01	9.566678e-01	9.616128e-01	9.668970e-01	9.725537e-01	9.786251e-01	9.851726e-01	9.922955e-01	1.000068e+00	1.008565e+00	1.017923e+00	1.028245e+00	1.039615e+00	1.052112e+00	1.065703e+00	1.080116e+00	1.094868e+00	1.108828e+00	1.120105e+00	1.126889e+00	1.127501e+00	1.123959e+00	1.117123e+00	1.101356e+00	1.077514e+00	1.051922e+00	1.026576e+00	1.003200e+00	9.828506e-01	9.655801e-01	9.511529e-01	9.391500e-01	9.290927e-01	9.206299e-01	9.134442e-01	9.072413e-01	9.018988e-01	8.973526e-01	8.934779e-01	8.900853e-01	8.869778e-01	8.840361e-01	8.812683e-01	8.787804e-01	8.766904e-01	8.749584e-01	8.732938e-01	8.716193e-01	8.700088e-01	8.685586e-01	8.671605e-01	8.657875e-01	8.644567e-01	8.633020e-01	8.623561e-01	8.616206e-01	8.610146e-01	8.604790e-01	8.599549e-01	8.594044e-01	8.588100e-01	8.581381e-01	8.574111e-01	8.566706e-01	8.559354e-01	8.551468e-01	8.542717e-01	8.533206e-01	8.523326e-01	8.514385e-01	8.510011e-01	8.514703e-01	8.511486e-01	8.445728e-01	8.445793e-01	8.673308e-01	9.560127e-01	1.001260e+00	1.001326e+00	9.948752e-01	9.920864e-01	9.919028e-01	9.919763e-01	9.921807e-01	9.928749e-01	9.940105e-01	9.954232e-01	9.970320e-01	9.988063e-01	1.000718e+00	1.002746e+00	1.004856e+00	1.007026e+00	1.009235e+00	1.011454e+00	1.013665e+00	1.015855e+00	1.018016e+00	1.020153e+00	1.022282e+00	1.024438e+00	1.026664e+00	1.029003e+00	1.031463e+00	1.033996e+00	1.036490e+00	1.038781e+00	1.040710e+00	1.042172e+00	1.043190e+00	1.043936e+00	1.044709e+00	1.045850e+00	1.047627e+00	1.050176e+00	1.053426e+00	1.057347e+00	1.061820e+00	1.066963e+00	1.073035e+00	1.080176e+00	1.083943e+00	
SCALARS Pressure_Coefficient float 1
LOOKUP_TABLE default
6.190772e-01	5.494088e-01	5.040876e-01	4.693243e-01	4.412078e-01	4.163798e-01	3.908288e-01	3.622312e-01	3.290205e-01	2.915587e-01	2.518584e-01	2.133374e-01	1.797179e-01	1.533087e-01	1.342446e-01	1.207813e-01	1.103247e-01	1.005014e-01	8.982491e-02	7.771491e-02	6.430243e-02	5.005470e-02	3.545643e-02	2.092565e-02	6.669720e-03	-7.233589e-03	-2.081495e-02	-3.412775e-02	-4.724320e-02	-6.020569e-02	-7.305754e-02	-8.585850e-02	-9.870333e-02	-1.116046e-01	-1.245417e-01	-1.375045e-01	-1.504899e-01	-1.635479e-01	-1.766840e-01	-1.899406e-01	-2.033225e-01	-2.168558e-01	-2.305454e-01	-2.444388e-01	-2.585801e-01	-2.729749e-01	-2.874181e-01	-3.016421e-01	-3.157456e-01	-3.305768e-01	-3.471328e-01	-3.645877e-01	-3.788414e-01	-3.847616e-01	-3.822304e-01	-3.827641e-01	-4.085682e-01	-4.752988e-01	-5.626932e-01	-6.242477e-01	-6.457800e-01	-6.435340e-01	-6.341876e-01	-6.248395e-01	-6.160529e-01	-6.065636e-01	-5.955489e-01	-5.830412e-01	-5.694428e-01	-5.551254e-01	-5.400428e-01	-5.236451e-01	-5.052521e-01	-4.847042e-01	-4.623497e-01	-4.386179e-01	-4.134231e-01	-3.862440e-01	-3.568406e-01	-3.251050e-01	-2.907803e-01	-2.536607e-01	-2.133383e-01	-1.694419e-01	-1.213970e-01	-6.834807e-02	-9.563077e-03	5.603160e-02	1.299561e-01	2.133701e-01	3.080234e-01	4.157046e-01	5.368566e-01	6.708867e-01	8.137462e-01	9.571775e-01	1.076836e+00	1.159805e+00	1.159108e+00	1.105759e+00	1.055644e+00	9.098623e-01	6.453110e-01	4.064015e-01	1.873541e-01	-9.441570e-04	-1.539517e-01	-2.754671e-01	-3.722441e-01	-4.499320e-01	-5.132292e-01	-5.656413e-01	-6.093067e-01	-6.464435e-01	-6.781327e-01	-7.047987e-01	-7.273984e-01	-7.471521e-01	-7.650613e-01	-7.818547e-01	-7.975275e-01	-8.114284e-01	-8.230393e-01	-8.328988e-01	-8.422497e-01	-8.515956e-01	-8.604238e-01	-8.684801e-01	-8.761629e-01	-8.837492e-01	-8.909452e-01	-8.971890e-01	-9.022083e-01	-9.061624e-01	-9.094123e-01	-9.123413e-01	-9.152154e-01	-9.182035e-01	-9.214703e-01	-9.250824e-01	-9.289522e-01	-9.328777e-01	-9.368182e-01	-9.410377e-01	-9.457068e-01	-9.507299e-01	-9.558580e-01	-9.603447e-01	-9.624003e-01	-9.608703e-01	-9.648440e-01	-9.902500e-01	-1.016020e+00	-8.986793e-01	-4.360626e-01	-6.961778e-02	-5.597604e-02	-1.055251e-01	-1.261782e-01	-1.265107e-01	-1.254433e-01	-1.238491e-01	-1.185772e-01	-1.099239e-01	-9.923085e-02	-8.704460e-02	-7.357659e-02	-5.898925e-02	-4.351588e-02	-2.729295e-02	-1.053693e-02	6.576244e-03	2.387906e-02	4.121129e-02	5.847466e-02	7.559781e-02	9.259493e-02	1.096182e-01	1.269065e-01	1.448431e-01	1.637298e-01	1.836953e-01	2.043977e-01	2.249741e-01	2.441143e-01	2.604487e-01	2.730059e-01	2.818096e-01	2.881784e-01	2.945577e-01	3.038771e-01	3.185434e-01	3.397887e-01	3.675585e-01	4.007681e-01	4.395654e-01	4.838234e-01	5.370036e-01	6.001041e-01	5.926872e-01	
SCALARS Mach float 1
LOOKUP_TABLE default
5.100084e-01	5.398186e-01	5.630310e-01	5.807349e-01	5.945633e-01	6.067649e-01	6.188042e-01	6.321773e-01	6.475426e-01	6.648320e-01	6.831203e-01	7.008522e-01	7.163627e-01	7.285642e-01	7.373568e-01	7.435031e-01	7.482065e-01	7.525817e-01	7.573435e-01	7.627660e-01	7.688096e-01	7.752501e-01	7.818485e-01	7.884306e-01	7.948813e-01	8.011737e-01	8.073132e-01	8.133370e-01	8.192676e-01	8.251287e-01	8.309533e-01	8.367602e-01	8.425818e-01	8.484380e-01	8.543205e-01	8.602143e-01	8.661425e-01	8.720948e-01	8.780976e-01	8.841658e-01	8.902974e-01	8.965142e-01	9.028091e-01	9.092173e-01	9.157496e-01	9.224190e-01	9.291168e-01	9.357292e-01	9.423015e-01	9.492763e-01	9.571079e-01	9.653594e-01	9.719955e-01	9.745257e-01	9.729594e-01	9.730718e-01	9.856097e-01	1.018611e+00	1.062661e+00	1.093579e+00	1.104048e+00	1.102347e+00	1.097305e+00	1.092496e+00	1.088090e+00	1.083290e+00	1.077739e+00	1.071437e+00	1.064633e+00	1.057494e+00	1.050018e+00	1.041916e+00	1.032871e+00	1.022805e+00	1.011934e+00	1.000419e+00	9.883054e-01	9.753572e-01	9.613758e-01	9.463182e-01	9.301618e-01	9.127689e-01	8.939908e-01	8.736367e-01	8.514331e-01	8.269483e-01	7.997918e-01	7.695147e-01	7.353537e-01	6.965111e-01	6.520242e-01	6.005813e-01	5.406778e-01	4.708588e-01	3.890445e-01	2.941034e-01	1.878530e-01	7.053244e-02	4.753118e-02	1.342491e-01	2.207483e-01	3.478602e-01	4.840657e-01	6.013860e-01	7.028824e-01	7.887086e-01	8.593392e-01	9.171164e-01	9.642100e-01	1.002739e+00	1.034647e+00	1.061271e+00	1.083739e+00	1.103044e+00	1.119612e+00	1.133672e+00	1.145631e+00	1.156084e+00	1.165646e+00	1.174687e+00	1.183185e+00	1.190817e+00	1.197224e+00	1.202531e+00	1.207629e+00	1.212755e+00	1.217684e+00	1.222120e+00	1.226396e+00	1.230594e+00	1.234662e+00	1.238191e+00	1.241081e+00	1.243328e+00	1.245180e+00	1.246816e+00	1.248417e+00	1.250098e+00	1.251914e+00	1.253966e+00	1.256186e+00	1.258447e+00	1.260692e+00	1.263099e+00	1.265771e+00	1.268674e+00	1.271691e+00	1.274420e+00	1.275755e+00	1.274322e+00	1.275304e+00	1.295374e+00	1.295354e+00	1.225875e+00	9.484504e-01	7.955863e-01	7.953528e-01	8.179888e-01	8.276726e-01	8.283077e-01	8.280535e-01	8.273460e-01	8.249406e-01	8.209976e-01	8.160789e-01	8.104578e-01	8.042344e-01	7.975002e-01	7.903197e-01	7.828137e-01	7.750496e-01	7.671002e-01	7.590662e-01	7.510129e-01	7.429849e-01	7.350091e-01	7.270735e-01	7.191118e-01	7.109911e-01	7.025456e-01	6.936013e-01	6.841160e-01	6.742537e-01	6.644508e-01	6.553550e-01	6.476325e-01	6.417373e-01	6.376064e-01	6.345715e-01	6.314148e-01	6.267337e-01	6.193931e-01	6.087520e-01	5.949868e-01	5.780609e-01	5.582875e-01	5.348659e-01	5.061283e-01	4.705526e-01	4.508617e-01	