# vtk DataFile Version 3.0
vtk output
ASCII
DATASET UNSTRUCTURED_GRID
POINTS 5233 float
9.997500e-01	-3.633567e-05	0.0	9.990000e-01	-1.456766e-04	0.0	9.977600e-01	-3.297401e-04	0.0	9.960200e-01	-6.019186e-04	0.0	9.937800e-01	-9.900673e-04	0.0	9.910500e-01	-1.539445e-03	0.0	9.878400e-01	-2.307745e-03	0.0	9.841300e-01	-3.355756e-03	0.0	9.799500e-01	-4.699161e-03	0.0	9.752800e-01	-6.311306e-03	0.0	9.701500e-01	-8.084271e-03	0.0	9.645400e-01	-9.881396e-03	0.0	9.584700e-01	-1.154883e-02	0.0	9.519400e-01	-1.298353e-02	0.0	9.449600e-01	-1.415581e-02	0.0	9.375400e-01	-1.511474e-02	0.0	9.296900e-01	-1.596247e-02	0.0	9.214000e-01	-1.681743e-02	0.0	9.127000e-01	-1.777342e-02	0.0	9.035800e-01	-1.888736e-02	0.0	8.940600e-01	-2.016730e-02	0.0	8.841500e-01	-2.158492e-02	0.0	8.738500e-01	-2.309013e-02	0.0	8.631800e-01	-2.462129e-02	0.0	8.521600e-01	-2.611993e-02	0.0	8.407700e-01	-2.754343e-02	0.0	8.290500e-01	-2.885543e-02	0.0	8.170100e-01	-3.003839e-02	0.0	8.046400e-01	-3.108921e-02	0.0	7.919700e-01	-3.201116e-02	0.0	7.790100e-01	-3.281634e-02	0.0	7.657800e-01	-3.351995e-02	0.0	7.522800e-01	-3.413922e-02	0.0	7.385200e-01	-3.468963e-02	0.0	7.245300e-01	-3.518363e-02	0.0	7.103200e-01	-3.563158e-02	0.0	6.958900e-01	-3.604104e-02	0.0	6.812700e-01	-3.641611e-02	0.0	6.664700e-01	-3.675960e-02	0.0	6.515000e-01	-3.707317e-02	0.0	6.363800e-01	-3.735797e-02	0.0	6.211300e-01	-3.761552e-02	0.0	6.057600e-01	-3.784834e-02	0.0	5.902800e-01	-3.805997e-02	0.0	5.747100e-01	-3.825495e-02	0.0	5.590600e-01	-3.843888e-02	0.0	5.433600e-01	-3.861781e-02	0.0	5.276100e-01	-3.879840e-02	0.0	5.118400e-01	-3.898678e-02	0.0	4.960500e-01	-3.918882e-02	0.0	4.802700e-01	-3.940902e-02	0.0	4.645100e-01	-3.965078e-02	0.0	4.487800e-01	-3.991602e-02	0.0	4.331100e-01	-4.020458e-02	0.0	4.175000e-01	-4.051517e-02	0.0	4.019700e-01	-4.084447e-02	0.0	3.865400e-01	-4.118765e-02	0.0	3.712300e-01	-4.153854e-02	0.0	3.560400e-01	-4.189038e-02	0.0	3.409900e-01	-4.223513e-02	0.0	3.261100e-01	-4.256396e-02	0.0	3.114000e-01	-4.286844e-02	0.0	2.968700e-01	-4.313980e-02	0.0	2.825500e-01	-4.336903e-02	0.0	2.684500e-01	-4.354785e-02	0.0	2.545700e-01	-4.366840e-02	0.0	2.409400e-01	-4.372306e-02	0.0	2.275700e-01	-4.370505e-02	0.0	2.144700e-01	-4.360812e-02	0.0	2.016600e-01	-4.342679e-02	0.0	1.891400e-01	-4.315595e-02	0.0	1.769300e-01	-4.279142e-02	0.0	1.650400e-01	-4.232949e-02	0.0	1.534900e-01	-4.176757e-02	0.0	1.422900e-01	-4.110347e-02	0.0	1.314400e-01	-4.033490e-02	0.0	1.209500e-01	-3.946063e-02	0.0	1.108500e-01	-3.848222e-02	0.0	1.011300e-01	-3.739841e-02	0.0	9.181000e-02	-3.621167e-02	0.0	8.290000e-02	-3.492454e-02	0.0	7.440000e-02	-3.353888e-02	0.0	6.633000e-02	-3.206074e-02	0.0	5.869000e-02	-3.049388e-02	0.0	5.149000e-02	-2.884481e-02	0.0	4.474000e-02	-2.712128e-02	0.0	3.844000e-02	-2.532938e-02	0.0	3.260000e-02	-2.347856e-02	0.0	2.723000e-02	-2.157949e-02	0.0	2.232000e-02	-1.963571e-02	0.0	1.790000e-02	-1.766677e-02	0.0	1.395000e-02	-1.567090e-02	0.0	1.049000e-02	-1.366358e-02	0.0	7.520000e-03	-1.164962e-02	0.0	5.040000e-03	-9.629988e-03	0.0	3.050000e-03	-7.599013e-03	0.0	1.560000e-03	-5.554508e-03	0.0	5.600000e-04	-3.448955e-03	0.0	6.000000e-05	-1.209949e-03	0.0	0.000000e+00	0.000000e+00	0.0	6.000000e-05	1.165983e-03	0.0	5.600000e-04	3.217605e-03	0.0	1.560000e-03	5.046258e-03	0.0	3.050000e-03	6.742078e-03	0.0	5.040000e-03	8.361103e-03	0.0	7.520000e-03	9.917876e-03	0.0	1.049000e-02	1.142808e-02	0.0	1.395000e-02	1.290097e-02	0.0	1.790000e-02	1.434211e-02	0.0	2.232000e-02	1.574881e-02	0.0	2.723000e-02	1.713017e-02	0.0	3.260000e-02	1.847954e-02	0.0	3.844000e-02	1.980114e-02	0.0	4.474000e-02	2.109361e-02	0.0	5.149000e-02	2.235585e-02	0.0	5.869000e-02	2.358863e-02	0.0	6.633000e-02	2.479093e-02	0.0	7.440000e-02	2.596202e-02	0.0	8.290000e-02	2.710269e-02	0.0	9.181000e-02	2.821122e-02	0.0	1.011300e-01	2.928867e-02	0.0	1.108500e-01	3.033495e-02	0.0	1.209500e-01	3.134914e-02	0.0	1.314400e-01	3.233345e-02	0.0	1.422900e-01	3.328628e-02	0.0	1.534900e-01	3.420817e-02	0.0	1.650400e-01	3.510037e-02	0.0	1.769300e-01	3.596322e-02	0.0	1.891400e-01	3.679634e-02	0.0	2.016600e-01	3.760003e-02	0.0	2.144700e-01	3.837381e-02	0.0	2.275700e-01	3.911824e-02	0.0	2.409400e-01	3.983242e-02	0.0	2.545700e-01	4.051574e-02	0.0	2.684500e-01	4.116722e-02	0.0	2.825500e-01	4.178461e-02	0.0	2.968700e-01	4.236660e-02	0.0	3.114000e-01	4.291094e-02	0.0	3.261100e-01	4.341421e-02	0.0	3.409900e-01	4.387335e-02	0.0	3.560400e-01	4.428508e-02	0.0	3.712300e-01	4.464488e-02	0.0	3.865400e-01	4.494833e-02	0.0	4.019700e-01	4.519109e-02	0.0	4.175000e-01	4.536825e-02	0.0	4.331100e-01	4.547487e-02	0.0	4.487800e-01	4.550611e-02	0.0	4.645100e-01	4.545717e-02	0.0	4.802700e-01	4.532340e-02	0.0	4.960500e-01	4.510033e-02	0.0	5.118400e-01	4.478361e-02	0.0	5.276100e-01	4.436963e-02	0.0	5.433600e-01	4.385449e-02	0.0	5.590600e-01	4.323560e-02	0.0	5.747100e-01	4.250994e-02	0.0	5.902800e-01	4.167656e-02	0.0	6.057600e-01	4.073476e-02	0.0	6.211300e-01	3.968577e-02	0.0	6.363800e-01	3.853194e-02	0.0	6.515000e-01	3.727756e-02	0.0	6.664700e-01	3.593003e-02	0.0	6.812700e-01	3.449944e-02	0.0	6.958900e-01	3.299739e-02	0.0	7.103200e-01	3.143751e-02	0.0	7.245300e-01	2.983719e-02	0.0	7.385200e-01	2.821115e-02	0.0	7.522800e-01	2.657470e-02	0.0	7.657800e-01	2.494392e-02	0.0	7.790100e-01	2.332979e-02	0.0	7.919700e-01	2.173853e-02	0.0	8.046400e-01	2.017491e-02	0.0	8.170100e-01	1.863872e-02	0.0	8.290500e-01	1.712919e-02	0.0	8.407700e-01	1.563835e-02	0.0	8.521600e-01	1.415936e-02	0.0	8.631800e-01	1.268876e-02	0.0	8.738500e-01	1.121509e-02	0.0	8.841500e-01	9.732896e-03	0.0	8.940600e-01	8.239748e-03	0.0	9.035800e-01	6.737241e-03	0.0	9.127000e-01	5.241907e-03	0.0	9.214000e-01	3.792827e-03	0.0	9.296900e-01	2.449338e-03	0.0	9.375400e-01	1.298592e-03	0.0	9.449600e-01	4.270248e-04	0.0	9.519400e-01	-9.663583e-05	0.0	9.584700e-01	-2.543264e-04	0.0	9.645400e-01	-9.682023e-05	0.0	9.701500e-01	2.627950e-04	0.0	9.752800e-01	6.783850e-04	0.0	9.799500e-01	1.018743e-03	0.0	9.841300e-01	1.197864e-03	0.0	9.878400e-01	1.196092e-03	0.0	9.910500e-01	1.046808e-03	0.0	9.937800e-01	8.108982e-04	0.0	9.960200e-01	5.521544e-04	0.0	9.977600e-01	3.205025e-04	0.0	9.990000e-01	1.448331e-04	0.0	9.997500e-01	3.632230e-05	0.0	1.000000e+00	0.000000e+00	0.0	1.984229e+01	2.506660e+00	0.0	1.937166e+01	4.973800e+00	0.0	1.859553e+01	7.362490e+00	0.0	1.752613e+01	9.635070e+00	0.0	1.618034e+01	1.175571e+01	0.0	1.457937e+01	1.369094e+01	0.0	1.274848e+01	1.541027e+01	0.0	1.071654e+01	1.688656e+01	0.0	8.515590e+00	1.809654e+01	0.0	6.180340e+00	1.902113e+01	0.0	3.747630e+00	1.964575e+01	0.0	1.255810e+00	1.996053e+01	0.0	-1.255810e+00	1.996053e+01	0.0	-3.747630e+00	1.964574e+01	0.0	-6.180340e+00	1.902113e+01	0.0	-8.515590e+00	1.809654e+01	0.0	-1.071654e+01	1.688656e+01	0.0	-1.274848e+01	1.541026e+01	0.0	-1.457937e+01	1.369094e+01	0.0	-1.618034e+01	1.175570e+01	0.0	-1.752613e+01	9.635070e+00	0.0	-1.859553e+01	7.362490e+00	0.0	-1.937166e+01	4.973800e+00	0.0	-1.984229e+01	2.506660e+00	0.0	-2.000000e+01	0.000000e+00	0.0	-1.984229e+01	-2.506670e+00	0.0	-1.937166e+01	-4.973800e+00	0.0	-1.859553e+01	-7.362490e+00	0.0	-1.752613e+01	-9.635080e+00	0.0	-1.618034e+01	-1.175571e+01	0.0	-1.457937e+01	-1.369094e+01	0.0	-1.274848e+01	-1.541027e+01	0.0	-1.071653e+01	-1.688656e+01	0.0	-8.515580e+00	-1.809654e+01	0.0	-6.180340e+00	-1.902113e+01	0.0	-3.747620e+00	-1.964575e+01	0.0	-1.255810e+00	-1.996053e+01	0.0	1.255810e+00	-1.996053e+01	0.0	3.747630e+00	-1.964574e+01	0.0	6.180340e+00	-1.902113e+01	0.0	8.515590e+00	-1.809654e+01	0.0	1.071654e+01	-1.688656e+01	0.0	1.274848e+01	-1.541026e+01	0.0	1.457937e+01	-1.369094e+01	0.0	1.618034e+01	-1.175570e+01	0.0	1.752614e+01	-9.635070e+00	0.0	1.859553e+01	-7.362490e+00	0.0	1.937166e+01	-4.973790e+00	0.0	1.984229e+01	-2.506660e+00	0.0	2.000000e+01	0.000000e+00	0.0	6.108543e-02	-3.816078e-02	0.0	6.596172e-01	-5.067229e-02	0.0	4.254823e-01	5.960565e-02	0.0	6.898002e-01	4.694628e-02	0.0	3.791921e-01	-5.563833e-02	0.0	9.994689e-01	-7.250063e-04	0.0	9.985588e-01	-1.332457e-03	0.0	7.734184e-01	-4.509774e-02	0.0	6.892983e-01	-4.963694e-02	0.0	-8.295790e-04	4.943655e-03	0.0	7.463101e-01	-4.690705e-02	0.0	5.833279e-01	5.609672e-02	0.0	9.928466e-01	-3.842916e-03	0.0	9.899844e-01	-4.961132e-03	0.0	5.989134e-01	5.512238e-02	0.0	7.182378e-01	-4.839351e-02	0.0	-1.259561e-03	5.821327e-04	0.0	9.866441e-01	-6.298789e-03	0.0	9.828301e-01	-7.864171e-03	0.0	-9.282235e-04	-5.357309e-03	0.0	6.445386e-01	-5.112157e-02	0.0	8.242638e-01	-4.018573e-02	0.0	7.994356e-01	-4.289059e-02	0.0	3.484143e-01	5.784977e-02	0.0	8.477560e-01	-3.701394e-02	0.0	2.473350e-01	5.273731e-02	0.0	8.698460e-01	-3.351068e-02	0.0	1.069248e-02	1.538682e-02	0.0	8.904306e-01	-2.996792e-02	0.0	7.735916e-02	-4.190363e-02	0.0	9.094521e-01	-2.669817e-02	0.0	-1.478659e-03	-2.676460e-03	0.0	9.425480e-01	-2.093128e-02	0.0	9.268504e-01	-2.379020e-02	0.0	1.834955e-02	-2.265860e-02	0.0	4.256822e-01	-5.492425e-02	0.0	8.589855e-01	-3.528594e-02	0.0	9.564615e-01	-1.760704e-02	0.0	9.785310e-01	-9.669541e-03	0.0	9.684787e-01	-1.367021e-02	0.0	1.586193e-01	-5.258851e-02	0.0	9.001424e-01	-2.828514e-02	0.0	7.599951e-01	-4.604752e-02	0.0	9.971456e-01	-2.101231e-03	0.0	5.985333e-01	-5.222807e-02	0.0	4.413404e-01	-5.468197e-02	0.0	5.359436e-01	-5.329039e-02	0.0	4.728216e-01	-5.420876e-02	0.0	5.043907e-01	-5.375000e-02	0.0	4.885946e-01	-5.397706e-02	0.0	1.252951e-01	-4.941829e-02	0.0	2.822709e-02	-2.739313e-02	0.0	3.945962e-01	-5.540732e-02	0.0	4.657429e-02	-3.407457e-02	0.0	4.100942e-01	-5.516839e-02	0.0	3.189296e-01	-5.636470e-02	0.0	3.487596e-01	-5.605946e-02	0.0	3.387981e-02	-2.967081e-02	0.0	2.897807e-01	-5.650309e-02	0.0	9.349173e-01	-2.238669e-02	0.0	1.471574e-01	-5.164091e-02	0.0	1.950012e-01	-5.476438e-02	0.0	8.613286e-02	-4.362590e-02	0.0	1.049270e-01	-4.675265e-02	0.0	5.673664e-01	-5.280579e-02	0.0	1.704241e-01	-5.342558e-02	0.0	6.139885e-01	-5.189373e-02	0.0	8.803343e-01	-3.172395e-02	0.0	2.306074e-02	-2.505130e-02	0.0	9.952398e-01	-2.914819e-03	0.0	7.155021e-03	-1.536324e-02	0.0	1.868944e-02	1.918506e-02	0.0	9.183568e-01	-2.520860e-02	0.0	9.49
[...]
POINT_DATA 5233

SCALARS Conservative_1 float 1
LOOKUP_TABLE default
1.194908e+00	1.179154e+00	1.172170e+00	1.169544e+00	1.168223e+00	1.165352e+00	1.157037e+00	1.140441e+00	1.113038e+00	1.074313e+00	1.024612e+00	9.626693e-01	9.066213e-01	8.845179e-01	8.954423e-01	9.232712e-01	9.533870e-01	9.754432e-01	9.862559e-01	9.866612e-01	9.783726e-01	9.635571e-01	9.446090e-01	9.233595e-01	8.996896e-01	8.736576e-01	8.503314e-01	8.363213e-01	8.333152e-01	8.385601e-01	8.481960e-01	8.591957e-01	8.698693e-01	8.793117e-01	8.873820e-01	8.941653e-01	8.998969e-01	9.048588e-01	9.092667e-01	9.133795e-01	9.173329e-01	9.212637e-01	9.251896e-01	9.291184e-01	9.329683e-01	9.366644e-01	9.400842e-01	9.431331e-01	9.456951e-01	9.476878e-01	9.490180e-01	9.496357e-01	9.494903e-01	9.485650e-01	9.468446e-01	9.443381e-01	9.410573e-01	9.370334e-01	9.323090e-01	9.269316e-01	9.209753e-01	9.144530e-01	9.073586e-01	8.996592e-01	8.915853e-01	8.835112e-01	8.755909e-01	8.670481e-01	8.564911e-01	8.432527e-01	8.295507e-01	8.191213e-01	8.140707e-01	8.138905e-01	8.170903e-01	8.223598e-01	8.292217e-01	8.375681e-01	8.472500e-01	8.581753e-01	8.703618e-01	8.837750e-01	8.984780e-01	9.144690e-01	9.318093e-01	9.506090e-01	9.709014e-01	9.928177e-01	1.016583e+00	1.042280e+00	1.070283e+00	1.101102e+00	1.135104e+00	1.173168e+00	1.215716e+00	1.262021e+00	1.307437e+00	1.347984e+00	1.348001e+00	1.321569e+00	1.296589e+00	1.222690e+00	1.088571e+00	9.925942e-01	9.285552e-01	8.889542e-01	8.651380e-01	8.500719e-01	8.397135e-01	8.322802e-01	8.268111e-01	8.226432e-01	8.195303e-01	8.171375e-01	8.153879e-01	8.143376e-01	8.138567e-01	8.138102e-01	8.141991e-01	8.151581e-01	8.169811e-01	8.198345e-01	8.235667e-01	8.277519e-01	8.319615e-01	8.359192e-01	8.394375e-01	8.423603e-01	8.446479e-01	8.464122e-01	8.477897e-01	8.488445e-01	8.495516e-01	8.498540e-01	8.497189e-01	8.491276e-01	8.480907e-01	8.466161e-01	8.447077e-01	8.423730e-01	8.395996e-01	8.363832e-01	8.327873e-01	8.289382e-01	8.249347e-01	8.208102e-01	8.165521e-01	8.124337e-01	8.092703e-01	8.087927e-01	8.130901e-01	8.232443e-01	8.373384e-01	8.509501e-01	8.609937e-01	8.682304e-01	8.750064e-01	8.830769e-01	8.928951e-01	9.038388e-01	9.151752e-01	9.266112e-01	9.380809e-01	9.494687e-01	9.605166e-01	9.710319e-01	9.808235e-01	9.898028e-01	9.978752e-01	1.005118e+00	1.011602e+00	1.017500e+00	1.023053e+00	1.028523e+00	1.034213e+00	1.040451e+00	1.047613e+00	1.056183e+00	1.066663e+00	1.079558e+00	1.094965e+00	1.112356e+00	1.130266e+00	1.146693e+00	1.159287e+00	1.165742e+00	1.164040e+00	1.152876e+00	1.132109e+00	1.104087e+00	1.075019e+00	1.052683e+00	1.044527e+00	1.053658e+00	1.075738e+00	1.102842e+00	1.129823e+00	1.156222e+00	1.184516e+00	1.174613e+00	9.999828e-01	9.999865e-01	9.999802e-01	9.999681e-01	9.999565e-01	9.999428e-01	9.999207e-01	9.998874e-01	9.998482e-01	9.998133e-01	9.997886e-01	9.997930e-01	9.998272e-01	9.998982e-01	9.999597e-01	1.000009e+00	1.000035e+00	1.000050e+00	1.000058e+00	1.000061e+00	1.000061e+00	1.000061e+00	1.000060e+00	1.000061e+00	1.000061e+00	1.000063e+00	1.000067e+00	1.000071e+00	1.000077e+00	1.000086e+00	1.000096e+00	1.000109e+00	1.000120e+00	1.000134e+00	1.000140e+00	1.000135e+00	1.000120e+00	1.000098e+00	1.000082e+00	1.000073e+00	1.000072e+00	1.000070e+00	1.000066e+00	1.000059e+00	1.000049e+00	1.000036e+00	1.000029e+00	1.000023e+00	1.000002e+00	9.999790e-01	9.211975e-01	9.130115e-01	8.268228e-01	9.358474e-01	9.391013e-01	1.179027e+00	1.171998e+00	8.597293e-01	9.044379e-01	1.218005e+00	8.787311e-01	8.706858e-01	1.156911e+00	1.149775e+00	8.770644e-01	8.935578e-01	1.316510e+00	1.137681e+00	1.118478e+00	1.326884e+00	9.169086e-01	8.505561e-01	8.432060e-01	8.441303e-01	8.943201e-01	8.526641e-01	9.376340e-01	9.043169e-01	9.692895e-01	8.904351e-01	9.821553e-01	1.344721e+00	9.230093e-01	9.649540e-01	1.076681e+00	9.472328e-01	9.178512e-01	9.185369e-01	1.091090e+00	1.009795e+00	8.211740e-01	9.789855e-01	8.695878e-01	1.165295e+00	9.282073e-01	9.484827e-01	9.417380e-01	9.488118e-01	9.464146e-01	9.479359e-01	8.357113e-01	1.023187e+00	9.425298e-01	9.573073e-01	9.452453e-01	9.190924e-01	9.302523e-01	9.995007e-01	9.057027e-01	9.450760e-01	8.237785e-01	8.414051e-01	8.769640e-01	8.536869e-01	9.354235e-01	8.226025e-01	9.244714e-01	9.548822e-01	1.048828e+00	1.161361e+00	1.176685e+00	8.662086e-01	9.776170e-01	9.097947e-01	1.055642e+00	1.129708e+00	8.694975e-01	8.832645e-01	9.387430e-01	8.867143e-01	8.502084e-01	8.439832e-01	8.670072e-01	9.318866e-01	9.089174e-01	9.385562e-01	1.215930e+00	1.107046e+00	9.349920e-01	8.295188e-01	1.205247e+00	8.759128e-01	8.647196e-01	9.126956e-01	8.905730e-01	9.490061e-01	8.994051e-01	1.286305e+00	1.296486e+00	8.345598e-01	1.331578e+00	8.458738e-01	8.270162e-01	8.340542e-01	8.274253e-01	8.306697e-01	1.121225e+00	8.217461e-01	8.151468e-01	1.112781e+00	1.143700e+00	1.063285e+00	8.130831e-01	8.228567e-01	8.379949e-01	1.116641e+00	1.087362e+00	8.227001e-01	1.091962e+00	1.149524e+00	1.141784e+00	8.230413e-01	8.248935e-01	8.514754e-01	8.526897e-01	8.449980e-01	8.486042e-01	8.188196e-01	8.344180e-01	8.385803e-01	8.309524e-01	8.926794e-01	8.490991e-01	8.514892e-01	9.138915e-01	8.622054e-01	9.773410e-01	9.574286e-01	1.008830e+00	9.945298e-01	1.032644e+00	1.021019e+00	1.074430e+00	1.045865e+00	1.148581e+00	1.101750e+00	1.131054e+00	1.038906e+00	1.053874e+00	1.015105e+00	1.026777e+00	9.863124e-01	1.002027e+00	9.467451e-01	9.676762e-01	9.029575e-01	9.248856e-01	8.496615e-01	8.839567e-01	8.504468e-01	8.522476e-01	8.420457e-01	8.473342e-01	8.300232e-01	8.348044e-01	8.820316e-01	8.392376e-01	8.551719e-01	9.841636e-01	9.564106e-01	8.420965e-01	9.249325e-01	9.443273e-01	1.049504e+00	8.545671e-01	9.366131e-01	8.224705e-01	8.235033e-01	8.522931e-01	8.246824e-01	1.073776e+00	1.063711e+00	8.502407e-01	1.065637e+00	1.078765e+00	8.465724e-01	8.412658e-01	1.130569e+00	1.200246e+00	1.144306e+00	1.164887e+00	9.207023e-01	9.775901e-01	1.098862e+00	8.146285e-01	1.257259e+00	1.140360e+00	9.051636e-01	8.289125e-01	8.981813e-01	8.336031e-01	1.196970e+00	1.259727e+00	9.045651e-01	9.041490e-01	9.761885e-01	1.169993e+00	8.720630e-01	9.086699e-01	8.616156e-01	1.132789e+00	9.232220e-01	9.135282e-01	8.709370e-01	8.844420e-01	1.300993e+00	8.663663e-01	1.106802e+00	9.619921e-01	8.323822e-01	8.989850e-01	9.166423e-01	9.481057e-01	8.978139e-01	9.407224e-01	9.712733e-01	8.547593e-01	9.682346e-01	8.906894e-01	9.238229e-01	1.030867e+00	8.330615e-01	9.342792e-01	8.479806e-01	1.051603e+00	1.077863e+00	8.486276e-01	8.240487e-01	1.135425e+00	1.060136e+00	1.083765e+00	1.133577e+00	1.089005e+00	8.556702e-01	8.507631e-01	8.552054e-01	8.315528e-01	9.128050e-01	8.545197e-01	9.348823e-01	8.418654e-01	8.433060e-01	1.115826e+00	1.096611e+00	1.069828e+00	8.308857e-01	1.209406e+00	1.131380e+00	1.113055e+00	1.012447e+00	1.129920e+00	1.204234e+00	1.331150e+00	1.319434e+00	1.078313e+00	1.212056e+00	9.281404e-01	1.161928e+00	1.150361e+00	8.329490e-01	9.404412e-01	1.117859e+00	9.478194e-01	8.793604e-01	1.143256e+00	1.324567e+00	9.472666e-01	8.364824e-01	8.917860e-01	8.549257e-01	9.320838e-01	9.612172e-01	9.123686e-01	9.765500e-01	9.697848e-01	9.342200e-01	1.027426e+00	9.380263e-01	1.000248e+00	1.097037e+00	8.436145e-01	8.785169e-01	8.700781e-01	1.156083e+00	9.482794e-01	9.478155e-01	9.467321e-01	1.052041e+00	9.435760e-01	9.457637e-01	9.284261e-01	9.833482e-01	9.581031e-01	9.440816e-01	8.370074e-01	8.722373e-01	9.375324e-01	9.275189e-01	1.038395e+00	1.070520e+00	8.931002e-01	8.863141e-01	8.613408e-01	8.517661e-01	9.343684e-01	9.309931e-01	9.636421e-01	9.452513e-01	1.137257e+00	9.330958e-01	9.372194e-01	8.342372e-01	8.426618e-01	8.760015e-01	8.835536e-01	9.113078e-01	9.175429e-01	8.904596e-01	1.301909e+00	1.239711e+00	8.487731e-01	1.079714e+00	8.342164e-01	8.194794e-01	8.194632e-01	8.220149e-01	1.102228e+00	1.126843e+00	1.104575e+00	8.255982e-01	8.293114e-01	8.399270e-01	1.092476e+00	1.132597e+00	8.359065e-01	8.390726e-01	8.558003e-01	8.555521e-01	8.450890e-01	8.386143e-01	8.355564e-01	1.005960e+00	9.742101e-01	9.647842e-01	9.989518e-01	1.024804e+00	1.080667e+00	1.044020e+00	1.037187e+00	1.018797e+00	1.012576e+00	9.913078e-01	9.830595e-01	9.548949e-01	9.446680e-01	9.133490e-01	9.030914e-01	8.617637e-01	8.481819e-01	8.937430e-01	8.859510e-01	8.544422e-01	8.534212e-01	8.520903e-01	8.503247e-01	9.098773e-01	8.558068e-01	8.647641e-01	8.520680e-01	8.568891e-01	9.451138e-01	9.429816e-01	1.067888e+00	8.760799e-01	8.312500e-01	8.320064e-01	8.525230e-01	8.539088e-01	8.431831e-01	8.461101e-01	1.125808e+00	1.116069e+00	9.239516e-01	9.203517e-01	1.004533e+00	1.273820e+00	8.974588e-01	1.298242e+00	9.420815e-01	9.103915e-01	8.664677e-01	9.418042e-01	9.724782e-01	1.089583e+00	1.086701e+00	1.120204e+00	1.079004e+00	1.098085e+00	1.149111e+00	1.174372e+00	1.151628e+00	1.194975e+00	1.079878e+00	1.281351e+00	8.926914e-01	9.665306e-01	1.129607e+00	8.735548e-01	1.170214e+00	1.193362e+00	9.041862e-01	1.252772e+00	8.991291e-01	1.105995e+00	9.434685e-01	1.163168e+00	9.269748e-01	9.288625e-01	9.087283e-01	1.138805e+00	1.134052e+00	1.096290e+00	8.359191e-01	1.123096e+00	9.238732e-01	1.110209e+00	8.282432e-01	8.584143e-01	8.531109e-01	8.512380e-01	8.463333e-01	1.162972e+00	1.274670e+00	1.180638e+00	9.320404e-01	1.237060e+00	9.984651e-01	9.059097e-01	1.311960e+00	8.415938e-01	9.477042e-01	1.055166e+00	9.906180e-01	1.029078e+00	1.003526e+00	9.338129e-01	1.089269e+00	1.123408e+00	1.065479e+00	1.056872e+00	8.549455e-01	8.576047e-01	8.587962e-01	8.399169e-01	9.166231e-01	9.128218e-01	8.659355e-01	9.581640e-01	8.484445e-01	1.105224e+00	1.122328e+00	1.031153e+00	1.130042e+00	1.223623e+00	1.308307e+00	1.031638e+00	1.180640e+00	1.173888e+00	1.029460e+00	1.117812e+00	8.821571e-01	9.472178e-01	8.390760e-01	8.915989e-01	9.113130e-01	9.558586e-01	9.658098e-01	9.357376e-01	9.202743e-01	9.722817e-01	9.746082e-01	9.551375e-01	9.707331e-01	1.102195e+00	8.796148e-01	8.725219e-01	1.144988e+00	9.475966e-01	9.468853e-01	9.444196e-01	9.461184e-01	1.009885e+00	9.585758e-01	9.528008e-01	8.522591e-01	8.458039e-01	9.393173e-01	9.365449e-01	1.057555e+00	1.081878e+00	8.933454e-01	8.868261e-01	8.806485e-01	8.696346e-01	8.601028e-01	9.335221e-01	9.303475e-01	9.897078e-01	9.705334e-01	9.524560e-01	9.315217e-01	9.356135e-01	9.391318e-01	8.415303e-01	8.461421e-01	8.550972e-01	8.760867e-01	8.841932e-01	9.164231e-01	9.219172e-01	8.910247e-01	8.624776e-01	8.254700e-01	8.262942e-01	1.113799e+00	8.290769e-01	8.324246e-01	8.357824e-01	8.422890e-01	1.094818e+00	8.505347e-01	8.558483e-01	8.588678e-01	8.589955e-01	8.456168e-01	8.432137e-01	8.412448e-01	9.720471e-01	1.084782e+00	1.074785e+00	1.049046e+00	1.041935e+00	1.035414e+00	1.022856e+00	1.016675e+00	1.010270e+00	9.964460e-01	9.888413e-01	9.806824e-01	9.629478e-01	9.534512e-01	9.437175e-01	9.139438e-01	8.615707e-01	8.480890e-01	9.044473e-01	8.959948e-01	8.889018e-01	8.583223e-01	8.575825e-01	8.566065e-01	8.553129e-01	8.535686e-01	8.708864e-01	8.815993e-01	8.630562e-01	8.652413e-01	8.747969e-01	9.456667e-01	9.439309e-01	8.949156e-01	9.112952e-01	8.397296e-01	8.409197e-01	8.431627e-01	8.564562e-01	8.454312e-01	8.483834e-01	8.509578e-01	1.119442e+00	1.112995e+00	1.104543e+00	9.270491e-01	9.236787e-01	9.202066e-01	8.974555e-01	9.040196e-01	1.273251e+00	9.014906e-01	1.116938e+00	1.094729e+00	9.408792e-01	1.255134e+00	1.156724e+00	9.719031e-01	9.687071e-01	1.035117e+00	1.099227e+00	8.347436e-01	1.251048e+00	9.780864e-01	1.180775e+00	1.112696e+00	1.107272e+00	1.166487e+00	9.240219e-01	1.126166e+00	1.179299e+00	1.181696e+00	8.731138e-01	8.530653e-01	1.080480e+00	9.431601e-01	9.145268e-01	9.469785e-01	9.158855e-01	1.092592e+00	8.738219e-01	1.113524e+00	1.111944e+00	1.001608e+00	8.551665e-01	8.621899e-01	1.116868e+00	8.617806e-01	9.415164e-01	1.135101e+00	1.093945e+00	1.141502e+00	1.048672e+00	1.103974e+00	9.089604e-01	1.206924e+00	9.049943e-01	8.995213e-01	1.129189e+00	1.126669e+00	1.155001e+00	1.027031e+00	8.384165e-01	8.593470e-01	1.213088e+00	1.008708e+00	9.342704e-01	1.061803e+00	8.578046e-01	8.606135e-01	8.615532e-01	9.166945e-01	9.133662e-01	1.099323e+00	1.043991e+00	1.084371e+00	1.231702e+00	1.284705e+00	1.057234e+00	1.025393e+00	1.104291e+00	8.855858e-01	9.121085e-01	9.279566e-01	9.528431e-01	9.622262e-01	9.435359e-01	9.285241e-01	9.690361e-01	9.729660e-01	9.737892e-01	9.815486e-01	1.001543e+00	8.817928e-01	8.782428e-01	1.134817e+00	9.471834e-01	9.468260e-01	9.449826e-01	9.462496e-01	9.667069e-01	9.698601e-01	8.623613e-01	8.557577e-01	9.385585e-01	1.069883e+00	1.088665e+00	8.947623e-01	8.881223e-01	8.894869e-01	8.788663e-01	8.700628e-01	9.357736e-01	9.330728e-01	1.015230e+00	9.958030e-01	9.769323e-01	9.594684e-01	9.303322e-01	9.343068e-01	9.377480e-01	9.407262e-01	8.542399e-01	8.594413e-01	8.676017e-01	8.769148e-01	8.852226e-01	9.259783e-01	9.211059e-01	8.923156e-01	8.327005e-01	1.104750e+00	1.109571e+00	8.340607e-01	8.365882e-01	8.395316e-01	8.424927e-01	8.454240e-01	8.684649e-01	8.766703e-01	8.625189e-01	8.625856e-01	8.527612e-01	8.506885e-01	8.494020e-01	8.486846e-01	1.086871e+00	1.078373e+00	1.070006e+00	1.054084e+00	1.046956e+00	1.040349e+00	1.033200e+00	1.021614e+00	1.014577e+00	1.008239e+00	9.943215e-01	9.869844e-01	9.787893e-01	9.707220e-01	9.615773e-01	9.529713e-01	9.431172e-01	8.493972e-01	8.607521e-01	9.154860e-01	9.058747e-01	8.993104e-01	8.916168e-01	8.623664e-01	8.619039e-01	8.611507e-01	8.601612e-01	8.588882e-01	8.571958e-01	8.861529e-01	8.980410e-01	8.757355e-01	8.822444e-01	8.951241e-01	9.459358e-01	9.447407e-01	9.430013e-01	9.130555e-01	9.308852e-01	9.520512e-01	8.487462e-01	8.500197e-01	8.529473e-01	8.568791e-01	8.482791e-01	8.510716e-01	8.537644e-01	8.559394e-01	1.094942e+00	1.107981e+00	1.102295e+00	9.298721e-01	9.269979e-01	9.235251e-01	9.205031e-01	8.983917e-01	9.044037e-01	9.102017e-01	1.124211e+00	1.113754e+00	1.043993e+00	1.170068e+00	1.147144e+00	9.038785e-01	9.109679e-01	1.169504e+00	1.096610e+00	1.213001e+00	1.058709e+00	8.660665e-01	8.598845e-01	1.022908e+00	1.122121e+00	1.225967e+00	1.288010e+00	1.289547e+00	1.274396e+00	1.230239e+00	1.135677e+00	8.628601e-01	1.061860e+00	1.115978e+00	9.777546e-01	8.850424e-01	9.440830e-01	1.105122e+00	1.087728e+00	1.102205e+00	8.667427e-01	8.484064e-01	9.295440e-01	9.960688e-01	8.418518e-01	9.412765e-01	8.606467e-01	1.099775e+00	9.237267e-01	1.156214e+00	1.095429e+00	1.284191e+00	1.176896e+00	1.168938e+00	9.752912e-01	1.039116e+00	1.248333e+00	9.946597e-01	1.191746e+00	1.105125e+00	1.155505e+00	1.170732e+00	1.171528e+00	1.102069e+00	9.250600e-01	9.206619e-01	1.096361e+00	8.863948e-01	1.104637e+00	1.105403e+00	9.119993e-01	1.192268e+00	8.636132e-01	8.652144e-01	8.654148e-01	9.190736e-01	1.053642e+00	1.087241e+00	1.259593e+00	1.080785e+00	9.299672e-01	9.406476e-01	9.516857e-01	9.603980e-01	9.372347e-01	9.522641e-01	9.676750e-01	9.723304e-01	9.750926e-01	9.762716e-01	1.006873e+00	1.025249e+00	8.889647e-01	1.124458e+00	9.467454e-01	9.466785e-01	9.453504e-01	9.461631e-01	9.819790e-01	9.915328e-01	8.726950e-01	8.655995e-01	1.078399e+00	1.093011e+00	8.964141e-01	8.989577e-01	8.876966e-01	8.818461e-01	9.366960e-01	1.020373e+00	1.001717e+00	9.836735e-01	9.677936e-01	9.293875e-01	9.331433e-01	9.365628e-01	9.395353e-01	9.419592e-01	8.656770e-01	8.716892e-01	8.775951e-01	8.859740e-01	8.928798e-01	1.099089e+00	1.101891e+00	1.104115e+00	8.396727e-01	8.423757e-01	8.435993e-01	8.470546e-01	8.487893e-01	8.816507e-01	8.911302e-01	8.665097e-01	8.662103e-01	8.572609e-01	8.575255e-01	8.576588e-01	1.079900e+00	1.073152e+00	1.065378e+00	1.058361e+00	1.051189e+00	1.044666e+00	1.037726e+00	1.028281e+00	1.019709e+00	1.009233e+00	9.813199e-01	9.651672e-01	9.477431e-01	9.126377e-01	8.989942e-01	8.668223e-01	8.659935e-01	8.661315e-01	8.647240e-01	8.645853e-01	8.632707e-01	8.616958e-01	9.021690e-01	9.147075e-01	8.905875e-01	8.984973e-01	9.142811e-01	9.460403e-01	9.444672e-01	9.302267e-01	9.491898e-01	9.702123e-01	8.584329e-01	8.602372e-01	8.635807e-01	8.690287e-01	8.749253e-01	8.520826e-01	8.537891e-01	8.568269e-01	8.594520e-01	1.098700e+00	1.092510e+00	9.312983e-01	9.254319e-01	8.996792e-01	9.049903e-01	9.107629e-01	9.155271e-01	1.163112e+00	1.143326e+00	1.158527e+00	1.245433e+00	1.174414e+00	1.070844e+00	1.099475e+00	1.174482e+00	1.098210e+00	1.137593e+00	1.095783e+00	1.237625e+00	1.060193e+00	1.138871e+00	8.652110e-01	1.171137e+00	1.060283e+00	1.145057e+00	1.118915e+00	1.056780e+00	9.431449e-01	1.096869e+00	9.265653e-01	9.912876e-01	9.832665e-01	9.299680e-01	9.205672e-01	8.772613e-01	1.210546e+00	9.450803e-01	9.474464e-01	9.341820e-01	8.650323e-01	1.095901e+00	1.082402e+00	1.202379e+00	1.033514e+00	1.042046e+00	1.162750e+00	1.095727e+00	1.285247e+00	1.225689e+00	1.106217e+00	9.048755e-01	8.529296e-01	8.481546e-01	1.103641e+00	1.167254e+00	1.118849e+00	1.262343e+00	1.171698e+00	1.042734e+00	1.195287e+00	1.177506e+00	8.834407e-01	1.079659e+00	1.098105e+00	1.095821e+00	8.650752e-01	8.678736e-01	8.696479e-01	9.115597e-01	1.088465e+00	1.117204e+00	1.099904e+00	9.470677e-01	9.633300e-01	9.608130e-01	9.748561e-01	9.802989e-01	1.026951e+00	1.115232e+00	9.463095e-01	1.000432e+00	1.012504e+00	8.804166e-01	1.083891e+00	8.989059e-01	8.954337e-01	9.040321e-01	8.920090e-01	9.397127e-01	1.025223e+00	1.006680e+00	9.896630e-01	9.779228e-01	9.338392e-01	9.396129e-01	9.431776e-01	8.839026e-01	8.965864e-01	1.096779e+00	1.097750e+00	8.503327e-01	8.544688e-01	9.056889e-01	8.705930e-01	8.666916e-01	1.015636e+00	1.070676e+00	1.057550e+00	1.044884e+00	1.034093e+00	1.025054e+00	1.004085e+00	9.907533e-01	9.761418e-01	9.603587e-01	9.433437e-01	9.265045e-01	9.123381e-01	8.996961e-01	8.706783e-01	8.699510e-01	8.693965e-01	8.673113e-01	8.668864e-01	9.183998e-01	9.316432e-01	8.984537e-01	9.105163e-01	9.311905e-01	9.462661e-01	9.452127e-01	9.468483e-01	9.655412e-01	9.864053e-01	1.008596e+00	8.686662e-01	8.710112e-01	8.747804e-01	8.808647e-01	8.893556e-01	8.940868e-01	8.585673e-01	8.626855e-01	1.094918e+00	1.090164e+00	9.351503e-01	9.243770e-01	9.182884e-01	9.085820e-01	9.182121e-01	1.108273e+00	1.162007e+00	1.157771e+00	1.125561e+00	1.004724e+00	1.101597e+00	1.167404e+00	1.131651e+00	1.164362e+00	1.113951e+00	1.144415e+00	1.121960e+00	1.088422e+00	1.182364e+00	1.216934e+00	1.093328e+00	9.076633e-01	8.686722e-01	1.114997e+00	9.825528e-01	1.078619e+00	9.142961e-01	1.064934e+00	1.148191e+00	9.442878e-01	1.006811e+00	9.290814e-01	9.419976e-01	1.065725e+00	1.076998e+00	1.061548e+00	1.046497e+00	1.163972e+00	1.095779e+00	1.098038e+00	1.092593e+00	8.732886e-01	8.986815e-01	9.181777e-01	9.686458e-01	1.140107e+00	1.147810e+00	1.261455e+00	1.053764e+00	1.092988e+00	1.168953e+00	1.087698e+00	1.159390e+00	1.130932e+00	9.444220e-01	1.205361e+00	9.588061e-01	9.432551e-01	1.094384e+00	1.221862e+00	1.041549e+00	1.097513e+00	9.125146e-01	1.238758e+00	1.170553e+00	9.845367e-01	1.192744e+00	1.179255e+00	8.669853e-01	1.096553e+00	1.090861e+00	8.819859e-01	8.711645e-01	9.126336e-01	1.112171e+00	1.135488e+00	9.609110e-01	9.734428e-01	9.885096e-01	9.962283e-01	1.107175e+00	9.457154e-01	1.017633e+00	1.029248e+00	9.418065e-01	9.157000e-01	9.312931e-01	9.049568e-01	9.282913e-01	9.135157e-01	9.007465e-01	1.028600e+00	9.317550e-01	9.375902e-01	8.916741e-01	8.898150e-01	9.238117e-01	1.093665e+00	8.581939e-01	8.563544e-01	8.757566e-01	1.073160e+00	1.062123e+00	1.021208e+00	1.050471e+00	1.039694e+00	1.030248e+00	1.011040e+00	9.991141e-01	9.858537e-01	9.715892e-01	9.561524e-01	9.400238e-01	9.253260e-01	8.747519e-01	8.755735e-01	8.757700e-01	8.753620e-01	8.735689e-01	8.739118e-01	9.335749e-01	9.482318e-01	9.068190e-01	9.471281e-01	9.462835e-01	9.458023e-01	9.628185e-01	9.800884e-01	1.000029e+00	1.020335e+00	1.041950e+00	8.796456e-01	8.835873e-01	8.872550e-01	8.930193e-01	9.019567e-01	8.587119e-01	8.621196e-01	8.656470e-01	1.088190e+00	1.081923e+00	9.384217e-01	9.339854e-01	8.961929e-01	9.068748e-01	9.168713e-01	9.248774e-01	1.142910e+00	1.150132e+00	1.147516e+00	1.110656e+00	1.145990e+00	1.129013e+00	1.106945e+00	1.021276e+00	1.166485e+00	1.114855e+00	1.111636e+00	1.051538e+00	1.157991e+00	1.089140e+00	8.789899e-01	1.133389e+00	1.137533e+00	1.108297e+00	1.162670e+00	1.068190e+00	9.108464e-01	1.007577e+00	9.914616e-01	9.139994e-01	1.128950e+00	1.122340e+00	1.118641e+00	1.166731e+00	1.151970e+00	8.984063e-01	9.