# vtk DataFile Version 3.0
vtk output
ASCII
DATASET UNSTRUCTURED_GRID
POINTS 200 float
9.997500e-01	-3.633567e-05	0.0	9.990000e-01	-1.456766e-04	0.0	9.977600e-01	-3.297401e-04	0.0	9.960200e-01	-6.019186e-04	0.0	9.937800e-01	-9.900673e-04	0.0	9.910500e-01	-1.539445e-03	0.0	9.878400e-01	-2.307745e-03	0.0	9.841300e-01	-3.355756e-03	0.0	9.799500e-01	-4.699161e-03	0.0	9.752800e-01	-6.311306e-03	0.0	9.701500e-01	-8.084271e-03	0.0	9.645400e-01	-9.881396e-03	0.0	9.584700e-01	-1.154883e-02	0.0	9.519400e-01	-1.298353e-02	0.0	9.449600e-01	-1.415581e-02	0.0	9.375400e-01	-1.511474e-02	0.0	9.296900e-01	-1.596247e-02	0.0	9.214000e-01	-1.681743e-02	0.0	9.127000e-01	-1.777342e-02	0.0	9.035800e-01	-1.888736e-02	0.0	8.940600e-01	-2.016730e-02	0.0	8.841500e-01	-2.158492e-02	0.0	8.738500e-01	-2.309013e-02	0.0	8.631800e-01	-2.462129e-02	0.0	8.521600e-01	-2.611993e-02	0.0	8.407700e-01	-2.754343e-02	0.0	8.290500e-01	-2.885543e-02	0.0	8.170100e-01	-3.003839e-02	0.0	8.046400e-01	-3.108921e-02	0.0	7.919700e-01	-3.201116e-02	0.0	7.790100e-01	-3.281634e-02	0.0	7.657800e-01	-3.351995e-02	0.0	7.522800e-01	-3.413922e-02	0.0	7.385200e-01	-3.468963e-02	0.0	7.245300e-01	-3.518363e-02	0.0	7.103200e-01	-3.563158e-02	0.0	6.958900e-01	-3.604104e-02	0.0	6.812700e-01	-3.641611e-02	0.0	6.664700e-01	-3.675960e-02	0.0	6.515000e-01	-3.707317e-02	0.0	6.363800e-01	-3.735797e-02	0.0	6.211300e-01	-3.761552e-02	0.0	6.057600e-01	-3.784834e-02	0.0	5.902800e-01	-3.805997e-02	0.0	5.747100e-01	-3.825495e-02	0.0	5.590600e-01	-3.843888e-02	0.0	5.433600e-01	-3.861781e-02	0.0	5.276100e-01	-3.879840e-02	0.0	5.118400e-01	-3.898678e-02	0.0	4.960500e-01	-3.918882e-02	0.0	4.802700e-01	-3.940902e-02	0.0	4.645100e-01	-3.965078e-02	0.0	4.487800e-01	-3.991602e-02	0.0	4.331100e-01	-4.020458e-02	0.0	4.175000e-01	-4.051517e-02	0.0	4.019700e-01	-4.084447e-02	0.0	3.865400e-01	-4.118765e-02	0.0	3.712300e-01	-4.153854e-02	0.0	3.560400e-01	-4.189038e-02	0.0	3.409900e-01	-4.223513e-02	0.0	3.261100e-01	-4.256396e-02	0.0	3.114000e-01	-4.286844e-02	0.0	2.968700e-01	-4.313980e-02	0.0	2.825500e-01	-4.336903e-02	0.0	2.684500e-01	-4.354785e-02	0.0	2.545700e-01	-4.366840e-02	0.0	2.409400e-01	-4.372306e-02	0.0	2.275700e-01	-4.370505e-02	0.0	2.144700e-01	-4.360812e-02	0.0	2.016600e-01	-4.342679e-02	0.0	1.891400e-01	-4.315595e-02	0.0	1.769300e-01	-4.279142e-02	0.0	1.650400e-01	-4.232949e-02	0.0	1.534900e-01	-4.176757e-02	0.0	1.422900e-01	-4.110347e-02	0.0	1.314400e-01	-4.033490e-02	0.0	1.209500e-01	-3.946063e-02	0.0	1.108500e-01	-3.848222e-02	0.0	1.011300e-01	-3.739841e-02	0.0	9.181000e-02	-3.621167e-02	0.0	8.290000e-02	-3.492454e-02	0.0	7.440000e-02	-3.353888e-02	0.0	6.633000e-02	-3.206074e-02	0.0	5.869000e-02	-3.049388e-02	0.0	5.149000e-02	-2.884481e-02	0.0	4.474000e-02	-2.712128e-02	0.0	3.844000e-02	-2.532938e-02	0.0	3.260000e-02	-2.347856e-02	0.0	2.723000e-02	-2.157949e-02	0.0	2.232000e-02	-1.963571e-02	0.0	1.790000e-02	-1.766677e-02	0.0	1.395000e-02	-1.567090e-02	0.0	1.049000e-02	-1.366358e-02	0.0	7.520000e-03	-1.164962e-02	0.0	5.040000e-03	-9.629988e-03	0.0	3.050000e-03	-7.599013e-03	0.0	1.560000e-03	-5.554508e-03	0.0	5.600000e-04	-3.448955e-03	0.0	6.000000e-05	-1.209949e-03	0.0	0.000000e+00	0.000000e+00	0.0	6.000000e-05	1.165983e-03	0.0	5.600000e-04	3.217605e-03	0.0	1.560000e-03	5.046258e-03	0.0	3.050000e-03	6.742078e-03	0.0	5.040000e-03	8.361103e-03	0.0	7.520000e-03	9.917876e-03	0.0	1.049000e-02	1.142808e-02	0.0	1.395000e-02	1.290097e-02	0.0	1.790000e-02	1.434211e-02	0.0	2.232000e-02	1.574881e-02	0.0	2.723000e-02	1.713017e-02	0.0	3.260000e-02	1.847954e-02	0.0	3.844000e-02	1.980114e-02	0.0	4.474000e-02	2.109361e-02	0.0	5.149000e-02	2.235585e-02	0.0	5.869000e-02	2.358863e-02	0.0	6.633000e-02	2.479093e-02	0.0	7.440000e-02	2.596202e-02	0.0	8.290000e-02	2.710269e-02	0.0	9.181000e-02	2.821122e-02	0.0	1.011300e-01	2.928867e-02	0.0	1.108500e-01	3.033495e-02	0.0	1.209500e-01	3.134914e-02	0.0	1.314400e-01	3.233345e-02	0.0	1.422900e-01	3.328628e-02	0.0	1.534900e-01	3.420817e-02	0.0	1.650400e-01	3.510037e-02	0.0	1.769300e-01	3.596322e-02	0.0	1.891400e-01	3.679634e-02	0.0	2.016600e-01	3.760003e-02	0.0	2.144700e-01	3.837381e-02	0.0	2.275700e-01	3.911824e-02	0.0	2.409400e-01	3.983242e-02	0.0	2.545700e-01	4.051574e-02	0.0	2.684500e-01	4.116722e-02	0.0	2.825500e-01	4.178461e-02	0.0	2.968700e-01	4.236660e-02	0.0	3.114000e-01	4.291094e-02	0.0	3.261100e-01	4.341421e-02	0.0	3.409900e-01	4.387335e-02	0.0	3.560400e-01	4.428508e-02	0.0	3.712300e-01	4.464488e-02	0.0	3.865400e-01	4.494833e-02	0.0	4.019700e-01	4.519109e-02	0.0	4.175000e-01	4.536825e-02	0.0	4.331100e-01	4.547487e-02	0.0	4.487800e-01	4.550611e-02	0.0	4.645100e-01	4.545717e-02	0.0	4.802700e-01	4.532340e-02	0.0	4.960500e-01	4.510033e-02	0.0	5.118400e-01	4.478361e-02	0.0	5.276100e-01	4.436963e-02	0.0	5.433600e-01	4.385449e-02	0.0	5.590600e-01	4.323560e-02	0.0	5.747100e-01	4.250994e-02	0.0	5.902800e-01	4.167656e-02	0.0	6.057600e-01	4.073476e-02	0.0	6.211300e-01	3.968577e-02	0.0	6.363800e-01	3.853194e-02	0.0	6.515000e-01	3.727756e-02	0.0	6.664700e-01	3.593003e-02	0.0	6.812700e-01	3.449944e-02	0.0	6.958900e-01	3.299739e-02	0.0	7.103200e-01	3.143751e-02	0.0	7.245300e-01	2.983719e-02	0.0	7.385200e-01	2.821115e-02	0.0	7.522800e-01	2.657470e-02	0.0	7.657800e-01	2.494392e-02	0.0	7.790100e-01	2.332979e-02	0.0	7.919700e-01	2.173853e-02	0.0	8.046400e-01	2.017491e-02	0.0	8.170100e-01	1.863872e-02	0.0	8.290500e-01	1.712919e-02	0.0	8.407700e-01	1.563835e-02	0.0	8.521600e-01	1.415936e-02	0.0	8.631800e-01	1.268876e-02	0.0	8.738500e-01	1.121509e-02	0.0	8.841500e-01	9.732896e-03	0.0	8.940600e-01	8.239748e-03	0.0	9.035800e-01	6.737241e-03	0.0	9.127000e-01	5.241907e-03	0.0	9.214000e-01	3.792827e-03	0.0	9.296900e-01	2.449338e-03	0.0	9.375400e-01	1.298592e-03	0.0	9.449600e-01	4.270248e-04	0.0	9.519400e-01	-9.663583e-05	0.0	9.584700e-01	-2.543264e-04	0.0	9.645400e-01	-9.682023e-05	0.0	9.701500e-01	2.627950e-04	0.0	9.752800e-01	6.783850e-04	0.0	9.799500e-01	1.018743e-03	0.0	9.841300e-01	1.197864e-03	0.0	9.878400e-01	1.196092e-03	0.0	9.910500e-01	1.046808e-03	0.0	9.937800e-01	8.108982e-04	0.0	9.960200e-01	5.521544e-04	0.0	9.977600e-01	3.205025e-04	0.0	9.990000e-01	1.448331e-04	0.0	9.997500e-01	3.632230e-05	0.0	1.000000e+00	0.000000e+00	0.0	
CELLS 200	600
2	199	0	2	0	1	2	1	2	2	2	3	2	3	4	2	4	5	2	5	6	2	6	7	2	7	8	2	8	9	2	9	10	2	10	11	2	11	12	2	12	13	2	13	14	2	14	15	2	15	16	2	16	17	2	17	18	2	18	19	2	19	20	2	20	21	2	21	22	2	22	23	2	23	24	2	24	25	2	25	26	2	26	27	2	27	28	2	28	29	2	29	30	2	30	31	2	31	32	2	32	33	2	33	34	2	34	35	2	35	36	2	36	37	2	37	38	2	38	39	2	39	40	2	40	41	2	41	42	2	42	43	2	43	44	2	44	45	2	45	46	2	46	47	2	47	48	2	48	49	2	49	50	2	50	51	2	51	52	2	52	53	2	53	54	2	54	55	2	55	56	2	56	57	2	57	58	2	58	59	2	59	60	2	60	61	2	61	62	2	62	63	2	63	64	2	64	65	2	65	66	2	66	67	2	67	68	2	68	69	2	69	70	2	70	71	2	71	72	2	72	73	2	73	74	2	74	75	2	75	76	2	76	77	2	77	78	2	78	79	2	79	80	2	80	81	2	81	82	2	82	83	2	83	84	2	84	85	2	85	86	2	86	87	2	87	88	2	88	89	2	89	90	2	90	91	2	91	92	2	92	93	2	93	94	2	94	95	2	95	96	2	96	97	2	97	98	2	98	99	2	99	100	2	100	101	2	101	102	2	102	103	2	103	104	2	104	105	2	105	106	2	106	107	2	107	108	2	108	109	2	109	110	2	110	111	2	111	112	2	112	113	2	113	114	2	114	115	2	115	116	2	116	117	2	117	118	2	118	119	2	119	120	2	120	121	2	121	122	2	122	123	2	123	124	2	124	125	2	125	126	2	126	127	2	127	128	2	128	129	2	129	130	2	130	131	2	131	132	2	132	133	2	133	134	2	134	135	2	135	136	2	136	137	2	137	138	2	138	139	2	139	140	2	140	141	2	141	142	2	142	143	2	143	144	2	144	145	2	145	146	2	146	147	2	147	148	2	148	149	2	149	150	2	150	151	2	151	152	2	152	153	2	153	154	2	154	155	2	155	156	2	156	157	2	157	158	2	158	159	2	159	160	2	160	161	2	161	162	2	162	163	2	163	164	2	164	165	2	165	166	2	166	167	2	167	168	2	168	169	2	169	170	2	170	171	2	171	172	2	172	173	2	173	174	2	174	175	2	175	176	2	176	177	2	177	178	2	178	179	2	179	180	2	180	181	2	181	182	2	182	183	2	183	184	2	184	185	2	185	186	2	186	187	2	187	188	2	188	189	2	189	190	2	190	191	2	191	192	2	192	193	2	193	194	2	194	195	2	195	196	2	196	197	2	197	198	2	198	199	
CELL_TYPES 200
3	3	3	3	3	3	3	3	3	3	3	3	3	3	3	3	3	3	3	3	3	3	3	3	3	3	3	3	3	3	3	3	3	3	3	3	3	3	3	3	3	3	3	3	3	3	3	3	3	3	3	3	3	3	3	3	3	3	3	3	3	3	3	3	3	3	3	3	3	3	3	3	3	3	3	3	3	3	3	3	3	3	3	3	3	3	3	3	3	3	3	3	3	3	3	3	3	3	3	3	3	3	3	3	3	3	3	3	3	3	3	3	3	3	3	3	3	3	3	3	3	3	3	3	3	3	3	3	3	3	3	3	3	3	3	3	3	3	3	3	3	3	3	3	3	3	3	3	3	3	3	3	3	3	3	3	3	3	3	3	3	3	3	3	3	3	3	3	3	3	3	3	3	3	3	3	3	3	3	3	3	3	3	3	3	3	3	3	3	3	3	3	3	3	3	3	3	3	3	3	
POINT_DATA 200

SCALARS Conservative_1 float 1
LOOKUP_TABLE default
1.194908e+00	1.179154e+00	1.172170e+00	1.169544e+00	1.168223e+00	1.165352e+00	1.157037e+00	1.140441e+00	1.113038e+00	1.074313e+00	1.024612e+00	9.626693e-01	9.066213e-01	8.845179e-01	8.954423e-01	9.232712e-01	9.533870e-01	9.754432e-01	9.862559e-01	9.866612e-01	9.783726e-01	9.635571e-01	9.446090e-01	9.233595e-01	8.996896e-01	8.736576e-01	8.503314e-01	8.363213e-01	8.333152e-01	8.385601e-01	8.481960e-01	8.591957e-01	8.698693e-01	8.793117e-01	8.873820e-01	8.941653e-01	8.998969e-01	9.048588e-01	9.092667e-01	9.133795e-01	9.173329e-01	9.212637e-01	9.251896e-01	9.291184e-01	9.329683e-01	9.366644e-01	9.400842e-01	9.431331e-01	9.456951e-01	9.476878e-01	9.490180e-01	9.496357e-01	9.494903e-01	9.485650e-01	9.468446e-01	9.443381e-01	9.410573e-01	9.370334e-01	9.323090e-01	9.269316e-01	9.209753e-01	9.144530e-01	9.073586e-01	8.996592e-01	8.915853e-01	8.835112e-01	8.755909e-01	8.670481e-01	8.564911e-01	8.432527e-01	8.295507e-01	8.191213e-01	8.140707e-01	8.138905e-01	8.170903e-01	8.223598e-01	8.292217e-01	8.375681e-01	8.472500e-01	8.581753e-01	8.703618e-01	8.837750e-01	8.984780e-01	9.144690e-01	9.318093e-01	9.506090e-01	9.709014e-01	9.928177e-01	1.016583e+00	1.042280e+00	1.070283e+00	1.101102e+00	1.135104e+00	1.173168e+00	1.215716e+00	1.262021e+00	1.307437e+00	1.347984e+00	1.348001e+00	1.321569e+00	1.296589e+00	1.222690e+00	1.088571e+00	9.925942e-01	9.285552e-01	8.889542e-01	8.651380e-01	8.500719e-01	8.397135e-01	8.322802e-01	8.268111e-01	8.226432e-01	8.195303e-01	8.171375e-01	8.153879e-01	8.143376e-01	8.138567e-01	8.138102e-01	8.141991e-01	8.151581e-01	8.169811e-01	8.198345e-01	8.235667e-01	8.277519e-01	8.319615e-01	8.359192e-01	8.394375e-01	8.423603e-01	8.446479e-01	8.464122e-01	8.477897e-01	8.488445e-01	8.495516e-01	8.498540e-01	8.497189e-01	8.491276e-01	8.480907e-01	8.466161e-01	8.447077e-01	8.423730e-01	8.395996e-01	8.363832e-01	8.327873e-01	8.289382e-01	8.249347e-01	8.208102e-01	8.165521e-01	8.124337e-01	8.092703e-01	8.087927e-01	8.130901e-01	8.232443e-01	8.373384e-01	8.509501e-01	8.609937e-01	8.682304e-01	8.750064e-01	8.830769e-01	8.928951e-01	9.038388e-01	9.151752e-01	9.266112e-01	9.380809e-01	9.494687e-01	9.605166e-01	9.710319e-01	9.808235e-01	9.898028e-01	9.978752e-01	1.005118e+00	1.011602e+00	1.017500e+00	1.023053e+00	1.028523e+00	1.034213e+00	1.040451e+00	1.047613e+00	1.056183e+00	1.066663e+00	1.079558e+00	1.094965e+00	1.112356e+00	1.130266e+00	1.146693e+00	1.159287e+00	1.165742e+00	1.164040e+00	1.152876e+00	1.132109e+00	1.104087e+00	1.075019e+00	1.052683e+00	1.044527e+00	1.053658e+00	1.075738e+00	1.102842e+00	1.129823e+00	1.156222e+00	1.184516e+00	1.174613e+00	
SCALARS Conservative_2 float 1
LOOKUP_TABLE default
7.156525e-01	7.376899e-01	7.504425e-01	7.550322e-01	7.546975e-01	7.547880e-01	7.588129e-01	7.711152e-01	7.942310e-01	8.280166e-01	8.691039e-01	9.104075e-01	9.416146e-01	9.619505e-01	9.712533e-01	9.690432e-01	9.607814e-01	9.517286e-01	9.449331e-01	9.425497e-01	9.446081e-01	9.499236e-01	9.567595e-01	9.637570e-01	9.700437e-01	9.746649e-01	9.768900e-01	9.778048e-01	9.784140e-01	9.789912e-01	9.794405e-01	9.795616e-01	9.794490e-01	9.789845e-01	9.783688e-01	9.776332e-01	9.768843e-01	9.761712e-01	9.754106e-01	9.746632e-01	9.738443e-01	9.729935e-01	9.720531e-01	9.710736e-01	9.700339e-01	9.690019e-01	9.679826e-01	9.670536e-01	9.662314e-01	9.655832e-01	9.651216e-01	9.649093e-01	9.649405e-01	9.652399e-01	9.657940e-01	9.666031e-01	9.676305e-01	9.688513e-01	9.702157e-01	9.716660e-01	9.731779e-01	9.746771e-01	9.761731e-01	9.775638e-01	9.787983e-01	9.797057e-01	9.803734e-01	9.808758e-01	9.813808e-01	9.814999e-01	9.808737e-01	9.796802e-01	9.786506e-01	9.779016e-01	9.774643e-01	9.769754e-01	9.764094e-01	9.755632e-01	9.741286e-01	9.719407e-01	9.688901e-01	9.646598e-01	9.590306e-01	9.516298e-01	9.420560e-01	9.297742e-01	9.141470e-01	8.945096e-01	8.698326e-01	8.386746e-01	7.993101e-01	7.492203e-01	6.845415e-01	6.008569e-01	4.920692e-01	3.542612e-01	1.976659e-01	5.392906e-02	-1.066613e-02	6.918200e-03	7.783149e-02	2.415990e-01	4.702857e-01	6.456642e-01	7.589114e-01	8.295446e-01	8.730674e-01	9.008995e-01	9.191374e-01	9.317048e-01	9.407209e-01	9.473058e-01	9.523560e-01	9.563089e-01	9.594589e-01	9.620683e-01	9.642113e-01	9.660016e-01	9.676029e-01	9.690457e-01	9.703983e-01	9.716706e-01	9.728168e-01	9.737738e-01	9.745771e-01	9.752567e-01	9.758301e-01	9.763063e-01	9.767122e-01	9.770694e-01	9.773915e-01	9.776743e-01	9.779295e-01	9.781524e-01	9.783613e-01	9.785477e-01	9.787215e-01	9.788716e-01	9.789854e-01	9.790712e-01	9.791161e-01	9.791017e-01	9.790197e-01	9.788750e-01	9.786447e-01	9.783492e-01	9.779765e-01	9.776530e-01	9.774570e-01	9.776722e-01	9.784624e-01	9.796088e-01	9.802287e-01	9.799886e-01	9.793404e-01	9.787223e-01	9.780749e-01	9.770755e-01	9.755282e-01	9.733631e-01	9.706336e-01	9.674088e-01	9.637142e-01	9.596160e-01	9.552177e-01	9.506656e-01	9.460964e-01	9.416669e-01	9.373847e-01	9.333865e-01	9.296066e-01	9.259463e-01	9.223038e-01	9.184864e-01	9.142551e-01	9.093256e-01	9.032844e-01	8.956343e-01	8.856494e-01	8.727166e-01	8.564038e-01	8.371430e-01	8.165159e-01	7.975357e-01	7.838654e-01	7.789925e-01	7.853249e-01	8.033742e-01	8.308779e-01	8.629537e-01	8.919545e-01	9.096725e-01	9.119277e-01	9.001748e-01	8.774610e-01	8.479171e-01	8.139918e-01	7.759187e-01	7.325724e-01	6.650107e-01	
SCALARS Conservative_3 float 1
LOOKUP_TABLE default
1.015199e-01	1.065176e-01	1.139279e-01	1.243787e-01	1.416162e-01	1.667064e-01	1.984396e-01	2.329861e-01	2.644457e-01	2.848444e-01	2.874228e-01	2.707710e-01	2.329274e-01	1.855502e-01	1.434016e-01	1.138398e-01	1.003191e-01	1.007470e-01	1.092985e-01	1.206812e-01	1.308503e-01	1.371908e-01	1.383475e-01	1.342467e-01	1.262501e-01	1.159916e-01	1.038369e-01	9.068355e-02	7.787889e-02	6.632019e-02	5.645572e-02	4.830844e-02	4.179274e-02	3.663714e-02	3.251412e-02	2.914824e-02	2.630160e-02	2.379225e-02	2.150350e-02	1.937050e-02	1.738297e-02	1.557120e-02	1.398485e-02	1.268502e-02	1.172944e-02	1.116080e-02	1.100204e-02	1.124892e-02	1.187903e-02	1.283786e-02	1.406231e-02	1.546294e-02	1.695164e-02	1.842620e-02	1.978911e-02	2.094472e-02	2.180542e-02	2.228823e-02	2.232707e-02	2.185537e-02	2.081914e-02	1.918126e-02	1.693327e-02	1.408221e-02	1.059559e-02	6.360502e-03	1.277043e-03	-4.565214e-03	-1.083987e-02	-1.732740e-02	-2.446492e-02	-3.268262e-02	-4.197045e-02	-5.212612e-02	-6.308568e-02	-7.486090e-02	-8.757827e-02	-1.012717e-01	-1.159765e-01	-1.317668e-01	-1.486795e-01	-1.667328e-01	-1.859767e-01	-2.064126e-01	-2.280347e-01	-2.508444e-01	-2.748353e-01	-2.999581e-01	-3.260417e-01	-3.529072e-01	-3.801670e-01	-4.067428e-01	-4.307811e-01	-4.480876e-01	-4.494876e-01	-4.181936e-01	-3.277835e-01	-1.513285e-01	9.101187e-02	2.866358e-01	4.675379e-01	6.546004e-01	6.963237e-01	6.344730e-01	5.475686e-01	4.682997e-01	4.040402e-01	3.526743e-01	3.113014e-01	2.772303e-01	2.489116e-01	2.249367e-01	2.044091e-01	1.866360e-01	1.710914e-01	1.574034e-01	1.452747e-01	1.344248e-01	1.246751e-01	1.158601e-01	1.078824e-01	1.006840e-01	9.417384e-02	8.823781e-02	8.277687e-02	7.772104e-02	7.304673e-02	6.869949e-02	6.463830e-02	6.082446e-02	5.723849e-02	5.384556e-02	5.060359e-02	4.745930e-02	4.437512e-02	4.130809e-02	3.822538e-02	3.508895e-02	3.186294e-02	2.851509e-02	2.501048e-02	2.132097e-02	1.741275e-02	1.327698e-02	8.910292e-03	4.300159e-03	-5.894978e-04	-5.816202e-03	-1.141245e-02	-1.738006e-02	-2.353696e-02	-2.964384e-02	-3.548697e-02	-4.156716e-02	-4.842692e-02	-5.584991e-02	-6.334130e-02	-7.062084e-02	-7.761473e-02	-8.431819e-02	-9.066551e-02	-9.652100e-02	-1.016538e-01	-1.059495e-01	-1.093158e-01	-1.117878e-01	-1.133985e-01	-1.143086e-01	-1.147178e-01	-1.148851e-01	-1.150758e-01	-1.155384e-01	-1.164845e-01	-1.180623e-01	-1.203670e-01	-1.234643e-01	-1.273370e-01	-1.318282e-01	-1.364606e-01	-1.401911e-01	-1.412454e-01	-1.372490e-01	-1.257534e-01	-1.052179e-01	-7.563659e-02	-3.911490e-02	6.935586e-06	3.546469e-02	5.983119e-02	6.638874e-02	5.200436e-02	2.021972e-02	-2.012544e-02	-5.861048e-02	-8.719599e-02	-1.032648e-01	-1.092852e-01	-1.071129e-01	-1.008153e-01	4.108577e-03	
SCALARS Conservative_4 float 1
LOOKUP_TABLE default
3.432119e+00	3.392533e+00	3.375750e+00	3.369651e+00	3.366505e+00	3.359552e+00	3.338813e+00	3.297343e+00	3.228718e+00	3.131535e+00	3.006251e+00	2.848617e+00	2.704941e+00	2.649364e+00	2.678937e+00	2.750939e+00	2.828390e+00	2.884904e+00	2.912319e+00	2.913135e+00	2.891810e+00	2.853816e+00	2.805142e+00	2.750377e+00	2.689081e+00	2.621261e+00	2.560083e+00	2.523159e+00	2.515110e+00	2.528776e+00	2.554030e+00	2.582872e+00	2.610876e+00	2.635596e+00	2.656696e+00	2.674392e+00	2.689324e+00	2.702246e+00	2.713697e+00	2.724380e+00	2.734628e+00	2.744817e+00	2.754975e+00	2.765139e+00	2.775085e+00	2.784632e+00	2.793454e+00	2.801320e+00	2.807924e+00	2.813061e+00	2.816486e+00	2.818082e+00	2.817709e+00	2.815332e+00	2.810904e+00	2.804453e+00	2.796002e+00	2.785628e+00	2.773437e+00	2.759541e+00	2.744135e+00	2.727236e+00	2.708837e+00	2.688826e+00	2.667806e+00	2.646715e+00	2.625991e+00	2.603611e+00	2.575975e+00	2.541236e+00	2.505132e+00	2.477506e+00	2.464070e+00	2.463510e+00	2.471945e+00	2.485847e+00	2.503983e+00	2.526029e+00	2.551524e+00	2.580211e+00	2.612141e+00	2.647171e+00	2.685456e+00	2.726941e+00	2.771745e+00	2.820099e+00	2.872026e+00	2.927838e+00	2.988038e+00	3.052720e+00	3.122781e+00	3.199413e+00	3.283338e+00	3.376761e+00	3.480529e+00	3.592918e+00	3.702997e+00	3.804068e+00	3.802270e+00	3.735726e+00	3.681149e+00	3.504885e+00	3.162439e+00	2.917064e+00	2.753275e+00	2.652691e+00	2.592523e+00	2.554511e+00	2.528214e+00	2.509234e+00	2.495226e+00	2.484487e+00	2.476470e+00	2.470311e+00	2.465816e+00	2.463160e+00	2.461982e+00	2.461935e+00	2.463052e+00	2.465678e+00	2.470593e+00	2.478228e+00	2.488166e+00	2.499265e+00	2.510410e+00	2.520880e+00	2.530187e+00	2.537917e+00	2.543971e+00	2.548645e+00	2.552302e+00	2.555105e+00	2.556992e+00	2.557809e+00	2.557474e+00	2.555936e+00	2.553226e+00	2.549359e+00	2.544345e+00	2.538205e+00	2.530904e+00	2.522428e+00	2.512941e+00	2.502779e+00	2.492196e+00	2.481287e+00	2.470018e+00	2.459146e+00	2.450832e+00	2.449689e+00	2.461231e+00	2.488236e+00	2.525448e+00	2.561208e+00	2.587538e+00	2.606544e+00	2.624367e+00	2.645534e+00	2.671197e+00	2.699708e+00	2.729153e+00	2.758777e+00	2.788409e+00	2.817755e+00	2.846153e+00	2.873121e+00	2.898178e+00	2.921124e+00	2.941699e+00	2.960146e+00	2.976636e+00	2.991612e+00	3.005699e+00	3.019557e+00	3.033952e+00	3.049709e+00	3.067755e+00	3.089297e+00	3.115547e+00	3.147755e+00	3.186106e+00	3.229280e+00	3.273629e+00	3.314310e+00	3.345626e+00	3.361958e+00	3.358295e+00	3.331255e+00	3.280126e+00	3.210465e+00	3.137649e+00	3.080934e+00	3.059371e+00	3.081659e+00	3.136852e+00	3.204540e+00	3.271404e+00	3.336364e+00	3.406300e+00	3.366210e+00	
SCALARS Pressure float 1
LOOKUP_TABLE default
1.285399e+00	1.262787e+00	1.251996e+00	1.247728e+00	1.245658e+00	1.241277e+00	1.229189e+00	1.205139e+00	1.165573e+00	1.109872e+00	1.038935e+00	9.520182e-01	8.744159e-01	8.427283e-01	8.562851e-01	8.941514e-01	9.355982e-01	9.661624e-01	9.814367e-01	9.822199e-01	9.708221e-01	9.503234e-01	9.241909e-01	8.950626e-01	8.629092e-01	8.279544e-01	7.970401e-01	7.786521e-01	7.748327e-01	7.818735e-01	7.946620e-01	8.092475e-01	8.233824e-01	8.359419e-01	8.467032e-01	8.557881e-01	8.634843e-01	8.701525e-01	8.761038e-01	8.816581e-01	8.870180e-01	8.923485e-01	8.976895e-01	9.030363e-01	9.082900e-01	9.133351e-01	9.180142e-01	9.221851e-01	9.256969e-01	9.284264e-01	9.302531e-01	9.310965e-01	9.308948e-01	9.296195e-01	9.272544e-01	9.238098e-01	9.193088e-01	9.137954e-01	9.073351e-01	9.000014e-01	8.918918e-01	8.830404e-01	8.734304e-01	8.630436e-01	8.521886e-01	8.414022e-01	8.308569e-01	8.195101e-01	8.054663e-01	7.879407e-01	7.699484e-01	7.563993e-01	7.498947e-01	7.497437e-01	7.539409e-01	7.608436e-01	7.697986e-01	7.807039e-01	7.934332e-01	8.078803e-01	8.240623e-01	8.419879e-01	8.617506e-01	8.833982e-01	9.070539e-01	9.329218e-01	9.611088e-01	9.918230e-01	1.025448e+00	1.062221e+00	1.102717e+00	1.147757e+00	1.198073e+00	1.254927e+00	1.319140e+00	1.389563e+00	1.458786e+00	1.517798e+00	1.519662e+00	1.481849e+00	1.437807e+00	1.322315e+00	1.135258e+00	1.001715e+00	9.126775e-01	8.569154e-01	8.230562e-01	8.015879e-01	7.869895e-01	7.766232e-01	7.690385e-01	7.633221e-01	7.590494e-01	7.557620e-01	7.533494e-01	7.518592e-01	7.511380e-01	7.510021e-01	7.514205e-01	7.525806e-01	7.548628e-01	7.584927e-01	7.632897e-01	7.687138e-01	7.741886e-01	7.793429e-01	7.839268e-01	7.877359e-01	7.907139e-01	7.930048e-01	7.947867e-01	7.961475e-01	7.970525e-01	7.974295e-01	7.972304e-01	7.964339e-01	7.950510e-01	7.930954e-01	7.905758e-01	7.874983e-01	7.838494e-01	7.796277e-01	7.749176e-01	7.698828e-01	7.646601e-01	7.592854e-01	7.537443e-01	7.483559e-01	7.441812e-01	7.434381e-01	7.488624e-01	7.619465e-01	7.803780e-01	7.983580e-01	8.116797e-01	8.212441e-01	8.301730e-01	8.408683e-01	8.539679e-01	8.686631e-01	8.839743e-01	8.994996e-01	9.151508e-01	9.307633e-01	9.459833e-01	9.605294e-01	9.741295e-01	9.866348e-01	9.979297e-01	1.008077e+00	1.017185e+00	1.025495e+00	1.033332e+00	1.041068e+00	1.049137e+00	1.058008e+00	1.068238e+00	1.080530e+00	1.095656e+00	1.114360e+00	1.136835e+00	1.162321e+00	1.188682e+00	1.212854e+00	1.231259e+00	1.240410e+00	1.237353e+00	1.220319e+00	1.189458e+00	1.148491e+00	1.106543e+00	1.075078e+00	1.064439e+00	1.078202e+00	1.110181e+00	1.149499e+00	1.189158e+00	1.228420e+00	1.270191e+00	1.271182e+00	
SCALARS Temperature float 1
LOOKUP_TABLE default
1.075730e+00	1.070927e+00	1.068101e+00	1.066850e+00	1.066285e+00	1.065152e+00	1.062359e+00	1.056730e+00	1.047200e+00	1.033099e+00	1.013979e+00	9.889358e-01	9.644776e-01	9.527544e-01	9.562705e-01	9.684603e-01	9.813415e-01	9.904856e-01	9.951135e-01	9.954987e-01	9.922826e-01	9.862658e-01	9.783846e-01	9.693544e-01	9.591188e-01	9.476875e-01	9.373288e-01	9.310443e-01	9.298195e-01	9.324001e-01	9.368849e-01	9.418664e-01	9.465588e-01	9.506776e-01	9.541587e-01	9.570805e-01	9.595369e-01	9.616444e-01	9.635279e-01	9.652702e-01	9.669532e-01	9.686134e-01	9.702763e-01	9.719281e-01	9.735486e-01	9.750932e-01	9.765234e-01	9.777890e-01	9.788534e-01	9.796754e-01	9.802271e-01	9.804776e-01	9.804152e-01	9.800271e-01	9.793101e-01	9.782617e-01	9.768893e-01	9.752005e-01	9.732128e-01	9.709468e-01	9.684210e-01	9.656487e-01	9.626077e-01	9.593006e-01	9.558127e-01	9.523391e-01	9.489100e-01	9.451726e-01	9.404258e-01	9.344063e-01	9.281511e-01	9.234277e-01	9.211666e-01	9.211849e-01	9.227144e-01	9.251956e-01	9.283387e-01	9.321080e-01	9.364805e-01	9.413931e-01	9.468043e-01	9.527174e-01	9.591226e-01	9.660230e-01	9.734330e-01	9.813939e-01	9.899140e-01	9.989981e-01	1.008721e+00	1.019132e+00	1.030303e+00	1.042371e+00	1.055474e+00	1.069691e+00	1.085072e+00	1.101062e+00	1.115760e+00	1.125976e+00	1.127345e+00	1.121281e+00	1.108915e+00	1.081480e+00	1.042888e+00	1.009189e+00	9.829006e-01	9.639590e-01	9.513583e-01	9.429647e-01	9.372119e-01	9.331270e-01	9.301260e-01	9.278896e-01	9.262005e-01	9.248897e-01	9.239153e-01	9.232770e-01	9.229364e-01	9.228222e-01	9.228953e-01	9.232327e-01	9.239661e-01	9.251778e-01	9.268098e-01	9.286765e-01	9.305583e-01	9.323185e-01	9.338715e-01	9.351532e-01	9.361461e-01	9.369014e-01	9.374809e-01	9.379192e-01	9.382038e-01	9.383136e-01	9.382284e-01	9.379438e-01	9.374599e-01	9.367828e-01	9.359164e-01	9.348570e-01	9.335991e-01	9.321417e-01	9.305109e-01	9.287578e-01	9.269342e-01	9.250439e-01	9.230817e-01	9.211285e-01	9.195706e-01	9.191949e-01	9.210079e-01	9.255412e-01	9.319744e-01	9.381960e-01	9.427243e-01	9.458827e-01	9.487623e-01	9.522028e-01	9.564034e-01	9.610818e-01	9.659072e-01	9.707411e-01	9.755564e-01	9.802991e-01	9.848693e-01	9.891841e-01	9.931751e-01	9.967994e-01	1.000055e+00	1.002944e+00	1.005519e+00	1.007857e+00	1.010047e+00	1.012197e+00	1.014431e+00	1.016875e+00	1.019688e+00	1.023052e+00	1.027182e+00	1.032237e+00	1.038238e+00	1.044918e+00	1.051683e+00	1.057697e+00	1.062083e+00	1.064052e+00	1.062982e+00	1.058500e+00	1.050657e+00	1.040217e+00	1.029325e+00	1.021274e+00	1.019063e+00	1.023294e+00	1.032018e+00	1.042306e+00	1.052517e+00	1.062443e+00	1.072329e+00	1.082213e+00	
SCALARS Pressure_Coefficient float 1
LOOKUP_TABLE default
6.370514e-01	5.865792e-01	5.624912e-01	5.529654e-01	5.483443e-01	5.385652e-01	5.115825e-01	4.578998e-01	3.695836e-01	2.452500e-01	8.690912e-02	-1.071023e-01	-2.803216e-01	-3.510529e-01	-3.207922e-01	-2.362691e-01	-1.437540e-01	-7.553025e-02	-4.143604e-02	-3.968776e-02	-6.512916e-02	-1.108854e-01	-1.692168e-01	-2.342352e-01	-3.060062e-01	-3.840305e-01	-4.530354e-01	-4.940801e-01	-5.026055e-01	-4.868894e-01	-4.583437e-01	-4.257867e-01	-3.942356e-01	-3.662011e-01	-3.421804e-01	-3.219015e-01	-3.047224e-01	-2.898383e-01	-2.765541e-01	-2.641561e-01	-2.521920e-01	-2.402936e-01	-2.283715e-01	-2.164368e-01	-2.047098e-01	-1.934484e-01	-1.830041e-01	-1.736939e-01	-1.658551e-01	-1.597625e-01	-1.556851e-01	-1.538023e-01	-1.542527e-01	-1.570994e-01	-1.623785e-01	-1.700674e-01	-1.801143e-01	-1.924209e-01	-2.068414e-01	-2.232113e-01	-2.413128e-01	-2.610705e-01	-2.825215e-01	-3.057063e-01	-3.299362e-01	-3.540129e-01	-3.775515e-01	-4.028793e-01	-4.342269e-01	-4.733468e-01	-5.135080e-01	-5.437515e-01	-5.582707e-01	-5.586079e-01	-5.492390e-01	-5.338312e-01	-5.138425e-01	-4.895002e-01	-4.610867e-01	-4.288385e-01	-3.927181e-01	-3.527056e-01	-3.085925e-01	-2.602720e-01	-2.074690e-01	-1.497281e-01	-8.681061e-02	-1.825232e-02	5.680407e-02	1.388863e-01	2.292784e-01	3.298158e-01	4.421283e-01	5.690344e-01	7.123663e-01	8.695608e-01	1.024077e+00	1.155799e+00	1.159960e+00	1.075557e+00	9.772487e-01	7.194525e-01	3.019142e-01	3.828366e-03	-1.949164e-01	-3.193854e-01	-3.949638e-01	-4.428842e-01	-4.754699e-01	-4.986090e-01	-5.155390e-01	-5.282990e-01	-5.378361e-01	-5.451741e-01	-5.505594e-01	-5.538857e-01	-5.554955e-01	-5.557990e-01	-5.548650e-01	-5.522755e-01	-5.471812e-01	-5.390788e-01	-5.283712e-01	-5.162639e-01	-5.040433e-01	-4.925383e-01	-4.823063e-01	-4.738037e-01	-4.671565e-01	-4.620429e-01	-4.580653e-01	-4.550279e-01	-4.530078e-01	-4.521663e-01	-4.526106e-01	-4.543885e-01	-4.574754e-01	-4.618406e-01	-4.674648e-01	-4.743342e-01	-4.824790e-01	-4.919025e-01	-5.024160e-01	-5.136545e-01	-5.253122e-01	-5.373094e-01	-5.496778e-01	-5.617057e-01	-5.710242e-01	-5.726827e-01	-5.605751e-01	-5.313694e-01	-4.902277e-01	-4.500937e-01	-4.203578e-01	-3.990087e-01	-3.790781e-01	-3.552047e-01	-3.259646e-01	-2.931628e-01	-2.589859e-01	-2.243312e-01	-1.893955e-01	-1.545462e-01	-1.205729e-01	-8.810408e-02	-5.774668e-02	-2.983298e-02	-4.621262e-03	1.802954e-02	3.835895e-02	5.690792e-02	7.440082e-02	9.166917e-02	1.096803e-01	1.294829e-01	1.523179e-01	1.797541e-01	2.135184e-01	2.552672e-01	3.054348e-01	3.623227e-01	4.211644e-01	4.751213e-01	5.162038e-01	5.366297e-01	5.298067e-01	4.917829e-01	4.228983e-01	3.314527e-01	2.378201e-01	1.675843e-01	1.438364e-01	1.745576e-01	2.459400e-01	3.337020e-01	4.222269e-01	5.098659e-01	6.031048e-01	6.053164e-01	
SCALARS Mach float 1
LOOKUP_TABLE default
4.929221e-01	5.162265e-01	5.295471e-01	5.353617e-01	5.379737e-01	5.431760e-01	5.558434e-01	5.807245e-01	6.211378e-01	6.777357e-01	7.498458e-01	8.385255e-01	9.207339e-01	9.590124e-01	9.475962e-01	9.075806e-01	8.644420e-01	8.331876e-01	8.171411e-01	8.157983e-01	8.269761e-01	8.476819e-01	8.744308e-01	9.046162e-01	9.383088e-01	9.753742e-01	1.008526e+00	1.028465e+00	1.032337e+00	1.024174e+00	1.009939e+00	9.940505e-01	9.790052e-01	9.657311e-01	9.544592e-01	9.449587e-01	9.369423e-01	9.300426e-01	9.238586e-01	9.181224e-01	9.125675e-01	9.070731e-01	9.015555e-01	8.960599e-01	8.906538e-01	8.854873e-01	8.806909e-01	8.764363e-01	8.728507e-01	8.700770e-01	8.682131e-01	8.673659e-01	8.675768e-01	8.688888e-01	8.713103e-01	8.748448e-01	8.794619e-01	8.851278e-01	8.917753e-01	8.993265e-01	9.077107e-01	9.168744e-01	9.268821e-01	9.377148e-01	9.490855e-01	9.603574e-01	9.714359e-01	9.834583e-01	9.986537e-01	1.017814e+00	1.037604e+00	1.052476e+00	1.059574e+00	1.059517e+00	1.054717e+00	1.046917e+00	1.037013e+00	1.025099e+00	1.011225e+00	9.955637e-01	9.782158e-01	9.591321e-01	9.382965e-01	9.156394e-01	8.910401e-01	8.642644e-01	8.351583e-01	8.035427e-01	7.689373e-01	7.308531e-01	6.885776e-01	6.409082e-01	5.861672e-01	5.220858e-01	4.447845e-01	3.497873e-01	2.342443e-01	9.492251e-02	5.410999e-02	1.731593e-01	2.933844e-01	4.637861e-01	6.388129e-01	7.672487e-01	8.591529e-01	9.224406e-01	9.635308e-01	9.905360e-01	1.008898e+00	1.021871e+00	1.031368e+00	1.038429e+00	1.043753e+00	1.047879e+00	1.050944e+00	1.052949e+00	1.054019e+00	1.054378e+00	1.054149e+00	1.053089e+00	1.050784e+00	1.046973e+00	1.041834e+00	1.035947e+00	1.030002e+00	1.024432e+00	1.019510e+00	1.015443e+00	1.012288e+00	1.009886e+00	1.008042e+00	1.006647e+00	1.005740e+00	1.005391e+00	1.005662e+00	1.006568e+00	1.008109e+00	1.010263e+00	1.013018e+00	1.016383e+00	1.020374e+00	1.024992e+00	1.030152e+00	1.035690e+00	1.041442e+00	1.047394e+00	1.053563e+00	1.059694e+00	1.064577e+00	1.065754e+00	1.060072e+00	1.045829e+00	1.025522e+00	1.005765e+00	9.913058e-01	9.811780e-01	9.719121e-01	9.607985e-01	9.471637e-01	9.318866e-01	9.160218e-01	9.000107e-01	8.839353e-01	8.679696e-01	8.524513e-01	8.376713e-01	8.238819e-01	8.112545e-01	7.998230e-01	7.895999e-01	7.804279e-01	7.720453e-01	7.641480e-01	7.563465e-01	7.481937e-01	7.392081e-01	7.287843e-01	7.161979e-01	7.005547e-01	6.810920e-01	6.574967e-01	6.305369e-01	6.023765e-01	5.765078e-01	5.570827e-01	5.481914e-01	5.530375e-01	5.729921e-01	6.067050e-01	6.495901e-01	6.923463e-01	7.228689e-01	7.311087e-01	7.152890e-01	6.819420e-01	6.411736e-01	5.988393e-01	5.554659e-01	5.095133e-01	4.599617e-01	