# vtk DataFile Version 3.0
vtk output
ASCII
DATASET UNSTRUCTURED_GRID
POINTS 5233 float
9.997500e-01	-3.633609e-05	0.0	9.990000e-01	-1.457032e-04	0.0	9.977600e-01	-3.300337e-04	0.0	9.960200e-01	-6.035220e-04	0.0	9.937800e-01	-9.959587e-04	0.0	9.910500e-01	-1.556113e-03	0.0	9.878400e-01	-2.346798e-03	0.0	9.841300e-01	-3.435202e-03	0.0	9.799500e-01	-4.842212e-03	0.0	9.752800e-01	-6.543362e-03	0.0	9.701500e-01	-8.424591e-03	0.0	9.645400e-01	-1.033268e-02	0.0	9.584700e-01	-1.208222e-02	0.0	9.519400e-01	-1.352466e-02	0.0	9.449600e-01	-1.457397e-02	0.0	9.375400e-01	-1.522001e-02	0.0	9.296900e-01	-1.551355e-02	0.0	9.214000e-01	-1.553875e-02	0.0	9.127000e-01	-1.538767e-02	0.0	9.035800e-01	-1.514556e-02	0.0	8.940600e-01	-1.488653e-02	0.0	8.841500e-01	-1.467447e-02	0.0	8.738500e-01	-1.456592e-02	0.0	8.631800e-01	-1.461157e-02	0.0	8.521600e-01	-1.485384e-02	0.0	8.407700e-01	-1.532600e-02	0.0	8.290500e-01	-1.604661e-02	0.0	8.170100e-01	-1.702071e-02	0.0	8.046400e-01	-1.824247e-02	0.0	7.919700e-01	-1.969172e-02	0.0	7.790100e-01	-2.134206e-02	0.0	7.657800e-01	-2.316124e-02	0.0	7.522800e-01	-2.511796e-02	0.0	7.385200e-01	-2.717984e-02	0.0	7.245300e-01	-2.931267e-02	0.0	7.103200e-01	-3.148697e-02	0.0	6.958900e-01	-3.367674e-02	0.0	6.812700e-01	-3.585317e-02	0.0	6.664700e-01	-3.799220e-02	0.0	6.515000e-01	-4.007148e-02	0.0	6.363800e-01	-4.206920e-02	0.0	6.211300e-01	-4.396607e-02	0.0	6.057600e-01	-4.574690e-02	0.0	5.902800e-01	-4.739953e-02	0.0	5.747100e-01	-4.891436e-02	0.0	5.590600e-01	-5.028658e-02	0.0	5.433600e-01	-5.151363e-02	0.0	5.276100e-01	-5.259917e-02	0.0	5.118400e-01	-5.354804e-02	0.0	4.960500e-01	-5.437000e-02	0.0	4.802700e-01	-5.507545e-02	0.0	4.645100e-01	-5.567764e-02	0.0	4.487800e-01	-5.619070e-02	0.0	4.331100e-01	-5.662855e-02	0.0	4.175000e-01	-5.700576e-02	0.0	4.019700e-01	-5.733552e-02	0.0	3.865400e-01	-5.762982e-02	0.0	3.712300e-01	-5.789908e-02	0.0	3.560400e-01	-5.815211e-02	0.0	3.409900e-01	-5.839532e-02	0.0	3.261100e-01	-5.863275e-02	0.0	3.114000e-01	-5.886673e-02	0.0	2.968700e-01	-5.909723e-02	0.0	2.825500e-01	-5.932186e-02	0.0	2.684500e-01	-5.953657e-02	0.0	2.545700e-01	-5.973571e-02	0.0	2.409400e-01	-5.991161e-02	0.0	2.275700e-01	-6.005555e-02	0.0	2.144700e-01	-6.015768e-02	0.0	2.016600e-01	-6.020718e-02	0.0	1.891400e-01	-6.019263e-02	0.0	1.769300e-01	-6.010209e-02	0.0	1.650400e-01	-5.992341e-02	0.0	1.534900e-01	-5.964465e-02	0.0	1.422900e-01	-5.925400e-02	0.0	1.314400e-01	-5.873949e-02	0.0	1.209500e-01	-5.808974e-02	0.0	1.108500e-01	-5.729570e-02	0.0	1.011300e-01	-5.634629e-02	0.0	9.181000e-02	-5.523366e-02	0.0	8.290000e-02	-5.395039e-02	0.0	7.440000e-02	-5.248846e-02	0.0	6.633000e-02	-5.084435e-02	0.0	5.869000e-02	-4.901230e-02	0.0	5.149000e-02	-4.698972e-02	0.0	4.474000e-02	-4.477591e-02	0.0	3.844000e-02	-4.236827e-02	0.0	3.260000e-02	-3.976912e-02	0.0	2.723000e-02	-3.698360e-02	0.0	2.232000e-02	-3.400754e-02	0.0	1.790000e-02	-3.086356e-02	0.0	1.395000e-02	-2.754423e-02	0.0	1.049000e-02	-2.407497e-02	0.0	7.520000e-03	-2.047152e-02	0.0	5.040000e-03	-1.675412e-02	0.0	3.050000e-03	-1.294860e-02	0.0	1.560000e-03	-9.117409e-03	0.0	5.600000e-04	-5.294863e-03	0.0	6.000000e-05	-1.616191e-03	0.0	0.000000e+00	0.000000e+00	0.0	6.000000e-05	1.481555e-03	0.0	5.600000e-04	4.482509e-03	0.0	1.560000e-03	7.271501e-03	0.0	3.050000e-03	9.822491e-03	0.0	5.040000e-03	1.216411e-02	0.0	7.520000e-03	1.430061e-02	0.0	1.049000e-02	1.625599e-02	0.0	1.395000e-02	1.805385e-02	0.0	1.790000e-02	1.971705e-02	0.0	2.232000e-02	2.126078e-02	0.0	2.723000e-02	2.271321e-02	0.0	3.260000e-02	2.408439e-02	0.0	3.844000e-02	2.539411e-02	0.0	4.474000e-02	2.665423e-02	0.0	5.149000e-02	2.787464e-02	0.0	5.869000e-02	2.906472e-02	0.0	6.633000e-02	3.022976e-02	0.0	7.440000e-02	3.137319e-02	0.0	8.290000e-02	3.249798e-02	0.0	9.181000e-02	3.360285e-02	0.0	1.011300e-01	3.468781e-02	0.0	1.108500e-01	3.575050e-02	0.0	1.209500e-01	3.678681e-02	0.0	1.314400e-01	3.779520e-02	0.0	1.422900e-01	3.876984e-02	0.0	1.534900e-01	3.970700e-02	0.0	1.650400e-01	4.060378e-02	0.0	1.769300e-01	4.145666e-02	0.0	1.891400e-01	4.226192e-02	0.0	2.016600e-01	4.301711e-02	0.0	2.144700e-01	4.371981e-02	0.0	2.275700e-01	4.436930e-02	0.0	2.409400e-01	4.496437e-02	0.0	2.545700e-01	4.550484e-02	0.0	2.684500e-01	4.599095e-02	0.0	2.825500e-01	4.642266e-02	0.0	2.968700e-01	4.680115e-02	0.0	3.114000e-01	4.712725e-02	0.0	3.261100e-01	4.740128e-02	0.0	3.409900e-01	4.762383e-02	0.0	3.560400e-01	4.779505e-02	0.0	3.712300e-01	4.791408e-02	0.0	3.865400e-01	4.797954e-02	0.0	4.019700e-01	4.798921e-02	0.0	4.175000e-01	4.793970e-02	0.0	4.331100e-01	4.782662e-02	0.0	4.487800e-01	4.764457e-02	0.0	4.645100e-01	4.738684e-02	0.0	4.802700e-01	4.704625e-02	0.0	4.960500e-01	4.661466e-02	0.0	5.118400e-01	4.608348e-02	0.0	5.276100e-01	4.544499e-02	0.0	5.433600e-01	4.469099e-02	0.0	5.590600e-01	4.381593e-02	0.0	5.747100e-01	4.281477e-02	0.0	5.902800e-01	4.168713e-02	0.0	6.057600e-01	4.043511e-02	0.0	6.211300e-01	3.906598e-02	0.0	6.363800e-01	3.759127e-02	0.0	6.515000e-01	3.602784e-02	0.0	6.664700e-01	3.439918e-02	0.0	6.812700e-01	3.273424e-02	0.0	6.958900e-01	3.106536e-02	0.0	7.103200e-01	2.942809e-02	0.0	7.245300e-01	2.786155e-02	0.0	7.385200e-01	2.640037e-02	0.0	7.522800e-01	2.507671e-02	0.0	7.657800e-01	2.391771e-02	0.0	7.790100e-01	2.293865e-02	0.0	7.919700e-01	2.214205e-02	0.0	8.046400e-01	2.151750e-02	0.0	8.170100e-01	2.103826e-02	0.0	8.290500e-01	2.066236e-02	0.0	8.407700e-01	2.033182e-02	0.0	8.521600e-01	1.997706e-02	0.0	8.631800e-01	1.952142e-02	0.0	8.738500e-01	1.888397e-02	0.0	8.841500e-01	1.799128e-02	0.0	8.940600e-01	1.678782e-02	0.0	9.035800e-01	1.524588e-02	0.0	9.127000e-01	1.338161e-02	0.0	9.214000e-01	1.126748e-02	0.0	9.296900e-01	9.024545e-03	0.0	9.375400e-01	6.828332e-03	0.0	9.449600e-01	4.859498e-03	0.0	9.519400e-01	3.279176e-03	0.0	9.584700e-01	2.180290e-03	0.0	9.645400e-01	1.559765e-03	0.0	9.701500e-01	1.321058e-03	0.0	9.752800e-01	1.310424e-03	0.0	9.799500e-01	1.368076e-03	0.0	9.841300e-01	1.375179e-03	0.0	9.878400e-01	1.277051e-03	0.0	9.910500e-01	1.079389e-03	0.0	9.937800e-01	8.219013e-04	0.0	9.960200e-01	5.550498e-04	0.0	9.977600e-01	3.210205e-04	0.0	9.990000e-01	1.448793e-04	0.0	9.997500e-01	3.632302e-05	0.0	1.000000e+00	0.000000e+00	0.0	1.984229e+01	2.506660e+00	0.0	1.937166e+01	4.973800e+00	0.0	1.859553e+01	7.362490e+00	0.0	1.752613e+01	9.635070e+00	0.0	1.618034e+01	1.175571e+01	0.0	1.457937e+01	1.369094e+01	0.0	1.274848e+01	1.541027e+01	0.0	1.071654e+01	1.688656e+01	0.0	8.515590e+00	1.809654e+01	0.0	6.180340e+00	1.902113e+01	0.0	3.747630e+00	1.964575e+01	0.0	1.255810e+00	1.996053e+01	0.0	-1.255810e+00	1.996053e+01	0.0	-3.747630e+00	1.964574e+01	0.0	-6.180340e+00	1.902113e+01	0.0	-8.515590e+00	1.809654e+01	0.0	-1.071654e+01	1.688656e+01	0.0	-1.274848e+01	1.541026e+01	0.0	-1.457937e+01	1.369094e+01	0.0	-1.618034e+01	1.175570e+01	0.0	-1.752613e+01	9.635070e+00	0.0	-1.859553e+01	7.362490e+00	0.0	-1.937166e+01	4.973800e+00	0.0	-1.984229e+01	2.506660e+00	0.0	-2.000000e+01	0.000000e+00	0.0	-1.984229e+01	-2.506670e+00	0.0	-1.937166e+01	-4.973800e+00	0.0	-1.859553e+01	-7.362490e+00	0.0	-1.752613e+01	-9.635080e+00	0.0	-1.618034e+01	-1.175571e+01	0.0	-1.457937e+01	-1.369094e+01	0.0	-1.274848e+01	-1.541027e+01	0.0	-1.071653e+01	-1.688656e+01	0.0	-8.515580e+00	-1.809654e+01	0.0	-6.180340e+00	-1.902113e+01	0.0	-3.747620e+00	-1.964575e+01	0.0	-1.255810e+00	-1.996053e+01	0.0	1.255810e+00	-1.996053e+01	0.0	3.747630e+00	-1.964574e+01	0.0	6.180340e+00	-1.902113e+01	0.0	8.515590e+00	-1.809654e+01	0.0	1.071654e+01	-1.688656e+01	0.0	1.274848e+01	-1.541026e+01	0.0	1.457937e+01	-1.369094e+01	0.0	1.618034e+01	-1.175570e+01	0.0	1.752614e+01	-9.635070e+00	0.0	1.859553e+01	-7.362490e+00	0.0	1.937166e+01	-4.973790e+00	0.0	1.984229e+01	-2.506660e+00	0.0	2.000000e+01	0.000000e+00	0.0	6.048007e-02	-5.667534e-02	0.0	6.604977e-01	-5.261660e-02	0.0	4.256673e-01	6.211875e-02	0.0	6.897660e-01	4.538283e-02	0.0	3.793811e-01	-7.198616e-02	0.0	9.994635e-01	-7.333749e-04	0.0	9.985479e-01	-1.342935e-03	0.0	7.736581e-01	-3.488163e-02	0.0	6.901036e-01	-4.815100e-02	0.0	-1.589692e-03	6.632064e-03	0.0	7.467834e-01	-3.907171e-02	0.0	5.834761e-01	5.627404e-02	0.0	9.928266e-01	-3.866973e-03	0.0	9.899634e-01	-5.000420e-03	0.0	5.990493e-01	5.501407e-02	0.0	7.189036e-01	-4.356445e-02	0.0	-1.796513e-03	6.789940e-04	0.0	9.866228e-01	-6.365027e-03	0.0	9.828086e-01	-7.971657e-03	0.0	-1.884737e-03	-8.190386e-03	0.0	6.454325e-01	-5.474660e-02	0.0	8.240186e-01	-2.833887e-02	0.0	7.994225e-01	-3.124872e-02	0.0	3.485935e-01	6.152573e-02	0.0	8.473399e-01	-2.626443e-02	0.0	2.474677e-01	5.782112e-02	0.0	8.693420e-01	-2.495132e-02	0.0	1.018985e-02	2.032019e-02	0.0	8.899344e-01	-2.417199e-02	0.0	7.689503e-02	-6.083746e-02	0.0	9.090455e-01	-2.355837e-02	0.0	-2.211794e-03	-3.986682e-03	0.0	9.423924e-01	-2.087788e-02	0.0	9.265737e-01	-2.263567e-02	0.0	1.731112e-02	-3.611560e-02	0.0	4.259611e-01	-7.117055e-02	0.0	8.585135e-01	-2.552083e-02	0.0	9.563876e-01	-1.792621e-02	0.0	9.785081e-01	-9.833642e-03	0.0	9.684441e-01	-1.396571e-02	0.0	1.586013e-01	-7.053410e-02	0.0	8.996828e-01	-2.387250e-02	0.0	7.603557e-01	-3.692279e-02	0.0	9.971300e-01	-2.114133e-03	0.0	5.993812e-01	-6.049570e-02	0.0	4.416585e-01	-7.077236e-02	0.0	5.365880e-01	-6.623597e-02	0.0	4.732328e-01	-6.971781e-02	0.0	5.049130e-01	-6.823577e-02	0.0	4.890589e-01	-6.903549e-02	0.0	1.251426e-01	-6.806594e-02	0.0	2.728254e-02	-4.293401e-02	0.0	3.948104e-01	-7.176743e-02	0.0	4.582431e-02	-5.176014e-02	0.0	4.103384e-01	-7.149960e-02	0.0	3.190598e-01	-7.252953e-02	0.0	3.489115e-01	-7.231690e-02	0.0	3.299726e-02	-4.605415e-02	0.0	2.899003e-01	-7.265347e-02	0.0	9.347050e-01	-2.189075e-02	0.0	1.470998e-01	-6.984218e-02	0.0	1.950669e-01	-7.192575e-02	0.0	8.573739e-02	-6.263661e-02	0.0	1.046608e-01	-6.569662e-02	0.0	5.681267e-01	-6.366710e-02	0.0	1.704399e-01	-7.110639e-02	0.0	6.148647e-01	-5.869831e-02	0.0	8.798222e-01	-2.451729e-02	0.0	2.206480e-02	-3.961923e-02	0.0	9.952215e-01	-2.931219e-03	0.0	6.057414e-03	-2.473865e-02	0.0	1.829850e-02	2.465013e-02	0.0	9.180131e-01	-2.316810e-02	0.0	9.49629
[...]
POINT_DATA 5233

SCALARS Conservative_1 float 1
LOOKUP_TABLE default
1.179578e+00	1.168261e+00	1.161935e+00	1.159397e+00	1.157772e+00	1.154773e+00	1.146721e+00	1.130866e+00	1.104055e+00	1.065214e+00	1.015243e+00	9.382221e-01	8.184274e-01	7.498099e-01	7.611303e-01	8.089893e-01	8.670621e-01	9.193589e-01	9.606580e-01	9.929826e-01	1.018300e+00	1.038022e+00	1.053070e+00	1.063956e+00	1.071060e+00	1.074656e+00	1.075078e+00	1.072607e+00	1.067664e+00	1.060622e+00	1.051846e+00	1.041681e+00	1.030382e+00	1.018205e+00	1.005353e+00	9.919156e-01	9.780679e-01	9.638165e-01	9.493655e-01	9.347511e-01	9.202353e-01	9.059878e-01	8.920718e-01	8.784578e-01	8.655538e-01	8.545300e-01	8.469458e-01	8.437764e-01	8.449783e-01	8.496040e-01	8.564251e-01	8.643441e-01	8.726284e-01	8.808494e-01	8.888088e-01	8.964962e-01	9.040159e-01	9.112047e-01	9.172169e-01	9.211899e-01	9.248751e-01	9.344120e-01	9.508718e-01	9.483648e-01	8.762777e-01	7.532393e-01	6.961053e-01	6.951637e-01	6.972808e-01	6.951417e-01	6.925726e-01	6.919290e-01	6.926812e-01	6.941084e-01	6.968705e-01	7.017655e-01	7.090065e-01	7.183453e-01	7.293712e-01	7.423357e-01	7.576187e-01	7.754434e-01	7.961256e-01	8.198094e-01	8.468072e-01	8.774984e-01	9.121279e-01	9.509486e-01	9.939985e-01	1.040740e+00	1.090570e+00	1.142348e+00	1.194109e+00	1.243657e+00	1.287529e+00	1.322291e+00	1.343131e+00	1.349073e+00	1.333562e+00	1.303722e+00	1.284743e+00	1.233484e+00	1.122305e+00	1.015476e+00	9.144554e-01	8.275783e-01	7.613225e-01	7.161821e-01	6.876369e-01	6.709069e-01	6.624006e-01	6.594566e-01	6.607161e-01	6.646564e-01	6.700869e-01	6.765034e-01	6.835652e-01	6.911378e-01	6.990889e-01	7.067618e-01	7.131292e-01	7.178005e-01	7.215705e-01	7.255538e-01	7.300379e-01	7.343990e-01	7.378667e-01	7.401584e-01	7.415297e-01	7.423682e-01	7.430321e-01	7.437307e-01	7.445683e-01	7.455198e-01	7.465865e-01	7.476992e-01	7.489033e-01	7.500744e-01	7.511548e-01	7.522039e-01	7.532188e-01	7.537007e-01	7.519924e-01	7.474414e-01	7.463415e-01	7.672481e-01	8.203877e-01	8.718755e-01	8.877522e-01	8.781694e-01	8.624512e-01	8.524308e-01	8.506423e-01	8.559816e-01	8.661447e-01	8.790053e-01	8.926577e-01	9.065382e-01	9.209684e-01	9.360350e-01	9.512847e-01	9.662174e-01	9.804004e-01	9.935064e-01	1.005124e+00	1.014855e+00	1.022292e+00	1.027081e+00	1.028837e+00	1.027246e+00	1.021945e+00	1.012741e+00	9.994083e-01	9.820574e-01	9.613494e-01	9.393473e-01	9.198839e-01	9.085343e-01	9.121042e-01	9.351865e-01	9.749983e-01	1.021464e+00	1.065964e+00	1.105395e+00	1.137144e+00	1.158972e+00	1.169820e+00	1.169476e+00	1.158526e+00	1.139150e+00	1.116134e+00	1.096205e+00	1.085472e+00	1.087207e+00	1.099783e+00	1.118415e+00	1.139031e+00	1.160398e+00	1.186618e+00	1.168084e+00	9.998511e-01	9.999270e-01	9.999080e-01	9.998643e-01	9.998236e-01	9.997752e-01	9.997128e-01	9.996314e-01	9.995411e-01	9.994713e-01	9.994281e-01	9.994511e-01	9.995308e-01	9.996898e-01	9.998256e-01	9.999369e-01	9.999997e-01	1.000039e+00	1.000064e+00	1.000076e+00	1.000083e+00	1.000086e+00	1.000088e+00	1.000092e+00	1.000094e+00	1.000099e+00	1.000106e+00	1.000116e+00	1.000129e+00	1.000149e+00	1.000171e+00	1.000206e+00	1.000238e+00	1.000289e+00	1.000332e+00	1.000378e+00	1.000421e+00	1.000432e+00	1.000433e+00	1.000406e+00	1.000381e+00	1.000335e+00	1.000290e+00	1.000242e+00	1.000194e+00	1.000139e+00	1.000100e+00	1.000082e+00	9.999429e-01	9.997854e-01	8.370534e-01	9.458354e-01	7.537835e-01	9.740221e-01	9.091738e-01	1.168844e+00	1.162844e+00	1.043004e+00	9.730339e-01	1.224635e+00	1.022619e+00	8.782649e-01	1.149641e+00	1.142952e+00	8.916543e-01	9.989207e-01	1.305227e+00	1.131472e+00	1.112930e+00	1.343506e+00	9.320374e-01	1.066524e+00	1.058392e+00	7.562690e-01	1.064895e+00	7.498627e-01	1.051318e+00	8.261128e-01	1.023601e+00	7.911063e-01	9.779665e-01	1.343052e+00	8.133177e-01	9.073906e-01	1.097606e+00	8.878153e-01	1.059712e+00	8.154718e-01	1.085292e+00	1.007486e+00	7.020746e-01	1.003401e+00	1.033314e+00	1.157210e+00	8.916553e-01	8.803701e-01	8.513943e-01	8.652198e-01	8.529573e-01	8.583341e-01	7.193413e-01	1.008026e+00	9.021494e-01	8.952192e-01	8.950413e-01	9.280264e-01	9.201910e-01	9.670658e-01	9.606539e-01	8.605741e-01	7.057637e-01	6.981954e-01	7.722983e-01	7.418305e-01	8.664620e-01	6.994606e-01	9.049490e-01	1.039383e+00	1.051759e+00	1.153747e+00	1.235520e+00	7.364843e-01	9.463519e-01	7.889745e-01	1.050789e+00	1.144849e+00	1.067064e+00	7.043553e-01	8.569452e-01	1.011080e+00	1.051453e+00	7.295713e-01	6.993244e-01	8.785428e-01	9.595496e-01	8.645365e-01	1.275511e+00	1.144497e+00	9.155991e-01	6.978644e-01	1.188923e+00	6.961643e-01	7.559950e-01	9.430556e-01	8.052981e-01	8.727414e-01	9.861720e-01	1.281569e+00	1.332864e+00	8.558624e-01	1.320980e+00	6.943914e-01	6.861836e-01	6.823574e-01	7.269373e-01	7.496694e-01	1.132381e+00	8.618526e-01	8.934581e-01	1.137859e+00	1.151809e+00	9.284394e-01	8.927564e-01	7.899906e-01	7.572626e-01	1.049053e+00	9.722353e-01	7.038648e-01	1.123427e+00	1.147278e+00	1.112564e+00	7.178093e-01	6.910399e-01	7.524753e-01	7.506512e-01	7.452639e-01	7.544689e-01	8.550644e-01	7.543366e-01	7.385471e-01	7.304075e-01	9.184961e-01	7.478728e-01	7.487111e-01	9.465860e-01	8.662456e-01	1.014849e+00	9.976368e-01	1.020017e+00	1.023057e+00	9.754477e-01	1.004073e+00	9.426123e-01	9.413132e-01	1.134129e+00	1.010567e+00	1.148200e+00	9.579830e-01	9.296317e-01	1.013741e+00	9.911838e-01	1.020223e+00	1.023077e+00	9.864502e-01	1.007208e+00	9.323878e-01	9.606188e-01	8.580426e-01	9.050436e-01	7.483357e-01	7.492201e-01	7.424153e-01	7.469986e-01	6.829867e-01	7.343158e-01	7.739864e-01	6.855887e-01	7.005203e-01	9.736611e-01	9.194495e-01	1.063522e+00	9.228780e-01	8.502492e-01	1.059735e+00	7.107126e-01	8.936918e-01	7.110879e-01	6.970469e-01	7.515068e-01	7.230679e-01	1.108996e+00	1.099093e+00	7.534890e-01	1.097069e+00	1.103420e+00	7.553766e-01	7.571857e-01	1.083611e+00	1.201235e+00	1.150654e+00	1.167019e+00	9.183957e-01	9.293749e-01	1.116207e+00	8.763115e-01	1.308752e+00	1.191133e+00	8.126188e-01	7.113146e-01	9.357237e-01	7.109407e-01	1.207981e+00	1.265268e+00	9.538465e-01	9.809846e-01	9.643812e-01	1.221167e+00	8.791709e-01	9.686406e-01	1.042518e+00	1.129389e+00	9.256519e-01	1.054135e+00	1.058827e+00	7.891242e-01	1.328313e+00	7.061961e-01	1.139758e+00	9.109529e-01	7.174624e-01	9.930026e-01	9.431021e-01	8.806618e-01	8.084580e-01	9.071773e-01	1.009600e+00	1.049164e+00	9.338721e-01	7.844326e-01	9.558368e-01	9.852407e-01	7.316741e-01	9.683263e-01	7.498879e-01	9.496824e-01	1.105172e+00	7.597452e-01	8.731068e-01	1.125723e+00	9.471486e-01	1.107134e+00	1.133954e+00	1.116050e+00	7.551170e-01	7.590625e-01	7.547911e-01	7.274299e-01	9.559568e-01	7.055698e-01	8.738012e-01	7.435198e-01	7.050517e-01	1.132422e+00	1.114643e+00	9.556300e-01	7.120061e-01	1.203872e+00	1.139549e+00	1.125927e+00	1.001313e+00	1.141329e+00	1.257716e+00	1.331010e+00	1.314155e+00	1.097736e+00	1.199596e+00	8.545185e-01	1.155018e+00	1.145647e+00	7.559464e-01	8.619139e-01	1.115026e+00	1.038406e+00	8.914229e-01	1.139020e+00	1.337373e+00	8.875015e-01	7.563412e-01	1.057800e+00	7.567546e-01	1.047797e+00	1.025817e+00	8.302233e-01	9.893161e-01	9.340013e-01	8.344968e-01	1.016810e+00	8.457740e-01	9.884711e-01	1.094132e+00	7.324723e-01	1.025315e+00	1.034447e+00	1.150530e+00	8.738190e-01	8.673353e-01	8.618804e-01	1.056727e+00	9.006906e-01	8.941627e-01	9.230204e-01	9.438049e-01	8.982923e-01	8.612124e-01	7.240699e-01	7.719183e-01	8.695079e-01	9.047137e-01	1.033708e+00	1.066275e+00	1.004383e+00	1.015280e+00	7.567982e-01	7.435971e-01	8.800467e-01	8.921583e-01	9.114240e-01	8.816099e-01	1.181154e+00	9.192327e-01	9.135602e-01	7.079108e-01	7.057633e-01	6.994264e-01	6.992008e-01	9.490755e-01	9.327233e-01	7.485834e-01	1.299551e+00	1.289432e+00	7.093255e-01	1.108475e+00	8.649022e-01	8.870840e-01	8.971244e-01	8.830878e-01	1.124992e+00	1.135934e+00	1.035653e+00	8.310826e-01	7.768992e-01	7.601094e-01	1.004810e+00	1.111085e+00	7.066990e-01	7.044391e-01	7.555613e-01	7.560918e-01	7.470207e-01	7.396398e-01	7.356354e-01	1.016833e+00	1.007510e+00	9.998644e-01	1.018135e+00	9.968595e-01	9.760941e-01	9.593356e-01	9.721745e-01	1.006133e+00	1.012897e+00	1.016862e+00	1.013236e+00	9.906080e-01	9.799984e-01	9.428266e-01	9.297658e-01	8.690930e-01	8.638656e-01	9.169167e-01	9.042529e-01	7.544753e-01	7.541162e-01	7.533724e-01	7.520436e-01	8.239703e-01	7.182238e-01	7.329057e-01	1.054303e+00	1.057620e+00	8.584538e-01	8.582406e-01	1.072328e+00	7.545329e-01	7.223467e-01	7.164830e-01	7.583109e-01	7.575031e-01	7.610999e-01	7.605237e-01	1.090453e+00	1.064784e+00	9.173945e-01	9.301874e-01	9.789207e-01	1.314829e+00	8.827884e-01	1.322509e+00	9.059280e-01	9.552698e-01	1.040741e+00	8.683398e-01	9.540317e-01	1.109881e+00	1.109029e+00	1.122848e+00	1.084246e+00	1.114856e+00	1.154030e+00	1.174866e+00	1.146863e+00	1.187356e+00	1.099353e+00	1.288272e+00	8.067034e-01	9.270772e-01	1.128047e+00	8.814086e-01	1.161306e+00	1.241441e+00	9.880582e-01	1.294524e+00	9.986870e-01	1.136327e+00	1.036396e+00	1.208637e+00	9.258920e-01	1.043652e+00	9.769285e-01	1.136911e+00	1.173462e+00	1.116050e+00	8.753758e-01	1.108121e+00	9.523331e-01	1.122825e+00	8.847912e-01	7.613473e-01	7.634698e-01	7.545788e-01	7.217394e-01	1.164392e+00	1.308143e+00	1.193402e+00	8.654216e-01	1.248762e+00	9.775165e-01	8.265259e-01	1.314095e+00	7.289157e-01	8.818831e-01	1.062401e+00	9.657229e-01	9.919459e-01	1.013092e+00	9.639071e-01	1.111484e+00	1.117884e+00	9.681804e-01	9.631749e-01	7.629424e-01	7.617978e-01	7.607743e-01	7.354633e-01	9.535673e-01	9.653935e-01	7.125846e-01	9.126056e-01	7.520554e-01	1.120684e+00	1.131834e+00	1.023996e+00	1.141675e+00	1.270041e+00	1.321001e+00	1.025737e+00	1.168906e+00	1.164706e+00	1.022264e+00	1.116736e+00	8.921759e-01	8.879847e-01	7.614248e-01	1.050786e+00	1.048327e+00	1.026479e+00	1.013488e+00	8.724276e-01	8.484054e-01	9.973968e-01	9.776909e-01	8.774018e-01	9.163347e-01	1.101096e+00	1.026805e+00	1.034231e+00	1.141542e+00	8.759463e-01	8.708137e-01	8.999734e-01	8.940367e-01	9.911388e-01	8.986062e-01	8.774537e-01	7.471166e-01	7.376132e-01	8.741607e-01	8.830538e-01	1.053327e+00	1.079707e+00	1.008805e+00	1.018133e+00	7.889549e-01	7.725039e-01	7.581365e-01	8.940085e-01	9.057023e-01	9.587523e-01	9.278326e-01	8.988501e-01	9.228568e-01	9.179099e-01	9.120069e-01	7.218668e-01	7.168385e-01	7.142220e-01	7.098609e-01	7.011867e-01	9.413989e-01	9.296689e-01	7.139647e-01	7.353537e-01	8.966477e-01	8.967441e-01	1.123449e+00	8.656204e-01	8.091277e-01	7.707490e-01	7.633334e-01	1.027954e+00	7.226997e-01	7.269632e-01	7.610259e-01	7.609027e-01	7.488883e-01	7.447995e-01	7.400642e-01	1.001020e+00	1.003495e+00	9.821697e-01	9.657978e-01	9.731510e-01	9.824882e-01	1.000270e+00	1.006574e+00	1.010957e+00	1.012988e+00	1.010970e+00	1.006762e+00	9.934931e-01	9.847464e-01	9.747504e-01	9.403827e-01	8.737029e-01	8.716839e-01	9.284587e-01	9.164933e-01	9.043952e-01	7.606645e-01	7.602904e-01	7.596564e-01	7.584446e-01	7.567576e-01	7.490105e-01	7.682321e-01	1.045648e+00	1.049236e+00	1.050970e+00	8.670828e-01	8.661109e-01	7.937050e-01	8.257138e-01	7.313930e-01	7.275357e-01	7.238019e-01	7.623887e-01	7.648631e-01	7.647206e-01	7.640058e-01	1.093571e+00	1.074635e+00	1.052291e+00	9.176505e-01	9.295659e-01	9.416193e-01	8.071585e-01	9.271826e-01	1.304302e+00	8.250408e-01	1.126688e+00	1.111103e+00	8.786872e-01	1.271024e+00	1.150930e+00	9.485597e-01	9.280327e-01	1.032862e+00	1.113974e+00	8.936657e-01	1.288160e+00	9.445695e-01	1.224264e+00	1.110004e+00	1.119441e+00	1.180681e+00	9.495388e-01	1.137363e+00	1.179527e+00	1.169948e+00	1.038407e+00	7.421340e-01	1.099502e+00	9.050979e-01	8.449428e-01	8.892673e-01	9.477870e-01	1.110037e+00	8.842250e-01	1.103222e+00	1.092994e+00	1.008987e+00	7.599013e-01	7.670223e-01	1.116788e+00	7.422420e-01	1.032688e+00	1.141787e+00	1.110762e+00	1.138876e+00	1.042392e+00	1.131646e+00	9.838663e-01	1.250692e+00	9.936415e-01	1.003392e+00	1.164392e+00	1.126321e+00	1.195594e+00	9.965185e-01	8.848914e-01	7.676084e-01	1.229139e+00	9.907238e-01	9.603312e-01	9.811064e-01	7.679918e-01	7.673443e-01	7.670137e-01	9.626663e-01	9.735209e-01	1.112896e+00	1.039023e+00	1.089337e+00	1.273510e+00	1.307919e+00	1.065923e+00	1.014397e+00	1.103829e+00	8.940429e-01	1.041806e+00	1.038596e+00	1.025109e+00	1.014757e+00	8.900148e-01	8.666103e-01	1.002153e+00	9.867496e-01	9.687751e-01	9.349838e-01	9.766591e-01	1.027080e+00	1.032150e+00	1.133694e+00	8.840813e-01	8.793503e-01	8.997416e-01	8.945643e-01	9.122256e-01	9.115203e-01	7.642889e-01	7.524213e-01	8.872175e-01	1.066387e+00	1.087209e+00	1.011343e+00	1.020327e+00	8.062605e-01	7.894556e-01	7.759507e-01	8.955610e-01	9.074396e-01	1.002453e+00	9.723094e-01	9.425774e-01	9.149594e-01	9.247207e-01	9.208900e-01	9.159618e-01	9.104792e-01	7.347237e-01	7.285675e-01	7.248156e-01	7.204515e-01	7.143271e-01	9.276405e-01	9.342641e-01	7.132638e-01	8.996478e-01	1.114086e+00	1.113422e+00	8.868987e-01	8.457911e-01	7.989441e-01	7.748516e-01	7.693958e-01	7.513212e-01	7.644165e-01	7.670060e-01	7.672600e-01	7.574358e-01	7.539759e-01	7.490279e-01	7.437005e-01	1.025167e+00	1.006588e+00	9.909230e-01	9.772613e-01	9.789197e-01	9.835335e-01	9.905865e-01	1.001794e+00	1.005855e+00	1.008974e+00	1.008592e+00	1.005100e+00	1.001421e+00	9.949487e-01	9.882642e-01	9.795462e-01	9.704490e-01	8.810002e-01	8.786493e-01	9.389333e-01	9.273081e-01	9.163793e-01	9.038576e-01	7.671756e-01	7.669700e-01	7.661192e-01	7.650648e-01	7.634974e-01	7.618060e-01	7.810748e-01	8.033996e-01	1.040402e+00	1.043208e+00	1.043375e+00	8.756989e-01	8.731882e-01	8.759916e-01	8.313608e-01	8.641507e-01	9.016139e-01	7.397531e-01	7.378293e-01	7.376089e-01	7.383880e-01	7.693881e-01	7.692129e-01	7.686949e-01	7.681751e-01	1.044634e+00	1.079357e+00	1.063128e+00	9.178717e-01	9.299028e-01	9.404589e-01	9.520498e-01	7.553178e-01	8.668720e-01	9.427327e-01	1.156185e+00	1.123421e+00	1.036594e+00	1.171645e+00	1.183930e+00	1.001397e+00	8.437936e-01	1.209194e+00	1.108010e+00	1.253529e+00	1.068545e+00	7.585879e-01	7.648733e-01	1.010818e+00	1.134110e+00	1.246322e+00	1.298091e+00	1.300299e+00	1.290007e+00	1.268405e+00	1.134647e+00	7.733261e-01	1.057262e+00	1.116543e+00	9.426229e-01	1.031491e+00	9.043596e-01	1.116239e+00	1.040651e+00	1.081640e+00	8.869932e-01	8.927173e-01	9.522807e-01	1.004700e+00	9.006785e-01	8.878961e-01	7.725236e-01	1.112319e+00	8.638464e-01	1.159539e+00	1.108441e+00	1.301211e+00	1.166756e+00	1.160484e+00	9.494037e-01	1.040312e+00	1.283312e+00	9.705534e-01	1.232642e+00	1.098514e+00	1.171100e+00	1.168905e+00	1.164628e+00	1.127944e+00	9.351740e-01	9.423864e-01	1.109685e+00	8.947586e-01	1.091340e+00	1.105503e+00	9.843960e-01	1.210897e+00	7.725409e-01	7.734468e-01	7.726975e-01	9.653736e-01	1.051598e+00	1.093329e+00	1.290065e+00	1.099478e+00	1.033209e+00	1.029926e+00	1.022828e+00	1.015571e+00	8.847523e-01	9.082967e-01	1.005214e+00	9.934068e-01	9.802166e-01	9.645027e-01	9.845926e-01	1.013110e+00	1.023071e+00	1.124866e+00	8.910961e-01	8.878502e-01	8.999819e-01	8.963399e-01	9.408852e-01	9.562829e-01	7.813168e-01	7.655479e-01	1.076050e+00	1.092175e+00	1.013723e+00	8.244864e-01	8.057152e-01	7.966073e-01	9.031517e-01	1.012704e+00	9.845238e-01	9.567291e-01	9.323180e-01	9.296936e-01	9.230202e-01	9.182079e-01	9.133498e-01	9.091729e-01	7.472214e-01	7.419502e-01	7.332401e-01	7.298497e-01	7.223129e-01	1.107542e+00	1.106292e+00	1.103465e+00	8.969575e-01	8.692845e-01	8.285504e-01	7.977596e-01	7.798892e-01	7.777483e-01	7.944815e-01	7.740547e-01	7.734243e-01	7.613075e-01	7.584380e-01	7.535158e-01	1.025813e+00	1.010033e+00	1.000005e+00	9.903910e-01	9.891432e-01	9.876937e-01	9.920144e-01	9.975109e-01	1.002499e+00	1.005825e+00	9.981762e-01	9.865675e-01	9.708464e-01	9.316979e-01	9.103833e-01	7.746166e-01	7.733953e-01	7.736429e-01	7.715127e-01	7.712094e-01	7.692266e-01	7.674099e-01	8.146180e-01	8.375753e-01	1.035672e+00	1.037595e+00	1.035121e+00	8.837882e-01	8.819594e-01	8.657832e-01	8.984878e-01	9.329759e-01	7.499906e-01	7.500132e-01	7.536598e-01	7.600449e-01	7.669781e-01	7.770204e-01	7.735629e-01	7.737455e-01	7.732697e-01	1.070206e+00	1.055487e+00	9.239782e-01	9.451797e-01	7.408415e-01	7.988945e-01	8.870231e-01	9.415619e-01	1.155977e+00	1.148499e+00	1.194962e+00	1.265885e+00	1.164954e+00	1.068160e+00	1.109763e+00	1.194643e+00	1.094434e+00	1.136293e+00	1.095622e+00	1.272087e+00	1.071050e+00	1.172315e+00	7.780966e-01	1.172112e+00	1.060855e+00	1.161667e+00	1.148150e+00	1.052138e+00	8.925171e-01	1.107111e+00	9.423250e-01	9.654192e-01	9.651884e-01	9.396604e-01	8.624473e-01	7.678758e-01	1.248764e+00	9.030286e-01	9.045368e-01	8.842003e-01	7.678151e-01	1.103184e+00	1.043843e+00	1.225521e+00	1.026048e+00	1.034966e+00	1.164753e+00	1.104937e+00	1.298334e+00	1.262348e+00	1.106973e+00	1.005472e+00	9.045370e-01	8.911957e-01	1.113332e+00	1.163638e+00	1.127114e+00	1.288092e+00	1.162480e+00	1.046772e+00	1.234157e+00	1.215735e+00	8.962822e-01	1.097576e+00	1.089433e+00	1.081392e+00	8.968004e-01	7.787802e-01	7.798610e-01	9.923814e-01	1.095761e+00	1.129836e+00	1.124215e+00	1.023404e+00	1.011626e+00	9.252066e-01	9.944723e-01	9.776816e-01	1.016175e+00	1.116254e+00	8.966981e-01	9.759953e-01	9.953356e-01	7.898062e-01	1.082645e+00	1.015012e+00	1.022540e+00	8.348142e-01	8.145310e-01	9.026980e-01	1.021691e+00	9.944839e-01	9.688169e-01	9.512509e-01	9.265892e-01	9.138225e-01	9.078377e-01	7.492110e-01	7.430404e-01	1.101208e+00	1.098487e+00	8.361273e-01	7.936093e-01	8.252679e-01	7.810265e-01	7.655549e-01	1.002876e+00	1.019876e+00	1.002320e+00	9.960363e-01	9.975619e-01	1.000522e+00	1.003024e+00	9.991179e-01	9.907899e-01	9.785177e-01	9.631615e-01	9.455487e-01	9.264602e-01	9.083022e-01	7.809491e-01	7.790008e-01	7.768674e-01	7.737102e-01	7.720644e-01	8.476552e-01	8.710514e-01	1.028126e+00	1.030600e+00	1.027915e+00	8.920565e-01	8.898800e-01	8.971705e-01	9.276075e-01	9.595402e-01	9.917855e-01	7.640780e-01	7.651637e-01	7.714005e-01	7.823043e-01	7.957253e-01	8.032148e-01	7.802972e-01	7.784113e-01	1.074188e+00	1.063186e+00	9.198974e-01	9.585422e-01	9.762008e-01	7.949075e-01	9.125626e-01	1.117199e+00	1.155295e+00	1.151930e+00	1.132942e+00	9.933502e-01	1.110014e+00	1.168054e+00	1.131356e+00	1.200106e+00	1.141132e+00	1.142488e+00	1.123118e+00	1.097140e+00	1.206747e+00	1.253232e+00	1.094890e+00	1.007722e+00	7.839852e-01	1.123413e+00	9.903905e-01	1.096084e+00	8.439590e-01	1.067982e+00	1.181906e+00	9.080894e-01	9.914429e-01	9.533268e-01	9.054286e-01	1.063392e+00	1.075800e+00	1.073364e+00	1.052913e+00	1.165662e+00	1.103307e+00	1.106184e+00	1.087238e+00	7.864999e-01	9.081864e-01	9.848468e-01	9.398475e-01	1.145622e+00	1.151875e+00	1.283239e+00	1.049845e+00	1.091249e+00	1.160883e+00	1.087425e+00	1.180620e+00	1.161693e+00	8.988889e-01	1.242319e+00	9.251590e-01	9.013825e-01	1.100646e+00	1.246789e+00	1.035744e+00	1.098139e+00	9.978563e-01	1.269632e+00	1.161562e+00	9.638886e-01	1.230058e+00	1.216183e+00	9.057900e-01	1.119354e+00	1.080976e+00	9.020521e-01	7.848639e-01	9.232062e-01	1.125744e+00	1.153078e+00	1.013917e+00	1.002663e+00	9.818711e-01	9.818254e-01	1.108428e+00	9.044018e-01	1.005922e+00	1.021081e+00	9.121139e-01	1.024033e+00	1.023609e+00	1.015114e+00	8.772311e-01	8.524871e-01	8.286964e-01	1.028081e+00	9.377068e-01	9.221450e-01	8.039314e-01	7.805512e-01	9.697449e-01	1.097893e+00	9.029441e-01	8.706315e-01	7.790557e-01	1.036628e+00	1.018059e+00	1.001612e+00	1.006108e+00	1.001704e+00	1.001146e+00	1.001578e+00	9.991265e-01	9.933124e-01	9.839981e-01	9.716001e-01	9.568351e-01	9.404593e-01	7.882723e-01	7.890952e-01	7.878194e-01	7.846234e-01	7.798928e-01	7.780432e-01	8.780329e-01	9.021245e-01	1.020766e+00	1.020480e+00	9.001893e-01	8.977526e-01	9.256144e-01	9.522322e-01	9.812083e-01	1.009496e+00	1.038439e+00	7.828966e-01	7.871192e-01	7.935649e-01	8.053525e-01	8.223189e-01	8.226940e-01	7.943026e-01	7.854318e-01	1.070575e+00	1.055580e+00	9.184248e-01	9.356588e-01	7.615139e-01	7.708043e-01	8.456940e-01	9.268681e-01	1.147613e+00	1.145918e+00	1.143740e+00	1.120271e+00	1.167718e+00	1.136294e+00	1.121270e+00	1.014594e+00	1.157539e+00	1.116390e+00	1.113376e+00	1.048706e+00	1.160272e+00	1.088679e+00	7.955190e-01	1.132749e+00	1.135897e+00	1.133628e+00	1.164951e+00	1.073547e+00	8.437344e-01	9.994261e-01	9.940676e-01	1.008775e+00	1.129144e+00	1.129433e+00	1.126142e+00	1.158694e+00	1.185409e+00	9.112728e-01	9.