# vtk DataFile Version 3.0
vtk output
ASCII
DATASET UNSTRUCTURED_GRID
POINTS 200 float
9.997500e-01	-3.633609e-05	0.0	9.990000e-01	-1.457032e-04	0.0	9.977600e-01	-3.300337e-04	0.0	9.960200e-01	-6.035220e-04	0.0	9.937800e-01	-9.959587e-04	0.0	9.910500e-01	-1.556113e-03	0.0	9.878400e-01	-2.346798e-03	0.0	9.841300e-01	-3.435202e-03	0.0	9.799500e-01	-4.842212e-03	0.0	9.752800e-01	-6.543362e-03	0.0	9.701500e-01	-8.424591e-03	0.0	9.645400e-01	-1.033268e-02	0.0	9.584700e-01	-1.208222e-02	0.0	9.519400e-01	-1.352466e-02	0.0	9.449600e-01	-1.457397e-02	0.0	9.375400e-01	-1.522001e-02	0.0	9.296900e-01	-1.551355e-02	0.0	9.214000e-01	-1.553875e-02	0.0	9.127000e-01	-1.538767e-02	0.0	9.035800e-01	-1.514556e-02	0.0	8.940600e-01	-1.488653e-02	0.0	8.841500e-01	-1.467447e-02	0.0	8.738500e-01	-1.456592e-02	0.0	8.631800e-01	-1.461157e-02	0.0	8.521600e-01	-1.485384e-02	0.0	8.407700e-01	-1.532600e-02	0.0	8.290500e-01	-1.604661e-02	0.0	8.170100e-01	-1.702071e-02	0.0	8.046400e-01	-1.824247e-02	0.0	7.919700e-01	-1.969172e-02	0.0	7.790100e-01	-2.134206e-02	0.0	7.657800e-01	-2.316124e-02	0.0	7.522800e-01	-2.511796e-02	0.0	7.385200e-01	-2.717984e-02	0.0	7.245300e-01	-2.931267e-02	0.0	7.103200e-01	-3.148697e-02	0.0	6.958900e-01	-3.367674e-02	0.0	6.812700e-01	-3.585317e-02	0.0	6.664700e-01	-3.799220e-02	0.0	6.515000e-01	-4.007148e-02	0.0	6.363800e-01	-4.206920e-02	0.0	6.211300e-01	-4.396607e-02	0.0	6.057600e-01	-4.574690e-02	0.0	5.902800e-01	-4.739953e-02	0.0	5.747100e-01	-4.891436e-02	0.0	5.590600e-01	-5.028658e-02	0.0	5.433600e-01	-5.151363e-02	0.0	5.276100e-01	-5.259917e-02	0.0	5.118400e-01	-5.354804e-02	0.0	4.960500e-01	-5.437000e-02	0.0	4.802700e-01	-5.507545e-02	0.0	4.645100e-01	-5.567764e-02	0.0	4.487800e-01	-5.619070e-02	0.0	4.331100e-01	-5.662855e-02	0.0	4.175000e-01	-5.700576e-02	0.0	4.019700e-01	-5.733552e-02	0.0	3.865400e-01	-5.762982e-02	0.0	3.712300e-01	-5.789908e-02	0.0	3.560400e-01	-5.815211e-02	0.0	3.409900e-01	-5.839532e-02	0.0	3.261100e-01	-5.863275e-02	0.0	3.114000e-01	-5.886673e-02	0.0	2.968700e-01	-5.909723e-02	0.0	2.825500e-01	-5.932186e-02	0.0	2.684500e-01	-5.953657e-02	0.0	2.545700e-01	-5.973571e-02	0.0	2.409400e-01	-5.991161e-02	0.0	2.275700e-01	-6.005555e-02	0.0	2.144700e-01	-6.015768e-02	0.0	2.016600e-01	-6.020718e-02	0.0	1.891400e-01	-6.019263e-02	0.0	1.769300e-01	-6.010209e-02	0.0	1.650400e-01	-5.992341e-02	0.0	1.534900e-01	-5.964465e-02	0.0	1.422900e-01	-5.925400e-02	0.0	1.314400e-01	-5.873949e-02	0.0	1.209500e-01	-5.808974e-02	0.0	1.108500e-01	-5.729570e-02	0.0	1.011300e-01	-5.634629e-02	0.0	9.181000e-02	-5.523366e-02	0.0	8.290000e-02	-5.395039e-02	0.0	7.440000e-02	-5.248846e-02	0.0	6.633000e-02	-5.084435e-02	0.0	5.869000e-02	-4.901230e-02	0.0	5.149000e-02	-4.698972e-02	0.0	4.474000e-02	-4.477591e-02	0.0	3.844000e-02	-4.236827e-02	0.0	3.260000e-02	-3.976912e-02	0.0	2.723000e-02	-3.698360e-02	0.0	2.232000e-02	-3.400754e-02	0.0	1.790000e-02	-3.086356e-02	0.0	1.395000e-02	-2.754423e-02	0.0	1.049000e-02	-2.407497e-02	0.0	7.520000e-03	-2.047152e-02	0.0	5.040000e-03	-1.675412e-02	0.0	3.050000e-03	-1.294860e-02	0.0	1.560000e-03	-9.117409e-03	0.0	5.600000e-04	-5.294863e-03	0.0	6.000000e-05	-1.616191e-03	0.0	0.000000e+00	0.000000e+00	0.0	6.000000e-05	1.481555e-03	0.0	5.600000e-04	4.482509e-03	0.0	1.560000e-03	7.271501e-03	0.0	3.050000e-03	9.822491e-03	0.0	5.040000e-03	1.216411e-02	0.0	7.520000e-03	1.430061e-02	0.0	1.049000e-02	1.625599e-02	0.0	1.395000e-02	1.805385e-02	0.0	1.790000e-02	1.971705e-02	0.0	2.232000e-02	2.126078e-02	0.0	2.723000e-02	2.271321e-02	0.0	3.260000e-02	2.408439e-02	0.0	3.844000e-02	2.539411e-02	0.0	4.474000e-02	2.665423e-02	0.0	5.149000e-02	2.787464e-02	0.0	5.869000e-02	2.906472e-02	0.0	6.633000e-02	3.022976e-02	0.0	7.440000e-02	3.137319e-02	0.0	8.290000e-02	3.249798e-02	0.0	9.181000e-02	3.360285e-02	0.0	1.011300e-01	3.468781e-02	0.0	1.108500e-01	3.575050e-02	0.0	1.209500e-01	3.678681e-02	0.0	1.314400e-01	3.779520e-02	0.0	1.422900e-01	3.876984e-02	0.0	1.534900e-01	3.970700e-02	0.0	1.650400e-01	4.060378e-02	0.0	1.769300e-01	4.145666e-02	0.0	1.891400e-01	4.226192e-02	0.0	2.016600e-01	4.301711e-02	0.0	2.144700e-01	4.371981e-02	0.0	2.275700e-01	4.436930e-02	0.0	2.409400e-01	4.496437e-02	0.0	2.545700e-01	4.550484e-02	0.0	2.684500e-01	4.599095e-02	0.0	2.825500e-01	4.642266e-02	0.0	2.968700e-01	4.680115e-02	0.0	3.114000e-01	4.712725e-02	0.0	3.261100e-01	4.740128e-02	0.0	3.409900e-01	4.762383e-02	0.0	3.560400e-01	4.779505e-02	0.0	3.712300e-01	4.791408e-02	0.0	3.865400e-01	4.797954e-02	0.0	4.019700e-01	4.798921e-02	0.0	4.175000e-01	4.793970e-02	0.0	4.331100e-01	4.782662e-02	0.0	4.487800e-01	4.764457e-02	0.0	4.645100e-01	4.738684e-02	0.0	4.802700e-01	4.704625e-02	0.0	4.960500e-01	4.661466e-02	0.0	5.118400e-01	4.608348e-02	0.0	5.276100e-01	4.544499e-02	0.0	5.433600e-01	4.469099e-02	0.0	5.590600e-01	4.381593e-02	0.0	5.747100e-01	4.281477e-02	0.0	5.902800e-01	4.168713e-02	0.0	6.057600e-01	4.043511e-02	0.0	6.211300e-01	3.906598e-02	0.0	6.363800e-01	3.759127e-02	0.0	6.515000e-01	3.602784e-02	0.0	6.664700e-01	3.439918e-02	0.0	6.812700e-01	3.273424e-02	0.0	6.958900e-01	3.106536e-02	0.0	7.103200e-01	2.942809e-02	0.0	7.245300e-01	2.786155e-02	0.0	7.385200e-01	2.640037e-02	0.0	7.522800e-01	2.507671e-02	0.0	7.657800e-01	2.391771e-02	0.0	7.790100e-01	2.293865e-02	0.0	7.919700e-01	2.214205e-02	0.0	8.046400e-01	2.151750e-02	0.0	8.170100e-01	2.103826e-02	0.0	8.290500e-01	2.066236e-02	0.0	8.407700e-01	2.033182e-02	0.0	8.521600e-01	1.997706e-02	0.0	8.631800e-01	1.952142e-02	0.0	8.738500e-01	1.888397e-02	0.0	8.841500e-01	1.799128e-02	0.0	8.940600e-01	1.678782e-02	0.0	9.035800e-01	1.524588e-02	0.0	9.127000e-01	1.338161e-02	0.0	9.214000e-01	1.126748e-02	0.0	9.296900e-01	9.024545e-03	0.0	9.375400e-01	6.828332e-03	0.0	9.449600e-01	4.859498e-03	0.0	9.519400e-01	3.279176e-03	0.0	9.584700e-01	2.180290e-03	0.0	9.645400e-01	1.559765e-03	0.0	9.701500e-01	1.321058e-03	0.0	9.752800e-01	1.310424e-03	0.0	9.799500e-01	1.368076e-03	0.0	9.841300e-01	1.375179e-03	0.0	9.878400e-01	1.277051e-03	0.0	9.910500e-01	1.079389e-03	0.0	9.937800e-01	8.219013e-04	0.0	9.960200e-01	5.550498e-04	0.0	9.977600e-01	3.210205e-04	0.0	9.990000e-01	1.448793e-04	0.0	9.997500e-01	3.632302e-05	0.0	1.000000e+00	0.000000e+00	0.0	
CELLS 200	600
2	199	0	2	0	1	2	1	2	2	2	3	2	3	4	2	4	5	2	5	6	2	6	7	2	7	8	2	8	9	2	9	10	2	10	11	2	11	12	2	12	13	2	13	14	2	14	15	2	15	16	2	16	17	2	17	18	2	18	19	2	19	20	2	20	21	2	21	22	2	22	23	2	23	24	2	24	25	2	25	26	2	26	27	2	27	28	2	28	29	2	29	30	2	30	31	2	31	32	2	32	33	2	33	34	2	34	35	2	35	36	2	36	37	2	37	38	2	38	39	2	39	40	2	40	41	2	41	42	2	42	43	2	43	44	2	44	45	2	45	46	2	46	47	2	47	48	2	48	49	2	49	50	2	50	51	2	51	52	2	52	53	2	53	54	2	54	55	2	55	56	2	56	57	2	57	58	2	58	59	2	59	60	2	60	61	2	61	62	2	62	63	2	63	64	2	64	65	2	65	66	2	66	67	2	67	68	2	68	69	2	69	70	2	70	71	2	71	72	2	72	73	2	73	74	2	74	75	2	75	76	2	76	77	2	77	78	2	78	79	2	79	80	2	80	81	2	81	82	2	82	83	2	83	84	2	84	85	2	85	86	2	86	87	2	87	88	2	88	89	2	89	90	2	90	91	2	91	92	2	92	93	2	93	94	2	94	95	2	95	96	2	96	97	2	97	98	2	98	99	2	99	100	2	100	101	2	101	102	2	102	103	2	103	104	2	104	105	2	105	106	2	106	107	2	107	108	2	108	109	2	109	110	2	110	111	2	111	112	2	112	113	2	113	114	2	114	115	2	115	116	2	116	117	2	117	118	2	118	119	2	119	120	2	120	121	2	121	122	2	122	123	2	123	124	2	124	125	2	125	126	2	126	127	2	127	128	2	128	129	2	129	130	2	130	131	2	131	132	2	132	133	2	133	134	2	134	135	2	135	136	2	136	137	2	137	138	2	138	139	2	139	140	2	140	141	2	141	142	2	142	143	2	143	144	2	144	145	2	145	146	2	146	147	2	147	148	2	148	149	2	149	150	2	150	151	2	151	152	2	152	153	2	153	154	2	154	155	2	155	156	2	156	157	2	157	158	2	158	159	2	159	160	2	160	161	2	161	162	2	162	163	2	163	164	2	164	165	2	165	166	2	166	167	2	167	168	2	168	169	2	169	170	2	170	171	2	171	172	2	172	173	2	173	174	2	174	175	2	175	176	2	176	177	2	177	178	2	178	179	2	179	180	2	180	181	2	181	182	2	182	183	2	183	184	2	184	185	2	185	186	2	186	187	2	187	188	2	188	189	2	189	190	2	190	191	2	191	192	2	192	193	2	193	194	2	194	195	2	195	196	2	196	197	2	197	198	2	198	199	
CELL_TYPES 200
3	3	3	3	3	3	3	3	3	3	3	3	3	3	3	3	3	3	3	3	3	3	3	3	3	3	3	3	3	3	3	3	3	3	3	3	3	3	3	3	3	3	3	3	3	3	3	3	3	3	3	3	3	3	3	3	3	3	3	3	3	3	3	3	3	3	3	3	3	3	3	3	3	3	3	3	3	3	3	3	3	3	3	3	3	3	3	3	3	3	3	3	3	3	3	3	3	3	3	3	3	3	3	3	3	3	3	3	3	3	3	3	3	3	3	3	3	3	3	3	3	3	3	3	3	3	3	3	3	3	3	3	3	3	3	3	3	3	3	3	3	3	3	3	3	3	3	3	3	3	3	3	3	3	3	3	3	3	3	3	3	3	3	3	3	3	3	3	3	3	3	3	3	3	3	3	3	3	3	3	3	3	3	3	3	3	3	3	3	3	3	3	3	3	3	3	3	3	3	3	
POINT_DATA 200

SCALARS Conservative_1 float 1
LOOKUP_TABLE default
1.179578e+00	1.168261e+00	1.161935e+00	1.159397e+00	1.157772e+00	1.154773e+00	1.146721e+00	1.130866e+00	1.104055e+00	1.065214e+00	1.015243e+00	9.382221e-01	8.184274e-01	7.498099e-01	7.611303e-01	8.089893e-01	8.670621e-01	9.193589e-01	9.606580e-01	9.929826e-01	1.018300e+00	1.038022e+00	1.053070e+00	1.063956e+00	1.071060e+00	1.074656e+00	1.075078e+00	1.072607e+00	1.067664e+00	1.060622e+00	1.051846e+00	1.041681e+00	1.030382e+00	1.018205e+00	1.005353e+00	9.919156e-01	9.780679e-01	9.638165e-01	9.493655e-01	9.347511e-01	9.202353e-01	9.059878e-01	8.920718e-01	8.784578e-01	8.655538e-01	8.545300e-01	8.469458e-01	8.437764e-01	8.449783e-01	8.496040e-01	8.564251e-01	8.643441e-01	8.726284e-01	8.808494e-01	8.888088e-01	8.964962e-01	9.040159e-01	9.112047e-01	9.172169e-01	9.211899e-01	9.248751e-01	9.344120e-01	9.508718e-01	9.483648e-01	8.762777e-01	7.532393e-01	6.961053e-01	6.951637e-01	6.972808e-01	6.951417e-01	6.925726e-01	6.919290e-01	6.926812e-01	6.941084e-01	6.968705e-01	7.017655e-01	7.090065e-01	7.183453e-01	7.293712e-01	7.423357e-01	7.576187e-01	7.754434e-01	7.961256e-01	8.198094e-01	8.468072e-01	8.774984e-01	9.121279e-01	9.509486e-01	9.939985e-01	1.040740e+00	1.090570e+00	1.142348e+00	1.194109e+00	1.243657e+00	1.287529e+00	1.322291e+00	1.343131e+00	1.349073e+00	1.333562e+00	1.303722e+00	1.284743e+00	1.233484e+00	1.122305e+00	1.015476e+00	9.144554e-01	8.275783e-01	7.613225e-01	7.161821e-01	6.876369e-01	6.709069e-01	6.624006e-01	6.594566e-01	6.607161e-01	6.646564e-01	6.700869e-01	6.765034e-01	6.835652e-01	6.911378e-01	6.990889e-01	7.067618e-01	7.131292e-01	7.178005e-01	7.215705e-01	7.255538e-01	7.300379e-01	7.343990e-01	7.378667e-01	7.401584e-01	7.415297e-01	7.423682e-01	7.430321e-01	7.437307e-01	7.445683e-01	7.455198e-01	7.465865e-01	7.476992e-01	7.489033e-01	7.500744e-01	7.511548e-01	7.522039e-01	7.532188e-01	7.537007e-01	7.519924e-01	7.474414e-01	7.463415e-01	7.672481e-01	8.203877e-01	8.718755e-01	8.877522e-01	8.781694e-01	8.624512e-01	8.524308e-01	8.506423e-01	8.559816e-01	8.661447e-01	8.790053e-01	8.926577e-01	9.065382e-01	9.209684e-01	9.360350e-01	9.512847e-01	9.662174e-01	9.804004e-01	9.935064e-01	1.005124e+00	1.014855e+00	1.022292e+00	1.027081e+00	1.028837e+00	1.027246e+00	1.021945e+00	1.012741e+00	9.994083e-01	9.820574e-01	9.613494e-01	9.393473e-01	9.198839e-01	9.085343e-01	9.121042e-01	9.351865e-01	9.749983e-01	1.021464e+00	1.065964e+00	1.105395e+00	1.137144e+00	1.158972e+00	1.169820e+00	1.169476e+00	1.158526e+00	1.139150e+00	1.116134e+00	1.096205e+00	1.085472e+00	1.087207e+00	1.099783e+00	1.118415e+00	1.139031e+00	1.160398e+00	1.186618e+00	1.168084e+00	
SCALARS Conservative_2 float 1
LOOKUP_TABLE default
6.351015e-01	6.605541e-01	6.744676e-01	6.799264e-01	6.805775e-01	6.819686e-01	6.874785e-01	7.018440e-01	7.279298e-01	7.657237e-01	8.106940e-01	8.586866e-01	9.007766e-01	9.264686e-01	9.557363e-01	9.705272e-01	9.708994e-01	9.632642e-01	9.495959e-01	9.338637e-01	9.183985e-01	9.043489e-01	8.922621e-01	8.824728e-01	8.753491e-01	8.709416e-01	8.693200e-01	8.701937e-01	8.733670e-01	8.783548e-01	8.847062e-01	8.919816e-01	8.997597e-01	9.077862e-01	9.158472e-01	9.236520e-01	9.311915e-01	9.381490e-01	9.446078e-01	9.503752e-01	9.554321e-01	9.596751e-01	9.632226e-01	9.659802e-01	9.680203e-01	9.692889e-01	9.700015e-01	9.703730e-01	9.706033e-01	9.706888e-01	9.706177e-01	9.703024e-01	9.697509e-01	9.689756e-01	9.680037e-01	9.668247e-01	9.655072e-01	9.641749e-01	9.630426e-01	9.622826e-01	9.613304e-01	9.588071e-01	9.540556e-01	9.513190e-01	9.580909e-01	9.617931e-01	9.396686e-01	9.455134e-01	9.452211e-01	9.441452e-01	9.434284e-01	9.430845e-01	9.433538e-01	9.438181e-01	9.447387e-01	9.462607e-01	9.483967e-01	9.509439e-01	9.530785e-01	9.547697e-01	9.557044e-01	9.551944e-01	9.526680e-01	9.470365e-01	9.371373e-01	9.214292e-01	8.979313e-01	8.647303e-01	8.194966e-01	7.597202e-01	6.837958e-01	5.912502e-01	4.835216e-01	3.660881e-01	2.467025e-01	1.360522e-01	4.727440e-02	-9.349476e-03	-2.295470e-02	4.170499e-03	5.815659e-02	1.616922e-01	3.340415e-01	5.148441e-01	6.596212e-01	7.567177e-01	8.145265e-01	8.478635e-01	8.671065e-01	8.793833e-01	8.883037e-01	8.953143e-01	9.016721e-01	9.075588e-01	9.129483e-01	9.180882e-01	9.229022e-01	9.275000e-01	9.319582e-01	9.359349e-01	9.392029e-01	9.418264e-01	9.441510e-01	9.464837e-01	9.488173e-01	9.508607e-01	9.524833e-01	9.536455e-01	9.545679e-01	9.553155e-01	9.560290e-01	9.566715e-01	9.573191e-01	9.579212e-01	9.585264e-01	9.590942e-01	9.596632e-01	9.601770e-01	9.606648e-01	9.611074e-01	9.614643e-01	9.614789e-01	9.609890e-01	9.603558e-01	9.606470e-01	9.680722e-01	9.739788e-01	9.715757e-01	9.704182e-01	9.714521e-01	9.729537e-01	9.738565e-01	9.741018e-01	9.739189e-01	9.729967e-01	9.713207e-01	9.688048e-01	9.656112e-01	9.616092e-01	9.567744e-01	9.511069e-01	9.448283e-01	9.382249e-01	9.316388e-01	9.254815e-01	9.201638e-01	9.161569e-01	9.138401e-01	9.135378e-01	9.155332e-01	9.197830e-01	9.263208e-01	9.345808e-01	9.438394e-01	9.530560e-01	9.609492e-01	9.657271e-01	9.655183e-01	9.587049e-01	9.440730e-01	9.200794e-01	8.864393e-01	8.470243e-01	8.082290e-01	7.762441e-01	7.559275e-01	7.498960e-01	7.584586e-01	7.792969e-01	8.074863e-01	8.359103e-01	8.564082e-01	8.635785e-01	8.572800e-01	8.400706e-01	8.158170e-01	7.866657e-01	7.533709e-01	7.171360e-01	6.221234e-01	
SCALARS Conservative_3 float 1
LOOKUP_TABLE default
9.289935e-02	9.484957e-02	1.024307e-01	1.127199e-01	1.295458e-01	1.542068e-01	1.858198e-01	2.210660e-01	2.547670e-01	2.789544e-01	2.827476e-01	2.634424e-01	2.315129e-01	1.675674e-01	1.101156e-01	5.767911e-02	1.677910e-02	-8.883615e-03	-2.190908e-02	-2.569003e-02	-2.268602e-02	-1.469382e-02	-2.983220e-03	1.143807e-02	2.764245e-02	4.470699e-02	6.176718e-02	7.806149e-02	9.294436e-02	1.060342e-01	1.170328e-01	1.258687e-01	1.325383e-01	1.371467e-01	1.398237e-01	1.407218e-01	1.399542e-01	1.376409e-01	1.338997e-01	1.288568e-01	1.226448e-01	1.153626e-01	1.073059e-01	9.871289e-02	8.986695e-02	8.090646e-02	7.193622e-02	6.318425e-02	5.484427e-02	4.718079e-02	4.031206e-02	3.434723e-02	2.929119e-02	2.516067e-02	2.190001e-02	1.941905e-02	1.756426e-02	1.624302e-02	1.551762e-02	1.556027e-02	1.603626e-02	1.549849e-02	1.266804e-02	8.992923e-03	9.895734e-03	2.508837e-02	1.172110e-02	8.167447e-03	5.321475e-03	1.883717e-03	-3.304285e-03	-9.892653e-03	-1.766459e-02	-2.686244e-02	-3.777952e-02	-5.069713e-02	-6.566501e-02	-8.288053e-02	-1.024728e-01	-1.248449e-01	-1.502123e-01	-1.787790e-01	-2.107946e-01	-2.463176e-01	-2.853155e-01	-3.274522e-01	-3.720642e-01	-4.177918e-01	-4.622437e-01	-5.018941e-01	-5.319060e-01	-5.456172e-01	-5.356143e-01	-4.945948e-01	-4.161383e-01	-2.974454e-01	-1.414934e-01	4.387704e-02	2.399145e-01	3.745702e-01	4.899978e-01	6.451243e-01	7.435333e-01	7.485606e-01	6.824729e-01	5.834141e-01	4.832893e-01	3.976953e-01	3.302947e-01	2.785961e-01	2.396946e-01	2.102296e-01	1.877379e-01	1.702548e-01	1.562883e-01	1.447911e-01	1.350524e-01	1.265821e-01	1.191378e-01	1.124560e-01	1.061537e-01	9.990853e-02	9.368844e-02	8.769215e-02	8.204973e-02	7.662491e-02	7.123287e-02	6.574900e-02	6.027295e-02	5.490472e-02	4.974505e-02	4.480500e-02	4.009864e-02	3.559783e-02	3.131572e-02	2.722156e-02	2.333508e-02	1.962267e-02	1.603992e-02	1.256969e-02	9.224793e-03	6.017547e-03	2.792013e-03	-1.311124e-03	-6.820740e-03	-1.387449e-02	-1.507194e-02	-1.401586e-02	-2.005334e-02	-2.816706e-02	-3.651980e-02	-4.417240e-02	-5.155347e-02	-5.906318e-02	-6.678664e-02	-7.457605e-02	-8.231070e-02	-8.974270e-02	-9.631135e-02	-1.015990e-01	-1.052465e-01	-1.070400e-01	-1.067062e-01	-1.041352e-01	-9.923696e-02	-9.220200e-02	-8.326753e-02	-7.290499e-02	-6.173013e-02	-5.053007e-02	-4.029075e-02	-3.215840e-02	-2.743171e-02	-2.755493e-02	-3.404755e-02	-4.818988e-02	-7.046303e-02	-1.003420e-01	-1.358917e-01	-1.730862e-01	-2.056209e-01	-2.268202e-01	-2.321816e-01	-2.198639e-01	-1.909419e-01	-1.497061e-01	-1.022540e-01	-5.581121e-02	-1.817384e-02	3.776487e-03	5.909538e-03	-1.005783e-02	-3.700909e-02	-6.572350e-02	-8.841247e-02	-1.016373e-01	-1.066678e-01	-1.047860e-01	-9.586015e-02	-1.758266e-03	
SCALARS Conservative_4 float 1
LOOKUP_TABLE default
3.376339e+00	3.348978e+00	3.333903e+00	3.328056e+00	3.324166e+00	3.316964e+00	3.296962e+00	3.257469e+00	3.190423e+00	3.092999e+00	2.966739e+00	2.768648e+00	2.458973e+00	2.283362e+00	2.320120e+00	2.448285e+00	2.600489e+00	2.736804e+00	2.843241e+00	2.925792e+00	2.990026e+00	3.039827e+00	3.077681e+00	3.104959e+00	3.122711e+00	3.131653e+00	3.132670e+00	3.126438e+00	3.114051e+00	3.096406e+00	3.074389e+00	3.048848e+00	3.020375e+00	2.989618e+00	2.957081e+00	2.922944e+00	2.887684e+00	2.851240e+00	2.814192e+00	2.776597e+00	2.739135e+00	2.702225e+00	2.666089e+00	2.630597e+00	2.596867e+00	2.567950e+00	2.547979e+00	2.539564e+00	2.542634e+00	2.554706e+00	2.572553e+00	2.593268e+00	2.614922e+00	2.636387e+00	2.657141e+00	2.677147e+00	2.696700e+00	2.715400e+00	2.731054e+00	2.741409e+00	2.750947e+00	2.775643e+00	2.818251e+00	2.810755e+00	2.620810e+00	2.299678e+00	2.144249e+00	2.144112e+00	2.149404e+00	2.143502e+00	2.136660e+00	2.134902e+00	2.136972e+00	2.140883e+00	2.148447e+00	2.161791e+00	2.181510e+00	2.206949e+00	2.236810e+00	2.271827e+00	2.312978e+00	2.360740e+00	2.415917e+00	2.478736e+00	2.549901e+00	2.630239e+00	2.720176e+00	2.820245e+00	2.930319e+00	3.048705e+00	3.173735e+00	3.302386e+00	3.429698e+00	3.550626e+00	3.656822e+00	3.740443e+00	3.790020e+00	3.804628e+00	3.766904e+00	3.691913e+00	3.650087e+00	3.529688e+00	3.249500e+00	2.979784e+00	2.719519e+00	2.491390e+00	2.315265e+00	2.194591e+00	2.118017e+00	2.073162e+00	2.050552e+00	2.042902e+00	2.046640e+00	2.057608e+00	2.072556e+00	2.090173e+00	2.109485e+00	2.130148e+00	2.151830e+00	2.172698e+00	2.190002e+00	2.202737e+00	2.213064e+00	2.223973e+00	2.236203e+00	2.248034e+00	2.257427e+00	2.263624e+00	2.267372e+00	2.269693e+00	2.271567e+00	2.273518e+00	2.275840e+00	2.278457e+00	2.281373e+00	2.284414e+00	2.287697e+00	2.290876e+00	2.293840e+00	2.296693e+00	2.299435e+00	2.300678e+00	2.296070e+00	2.284080e+00	2.281334e+00	2.338174e+00	2.478742e+00	2.613387e+00	2.655073e+00	2.630133e+00	2.589134e+00	2.563114e+00	2.558631e+00	2.572732e+00	2.599423e+00	2.633060e+00	2.668587e+00	2.704649e+00	2.742014e+00	2.780907e+00	2.820141e+00	2.858426e+00	2.894661e+00	2.928057e+00	2.957590e+00	2.982280e+00	3.001128e+00	3.013266e+00	3.017732e+00	3.013756e+00	3.000375e+00	2.977115e+00	2.943289e+00	2.899098e+00	2.846151e+00	2.789745e+00	2.739675e+00	2.710228e+00	2.718976e+00	2.777945e+00	2.879721e+00	2.997611e+00	3.109386e+00	3.207875e+00	3.287016e+00	3.341492e+00	3.368834e+00	3.368566e+00	3.341962e+00	3.294167e+00	3.236930e+00	3.186885e+00	3.159352e+00	3.163051e+00	3.194066e+00	3.240252e+00	3.291101e+00	3.343541e+00	3.409266e+00	3.341340e+00	
SCALARS Pressure float 1
LOOKUP_TABLE default
1.280683e+00	1.263354e+00	1.253454e+00	1.249282e+00	1.246754e+00	1.242118e+00	1.230332e+00	1.207228e+00	1.168423e+00	1.112502e+00	1.041475e+00	9.354863e-01	7.722090e-01	6.769056e-01	6.848418e-01	7.456273e-01	8.226961e-01	8.928511e-01	9.494641e-01	9.945311e-01	1.030250e+00	1.058311e+00	1.079869e+00	1.095570e+00	1.105862e+00	1.111120e+00	1.111770e+00	1.108243e+00	1.101116e+00	1.090960e+00	1.078326e+00	1.063738e+00	1.047601e+00	1.030284e+00	1.012081e+00	9.931674e-01	9.737559e-01	9.539319e-01	9.339249e-01	9.138339e-01	8.939899e-01	8.746434e-01	8.558443e-01	8.375756e-01	8.203573e-01	8.057561e-01	7.957824e-01	7.916865e-01	7.933608e-01	7.995522e-01	8.086344e-01	8.191842e-01	8.302357e-01	8.412274e-01	8.518974e-01	8.622405e-01	8.723754e-01	8.820570e-01	8.901377e-01	8.954695e-01	9.004788e-01	9.134378e-01	9.358166e-01	9.334283e-01	8.387929e-01	6.740861e-01	6.039697e-01	6.004212e-01	6.034887e-01	6.009310e-01	5.976317e-01	5.968517e-01	5.977504e-01	5.994729e-01	6.028149e-01	6.087964e-01	6.176648e-01	6.290956e-01	6.427649e-01	6.589324e-01	6.781186e-01	7.007298e-01	7.272060e-01	7.578912e-01	7.933137e-01	8.341450e-01	8.809258e-01	9.341215e-01	9.940097e-01	1.060158e+00	1.131859e+00	1.207631e+00	1.284672e+00	1.359358e+00	1.426375e+00	1.479996e+00	1.512694e+00	1.521553e+00	1.498050e+00	1.455239e+00	1.422131e+00	1.340155e+00	1.181396e+00	1.029348e+00	8.907788e-01	7.759137e-01	6.904575e-01	6.329170e-01	5.967931e-01	5.755989e-01	5.646242e-01	5.606515e-01	5.618866e-01	5.664747e-01	5.729660e-01	5.806823e-01	5.892498e-01	5.984833e-01	6.081921e-01	6.176167e-01	6.254514e-01	6.311594e-01	6.357147e-01	6.405323e-01	6.460047e-01	6.513900e-01	6.556905e-01	6.585397e-01	6.602069e-01	6.611958e-01	6.619439e-01	6.627512e-01	6.637318e-01	6.648754e-01	6.661604e-01	6.675163e-01	6.689860e-01	6.704213e-01	6.717452e-01	6.730296e-01	6.742946e-01	6.749544e-01	6.728116e-01	6.668473e-01	6.652235e-01	6.909273e-01	7.601765e-01	8.287744e-01	8.497823e-01	8.369439e-01	8.158213e-01	8.022719e-01	7.997317e-01	8.066566e-01	8.201331e-01	8.372923e-01	8.556274e-01	8.743761e-01	8.939826e-01	9.145627e-01	9.355418e-01	9.562163e-01	9.759689e-01	9.943151e-01	1.010647e+00	1.024375e+00	1.034887e+00	1.041655e+00	1.044120e+00	1.041812e+00	1.034266e+00	1.021187e+00	1.002373e+00	9.780627e-01	9.492523e-01	9.187941e-01	8.920197e-01	8.766596e-01	8.820040e-01	9.141623e-01	9.695647e-01	1.035119e+00	1.099029e+00	1.156213e+00	1.202417e+00	1.234120e+00	1.249604e+00	1.248515e+00	1.231887e+00	1.203187e+00	1.169557e+00	1.140922e+00	1.126080e+00	1.129230e+00	1.147867e+00	1.175236e+00	1.205781e+00	1.237701e+00	1.275477e+00	1.270267e+00	
SCALARS Temperature float 1
LOOKUP_TABLE default
1.085713e+00	1.081397e+00	1.078764e+00	1.077527e+00	1.076857e+00	1.075638e+00	1.072912e+00	1.067525e+00	1.058301e+00	1.044393e+00	1.025838e+00	9.970841e-01	9.435278e-01	9.027696e-01	8.997694e-01	9.216775e-01	9.488318e-01	9.711670e-01	9.883476e-01	1.001559e+00	1.011735e+00	1.019546e+00	1.025448e+00	1.029713e+00	1.032493e+00	1.033931e+00	1.034129e+00	1.033224e+00	1.031332e+00	1.028604e+00	1.025175e+00	1.021175e+00	1.016711e+00	1.011863e+00	1.006692e+00	1.001262e+00	9.955913e-01	9.897443e-01	9.837358e-01	9.776227e-01	9.714798e-01	9.654030e-01	9.593894e-01	9.534614e-01	9.477831e-01	9.429231e-01	9.395907e-01	9.382658e-01	9.389126e-01	9.410881e-01	9.441975e-01	9.477524e-01	9.514195e-01	9.550184e-01	9.584709e-01	9.617893e-01	9.650000e-01	9.680120e-01	9.704768e-01	9.720791e-01	9.736221e-01	9.775536e-01	9.841670e-01	9.842503e-01	9.572228e-01	8.949163e-01	8.676412e-01	8.637120e-01	8.654888e-01	8.644727e-01	8.629156e-01	8.625910e-01	8.629517e-01	8.636589e-01	8.650314e-01	8.675211e-01	8.711694e-01	8.757566e-01	8.812589e-01	8.876475e-01	8.950659e-01	9.036505e-01	9.134312e-01	9.244724e-01	9.368291e-01	9.505944e-01	9.657920e-01	9.823050e-01	1.000011e+00	1.018658e+00	1.037860e+00	1.057148e+00	1.075841e+00	1.093034e+00	1.107839e+00	1.119266e+00	1.126245e+00	1.127851e+00	1.123345e+00	1.116219e+00	1.106938e+00	1.086479e+00	1.052652e+00	1.013661e+00	9.741085e-01	9.375714e-01	9.069185e-01	8.837375e-01	8.678899e-01	8.579415e-01	8.523909e-01	8.501720e-01	8.504206e-01	8.522820e-01	8.550622e-01	8.583582e-01	8.620243e-01	8.659391e-01	8.699781e-01	8.738682e-01	8.770521e-01	8.792964e-01	8.810153e-01	8.828185e-01	8.848920e-01	8.869702e-01	8.886301e-01	8.897281e-01	8.903311e-01	8.906574e-01	8.908685e-01	8.911173e-01	8.914317e-01	8.918279e-01	8.922748e-01	8.927605e-01	8.932876e-01	8.938064e-01	8.942834e-01	8.947436e-01	8.952174e-01	8.955205e-01	8.947054e-01	8.921734e-01	8.913124e-01	9.005266e-01	9.266063e-01	9.505650e-01	9.572292e-01	9.530551e-01	9.459333e-01	9.411578e-01	9.401504e-01	9.423761e-01	9.468777e-01	9.525451e-01	9.585168e-01	9.645221e-01	9.706984e-01	9.770604e-01	9.834510e-01	9.896492e-01	9.954800e-01	1.000814e+00	1.005495e+00	1.009381e+00	1.012320e+00	1.014189e+00	1.014854e+00	1.014180e+00	1.012056e+00	1.008339e+00	1.002967e+00	9.959323e-01	9.874166e-01	9.781196e-01	9.697090e-01	9.649164e-01	9.669991e-01	9.775188e-01	9.944271e-01	1.013368e+00	1.031020e+00	1.045973e+00	1.057401e+00	1.064840e+00	1.068202e+00	1.067585e+00	1.063323e+00	1.056215e+00	1.047864e+00	1.040792e+00	1.037410e+00	1.038652e+00	1.043721e+00	1.050805e+00	1.058603e+00	1.066617e+00	1.074884e+00	1.087479e+00	
SCALARS Pressure_Coefficient float 1
LOOKUP_TABLE default
6.265242e-01	5.878428e-01	5.657449e-01	5.564337e-01	5.507905e-01	5.404410e-01	5.141331e-01	4.625635e-01	3.759446e-01	2.511210e-01	9.257800e-02	-1.440037e-01	-5.084621e-01	-7.211930e-01	-7.034781e-01	-5.677963e-01	-3.957676e-01	-2.391717e-01	-1.128034e-01	-1.220743e-02	6.752211e-02	1.301593e-01	1.782781e-01	2.133260e-01	2.362988e-01	2.480367e-01	2.494862e-01	2.416149e-01	2.257064e-01	2.030363e-01	1.748355e-01	1.422727e-01	1.062525e-01	6.759882e-02	2.696627e-02	-1.525138e-02	-5.858067e-02	-1.028306e-01	-1.474890e-01	-1.923350e-01	-2.366296e-01	-2.798138e-01	-3.217762e-01	-3.625544e-01	-4.009882e-01	-4.335800e-01	-4.558429e-01	-4.649855e-01	-4.612483e-01	-4.474282e-01	-4.271553e-01	-4.036068e-01	-3.789382e-01	-3.544032e-01	-3.305862e-01	-3.074989e-01	-2.848764e-01	-2.632655e-01	-2.452284e-01	-2.333271e-01	-2.221455e-01	-1.932192e-01	-1.432665e-01	-1.485975e-01	-3.598372e-01	-7.274864e-01	-8.839963e-01	-8.919169e-01	-8.850699e-01	-8.907790e-01	-8.981435e-01	-8.998845e-01	-8.978785e-01	-8.940338e-01	-8.865739e-01	-8.732224e-01	-8.534269e-01	-8.279116e-01	-7.973998e-01	-7.613117e-01	-7.184852e-01	-6.680138e-01	-6.089153e-01	-5.404215e-01	-4.613534e-01	-3.702120e-01	-2.657905e-01	-1.470502e-01	-1.337116e-02	1.342816e-01	2.943286e-01	4.634613e-01	6.354280e-01	8.021394e-01	9.517301e-01	1.071419e+00	1.144407e+00	1.164181e+00	1.111719e+00	1.016159e+00	9.422577e-01	7.592740e-01	4.049026e-01	6.550857e-02	-2.437973e-01	-5.001926e-01	-6.909431e-01	-8.193817e-01	-9.000153e-01	-9.473239e-01	-9.718209e-01	-9.806886e-01	-9.779317e-01	-9.676905e-01	-9.532009e-01	-9.359771e-01	-9.168531e-01	-8.962427e-01	-8.745713e-01	-8.535343e-01	-8.360460e-01	-8.233048e-01	-8.131368e-01	-8.023833e-01	-7.901681e-01	-7.781472e-01	-7.685479e-01	-7.621882e-01	-7.584666e-01	-7.562595e-01	-7.545895e-01	-7.527874e-01	-7.505988e-01	-7.480460e-01	-7.451778e-01	-7.421512e-01	-7.388705e-01	-7.356667e-01	-7.327115e-01	-7.298447e-01	-7.270210e-01	-7.255482e-01	-7.303312e-01	-7.436444e-01	-7.472690e-01	-6.898944e-01	-5.353204e-01	-3.822000e-01	-3.353073e-01	-3.639646e-01	-4.111131e-01	-4.413574e-01	-4.470273e-01	-4.315700e-01	-4.014886e-01	-3.631869e-01	-3.222603e-01	-2.804104e-01	-2.366461e-01	-1.907083e-01	-1.438798e-01	-9.773151e-02	-5.364076e-02	-1.268954e-02	2.376497e-02	5.440835e-02	7.787186e-02	9.297886e-02	9.848190e-02	9.332934e-02	7.648611e-02	4.729230e-02	5.297363e-03	-4.896717e-02	-1.132761e-01	-1.812632e-01	-2.410275e-01	-2.753133e-01	-2.633840e-01	-1.916019e-01	-6.793597e-02	7.838969e-02	2.210479e-01	3.486907e-01	4.518244e-01	5.225892e-01	5.571519e-01	5.547206e-01	5.176050e-01	4.535428e-01	3.784764e-01	3.145583e-01	2.814275e-01	2.884595e-01	3.300604e-01	3.911510e-01	4.593329e-01	5.305825e-01	6.149035e-01	6.032738e-01	
SCALARS Mach float 1
LOOKUP_TABLE default
4.413592e-01	4.642412e-01	4.777530e-01	4.839929e-01	4.873491e-01	4.933998e-01	5.067182e-01	5.322514e-01	5.738807e-01	6.327025e-01	7.056847e-01	8.102750e-01	9.887483e-01	1.116907e+00	1.126193e+00	1.057979e+00	9.716956e-01	8.986029e-01	8.405561e-01	7.945180e-01	7.580371e-01	7.293221e-01	7.071585e-01	6.908628e-01	6.801057e-01	6.744986e-01	6.737234e-01	6.772585e-01	6.846116e-01	6.951248e-01	7.081919e-01	7.232502e-01	7.398213e-01	7.575721e-01	7.762389e-01	7.955702e-01	8.154850e-01	8.357502e-01	8.563175e-01	8.770111e-01	8.975714e-01	9.176962e-01	9.374404e-01	9.567260e-01	9.750690e-01	9.906755e-01	1.001324e+00	1.005549e+00	1.003487e+00	9.965446e-01	9.865921e-01	9.751713e-01	9.633384e-01	9.516728e-01	9.404296e-01	9.295717e-01	9.190171e-01	9.090695e-01	9.008931e-01	8.955615e-01	8.904116e-01	8.772336e-01	8.548533e-01	8.545813e-01	9.445340e-01	1.141146e+00	1.224897e+00	1.236939e+00	1.231510e+00	1.234601e+00	1.239362e+00	1.240356e+00	1.239253e+00	1.237091e+00	1.232897e+00	1.225285e+00	1.214124e+00	1.200077e+00	1.183205e+00	1.163578e+00	1.140724e+00	1.114177e+00	1.083771e+00	1.049197e+00	1.010121e+00	9.660048e-01	9.164067e-01	8.611799e-01	7.999803e-01	7.326151e-01	6.590048e-01	5.789140e-01	4.923813e-01	3.999766e-01	3.017028e-01	1.976067e-01	8.845401e-02	2.646393e-02	1.441125e-01	2.298457e-01	3.085245e-01	4.371845e-01	5.982821e-01	7.510248e-01	8.887931e-01	1.007763e+00	1.104040e+00	1.175599e+00	1.224160e+00	1.254561e+00	1.271507e+00	1.278281e+00	1.277521e+00	1.271840e+00	1.263352e+00	1.253288e+00	1.242089e+00	1.230124e+00	1.217771e+00	1.205863e+00	1.196110e+00	1.189229e+00	1.183953e+00	1.178419e+00	1.172049e+00	1.165660e+00	1.160556e+00	1.157176e+00	1.155321e+00	1.154315e+00	1.153665e+00	1.152900e+00	1.151927e+00	1.150710e+00	1.149323e+00	1.147830e+00	1.146204e+00	1.144595e+00	1.143145e+00	1.141722e+00	1.140260e+00	1.139325e+00	1.141833e+00	1.149653e+00	1.152280e+00	1.123839e+00	1.042487e+00	9.660785e-01	9.444695e-01	9.580816e-01	9.810001e-01	9.962926e-01	9.995443e-01	9.923831e-01	9.779815e-01	9.597114e-01	9.402629e-01	9.205845e-01	9.001505e-01	8.788760e-01	8.572772e-01	8.360700e-01	8.158569e-01	7.971360e-01	7.805068e-01	7.665474e-01	7.558896e-01	7.490652e-01	7.466262e-01	7.490982e-01	7.568463e-01	7.702950e-01	7.895027e-01	8.142679e-01	8.437230e-01	8.753054e-01	9.034198e-01	9.192699e-01	9.123953e-01	8.773238e-01	8.195096e-01	7.520553e-01	6.857854e-01	6.261741e-01	5.777710e-01	5.445715e-01	5.290440e-01	5.319221e-01	5.514660e-01	5.829333e-01	6.183545e-01	6.472511e-01	6.607580e-01	6.558189e-01	6.353958e-01	6.060511e-01	5.725065e-01	5.364068e-01	4.970402e-01	4.316480e-01	