# vtk DataFile Version 3.0
vtk output
ASCII
DATASET UNSTRUCTURED_GRID
POINTS 5233 float
9.997500e-01	-3.633243e-05	0.0	9.990000e-01	-1.454726e-04	0.0	9.977600e-01	-3.275099e-04	0.0	9.960200e-01	-5.899411e-04	0.0	9.937800e-01	-9.471452e-04	0.0	9.910500e-01	-1.422236e-03	0.0	9.878400e-01	-2.045838e-03	0.0	9.841300e-01	-2.854309e-03	0.0	9.799500e-01	-3.859993e-03	0.0	9.752800e-01	-5.060059e-03	0.0	9.701500e-01	-6.407664e-03	0.0	9.645400e-01	-7.844288e-03	0.0	9.584700e-01	-9.294533e-03	0.0	9.519400e-01	-1.070299e-02	0.0	9.449600e-01	-1.204169e-02	0.0	9.375400e-01	-1.331501e-02	0.0	9.296900e-01	-1.455028e-02	0.0	9.214000e-01	-1.578579e-02	0.0	9.127000e-01	-1.704881e-02	0.0	9.035800e-01	-1.836036e-02	0.0	8.940600e-01	-1.972409e-02	0.0	8.841500e-01	-2.113537e-02	0.0	8.738500e-01	-2.258599e-02	0.0	8.631800e-01	-2.406384e-02	0.0	8.521600e-01	-2.555826e-02	0.0	8.407700e-01	-2.706609e-02	0.0	8.290500e-01	-2.857810e-02	0.0	8.170100e-01	-3.009043e-02	0.0	8.046400e-01	-3.160228e-02	0.0	7.919700e-01	-3.310799e-02	0.0	7.790100e-01	-3.460430e-02	0.0	7.657800e-01	-3.608659e-02	0.0	7.522800e-01	-3.755231e-02	0.0	7.385200e-01	-3.899760e-02	0.0	7.245300e-01	-4.041659e-02	0.0	7.103200e-01	-4.180565e-02	0.0	6.958900e-01	-4.316223e-02	0.0	6.812700e-01	-4.448111e-02	0.0	6.664700e-01	-4.575931e-02	0.0	6.515000e-01	-4.699404e-02	0.0	6.363800e-01	-4.818200e-02	0.0	6.211300e-01	-4.932028e-02	0.0	6.057600e-01	-5.040702e-02	0.0	5.902800e-01	-5.144060e-02	0.0	5.747100e-01	-5.241897e-02	0.0	5.590600e-01	-5.334097e-02	0.0	5.433600e-01	-5.420452e-02	0.0	5.276100e-01	-5.500944e-02	0.0	5.118400e-01	-5.575409e-02	0.0	4.960500e-01	-5.643842e-02	0.0	4.802700e-01	-5.706110e-02	0.0	4.645100e-01	-5.762174e-02	0.0	4.487800e-01	-5.811988e-02	0.0	4.331100e-01	-5.855447e-02	0.0	4.175000e-01	-5.892526e-02	0.0	4.019700e-01	-5.923139e-02	0.0	3.865400e-01	-5.947196e-02	0.0	3.712300e-01	-5.964610e-02	0.0	3.560400e-01	-5.975301e-02	0.0	3.409900e-01	-5.979155e-02	0.0	3.261100e-01	-5.976062e-02	0.0	3.114000e-01	-5.965905e-02	0.0	2.968700e-01	-5.948550e-02	0.0	2.825500e-01	-5.923887e-02	0.0	2.684500e-01	-5.891786e-02	0.0	2.545700e-01	-5.852079e-02	0.0	2.409400e-01	-5.804679e-02	0.0	2.275700e-01	-5.749456e-02	0.0	2.144700e-01	-5.686282e-02	0.0	2.016600e-01	-5.615087e-02	0.0	1.891400e-01	-5.535701e-02	0.0	1.769300e-01	-5.448081e-02	0.0	1.650400e-01	-5.352142e-02	0.0	1.534900e-01	-5.247905e-02	0.0	1.422900e-01	-5.135340e-02	0.0	1.314400e-01	-5.014319e-02	0.0	1.209500e-01	-4.884815e-02	0.0	1.108500e-01	-4.747106e-02	0.0	1.011300e-01	-4.600972e-02	0.0	9.181000e-02	-4.446623e-02	0.0	8.290000e-02	-4.284169e-02	0.0	7.440000e-02	-4.113543e-02	0.0	6.633000e-02	-3.935098e-02	0.0	5.869000e-02	-3.748803e-02	0.0	5.149000e-02	-3.554856e-02	0.0	4.474000e-02	-3.353510e-02	0.0	3.844000e-02	-3.144732e-02	0.0	3.260000e-02	-2.928805e-02	0.0	2.723000e-02	-2.706098e-02	0.0	2.232000e-02	-2.476106e-02	0.0	1.790000e-02	-2.240230e-02	0.0	1.395000e-02	-1.997387e-02	0.0	1.049000e-02	-1.748705e-02	0.0	7.520000e-03	-1.494278e-02	0.0	5.040000e-03	-1.234127e-02	0.0	3.050000e-03	-9.681045e-03	0.0	1.560000e-03	-6.977438e-03	0.0	5.600000e-04	-4.209436e-03	0.0	6.000000e-05	-1.384727e-03	0.0	0.000000e+00	0.000000e+00	0.0	6.000000e-05	1.264663e-03	0.0	5.600000e-04	3.629140e-03	0.0	1.560000e-03	5.796619e-03	0.0	3.050000e-03	7.818405e-03	0.0	5.040000e-03	9.739345e-03	0.0	7.520000e-03	1.156705e-02	0.0	1.049000e-02	1.331644e-02	0.0	1.395000e-02	1.499799e-02	0.0	1.790000e-02	1.661958e-02	0.0	2.232000e-02	1.818080e-02	0.0	2.723000e-02	1.969482e-02	0.0	3.260000e-02	2.115750e-02	0.0	3.844000e-02	2.257654e-02	0.0	4.474000e-02	2.395332e-02	0.0	5.149000e-02	2.528924e-02	0.0	5.869000e-02	2.658733e-02	0.0	6.633000e-02	2.784835e-02	0.0	7.440000e-02	2.907298e-02	0.0	8.290000e-02	3.026315e-02	0.0	9.181000e-02	3.141780e-02	0.0	1.011300e-01	3.253846e-02	0.0	1.108500e-01	3.362511e-02	0.0	1.209500e-01	3.467667e-02	0.0	1.314400e-01	3.569500e-02	0.0	1.422900e-01	3.667786e-02	0.0	1.534900e-01	3.762500e-02	0.0	1.650400e-01	3.853682e-02	0.0	1.769300e-01	3.941264e-02	0.0	1.891400e-01	4.025103e-02	0.0	2.016600e-01	4.105123e-02	0.0	2.144700e-01	4.181176e-02	0.0	2.275700e-01	4.253223e-02	0.0	2.409400e-01	4.321095e-02	0.0	2.545700e-01	4.384670e-02	0.0	2.684500e-01	4.443808e-02	0.0	2.825500e-01	4.498281e-02	0.0	2.968700e-01	4.547973e-02	0.0	3.114000e-01	4.592707e-02	0.0	3.261100e-01	4.632239e-02	0.0	3.409900e-01	4.666381e-02	0.0	3.560400e-01	4.694947e-02	0.0	3.712300e-01	4.717681e-02	0.0	3.865400e-01	4.734354e-02	0.0	4.019700e-01	4.744748e-02	0.0	4.175000e-01	4.748621e-02	0.0	4.331100e-01	4.745736e-02	0.0	4.487800e-01	4.735869e-02	0.0	4.645100e-01	4.718785e-02	0.0	4.802700e-01	4.694285e-02	0.0	4.960500e-01	4.662167e-02	0.0	5.118400e-01	4.622236e-02	0.0	5.276100e-01	4.574378e-02	0.0	5.433600e-01	4.518421e-02	0.0	5.590600e-01	4.454329e-02	0.0	5.747100e-01	4.381988e-02	0.0	5.902800e-01	4.301460e-02	0.0	6.057600e-01	4.212771e-02	0.0	6.211300e-01	4.116058e-02	0.0	6.363800e-01	4.011459e-02	0.0	6.515000e-01	3.899168e-02	0.0	6.664700e-01	3.779519e-02	0.0	6.812700e-01	3.652932e-02	0.0	6.958900e-01	3.519821e-02	0.0	7.103200e-01	3.380668e-02	0.0	7.245300e-01	3.236227e-02	0.0	7.385200e-01	3.087033e-02	0.0	7.522800e-01	2.933780e-02	0.0	7.657800e-01	2.777459e-02	0.0	7.790100e-01	2.618906e-02	0.0	7.919700e-01	2.458887e-02	0.0	8.046400e-01	2.298456e-02	0.0	8.170100e-01	2.138575e-02	0.0	8.290500e-01	1.980483e-02	0.0	8.407700e-01	1.824858e-02	0.0	8.521600e-01	1.672547e-02	0.0	8.631800e-01	1.524633e-02	0.0	8.738500e-01	1.381166e-02	0.0	8.841500e-01	1.242467e-02	0.0	8.940600e-01	1.108657e-02	0.0	9.035800e-01	9.795644e-03	0.0	9.127000e-01	8.554604e-03	0.0	9.214000e-01	7.374389e-03	0.0	9.296900e-01	6.271576e-03	0.0	9.375400e-01	5.277149e-03	0.0	9.449600e-01	4.420283e-03	0.0	9.519400e-01	3.725917e-03	0.0	9.584700e-01	3.200167e-03	0.0	9.645400e-01	2.822818e-03	0.0	9.701500e-01	2.548946e-03	0.0	9.752800e-01	2.322667e-03	0.0	9.799500e-01	2.091680e-03	0.0	9.841300e-01	1.826229e-03	0.0	9.878400e-01	1.519496e-03	0.0	9.910500e-01	1.190024e-03	0.0	9.937800e-01	8.629574e-04	0.0	9.960200e-01	5.666085e-04	0.0	9.977600e-01	3.231850e-04	0.0	9.990000e-01	1.450780e-04	0.0	9.997500e-01	3.632618e-05	0.0	1.000000e+00	0.000000e+00	0.0	1.984229e+01	2.506660e+00	0.0	1.937166e+01	4.973800e+00	0.0	1.859553e+01	7.362490e+00	0.0	1.752613e+01	9.635070e+00	0.0	1.618034e+01	1.175571e+01	0.0	1.457937e+01	1.369094e+01	0.0	1.274848e+01	1.541027e+01	0.0	1.071654e+01	1.688656e+01	0.0	8.515590e+00	1.809654e+01	0.0	6.180340e+00	1.902113e+01	0.0	3.747630e+00	1.964575e+01	0.0	1.255810e+00	1.996053e+01	0.0	-1.255810e+00	1.996053e+01	0.0	-3.747630e+00	1.964574e+01	0.0	-6.180340e+00	1.902113e+01	0.0	-8.515590e+00	1.809654e+01	0.0	-1.071654e+01	1.688656e+01	0.0	-1.274848e+01	1.541026e+01	0.0	-1.457937e+01	1.369094e+01	0.0	-1.618034e+01	1.175570e+01	0.0	-1.752613e+01	9.635070e+00	0.0	-1.859553e+01	7.362490e+00	0.0	-1.937166e+01	4.973800e+00	0.0	-1.984229e+01	2.506660e+00	0.0	-2.000000e+01	0.000000e+00	0.0	-1.984229e+01	-2.506670e+00	0.0	-1.937166e+01	-4.973800e+00	0.0	-1.859553e+01	-7.362490e+00	0.0	-1.752613e+01	-9.635080e+00	0.0	-1.618034e+01	-1.175571e+01	0.0	-1.457937e+01	-1.369094e+01	0.0	-1.274848e+01	-1.541027e+01	0.0	-1.071653e+01	-1.688656e+01	0.0	-8.515580e+00	-1.809654e+01	0.0	-6.180340e+00	-1.902113e+01	0.0	-3.747620e+00	-1.964575e+01	0.0	-1.255810e+00	-1.996053e+01	0.0	1.255810e+00	-1.996053e+01	0.0	3.747630e+00	-1.964574e+01	0.0	6.180340e+00	-1.902113e+01	0.0	8.515590e+00	-1.809654e+01	0.0	1.071654e+01	-1.688656e+01	0.0	1.274848e+01	-1.541026e+01	0.0	1.457937e+01	-1.369094e+01	0.0	1.618034e+01	-1.175570e+01	0.0	1.752614e+01	-9.635070e+00	0.0	1.859553e+01	-7.362490e+00	0.0	1.937166e+01	-4.973790e+00	0.0	1.984229e+01	-2.506660e+00	0.0	2.000000e+01	0.000000e+00	0.0	6.074153e-02	-4.535107e-02	0.0	6.601885e-01	-6.003785e-02	0.0	4.255540e-01	6.169664e-02	0.0	6.897638e-01	4.908549e-02	0.0	3.791234e-01	-7.361838e-02	0.0	9.994675e-01	-7.275946e-04	0.0	9.985545e-01	-1.331443e-03	0.0	7.738135e-01	-4.741540e-02	0.0	6.898602e-01	-5.716418e-02	0.0	-1.129489e-03	5.522668e-03	0.0	7.467803e-01	-5.082321e-02	0.0	5.833309e-01	5.750866e-02	0.0	9.928161e-01	-3.736429e-03	0.0	9.899360e-01	-4.744542e-03	0.0	5.989070e-01	5.657441e-02	0.0	7.187649e-01	-5.407957e-02	0.0	-1.469990e-03	6.005090e-04	0.0	9.865727e-01	-5.907100e-03	0.0	9.827330e-01	-7.227381e-03	0.0	-1.304107e-03	-6.477908e-03	0.0	6.451052e-01	-6.138833e-02	0.0	8.244824e-01	-4.031190e-02	0.0	7.997425e-01	-4.390895e-02	0.0	3.484822e-01	6.058744e-02	0.0	8.479025e-01	-3.668058e-02	0.0	2.473673e-01	5.609171e-02	0.0	8.699426e-01	-3.303919e-02	0.0	1.046170e-02	1.736575e-02	0.0	8.904963e-01	-2.944390e-02	0.0	7.702094e-02	-4.972907e-02	0.0	9.094915e-01	-2.594951e-02	0.0	-1.768545e-03	-3.209184e-03	0.0	9.424831e-01	-1.917450e-02	0.0	9.268480e-01	-2.255798e-02	0.0	1.794602e-02	-2.751955e-02	0.0	4.257418e-01	-7.304913e-02	0.0	8.591041e-01	-3.485570e-02	0.0	9.563360e-01	-1.567152e-02	0.0	9.784091e-01	-8.726859e-03	0.0	9.683304e-01	-1.208358e-02	0.0	1.582636e-01	-6.359811e-02	0.0	9.001956e-01	-2.768212e-02	0.0	7.604298e-01	-4.913514e-02	0.0	9.971360e-01	-2.087332e-03	0.0	5.990501e-01	-6.506038e-02	0.0	4.414442e-01	-7.269938e-02	0.0	5.363197e-01	-6.899426e-02	0.0	4.730158e-01	-7.176727e-02	0.0	5.046767e-01	-7.053034e-02	0.0	4.888343e-01	-7.118573e-02	0.0	1.249494e-01	-5.909248e-02	0.0	2.784260e-02	-3.300251e-02	0.0	3.945691e-01	-7.351031e-02	0.0	4.621787e-02	-4.065215e-02	0.0	4.101099e-01	-7.332088e-02	0.0	3.187151e-01	-7.322755e-02	0.0	3.486129e-01	-7.359352e-02	0.0	3.350629e-02	-3.561710e-02	0.0	2.895109e-01	-7.252323e-02	0.0	9.348855e-01	-2.087312e-02	0.0	1.468048e-01	-6.218697e-02	0.0	1.946439e-01	-6.725491e-02	0.0	8.579529e-02	-5.178650e-02	0.0	1.045868e-01	-5.563277e-02	0.0	5.678223e-01	-6.717509e-02	0.0	1.700662e-01	-6.491540e-02	0.0	6.145276e-01	-6.389891e-02	0.0	8.804137e-01	-3.123313e-02	0.0	2.266645e-02	-3.030166e-02	0.0	9.952218e-01	-2.870239e-03	0.0	6.734341e-03	-1.883750e-02	0.0	1.849014e-02	2.153902e-02	0.0	9.183782e-01	-2.424427e-02	0.0	9.49640
[...]
POINT_DATA 5233

SCALARS Conservative_1 float 1
LOOKUP_TABLE default
1.199829e+00	1.181609e+00	1.171191e+00	1.164760e+00	1.160194e+00	1.155736e+00	1.148855e+00	1.137938e+00	1.121754e+00	1.100390e+00	1.075088e+00	1.048459e+00	1.024870e+00	1.008317e+00	9.999312e-01	9.978661e-01	9.989719e-01	1.000412e+00	1.000436e+00	9.984436e-01	9.946551e-01	9.896284e-01	9.839493e-01	9.780899e-01	9.723278e-01	9.667738e-01	9.614191e-01	9.562167e-01	9.511019e-01	9.460432e-01	9.410245e-01	9.360019e-01	9.309415e-01	9.258596e-01	9.208078e-01	9.158346e-01	9.109587e-01	9.061848e-01	9.015243e-01	8.969937e-01	8.925930e-01	8.883326e-01	8.841952e-01	8.801976e-01	8.763548e-01	8.727184e-01	8.692774e-01	8.659674e-01	8.626410e-01	8.592895e-01	8.561165e-01	8.534778e-01	8.514887e-01	8.498578e-01	8.479104e-01	8.448890e-01	8.402839e-01	8.342340e-01	8.276186e-01	8.217063e-01	8.173973e-01	8.148899e-01	8.139099e-01	8.140205e-01	8.149088e-01	8.163741e-01	8.183667e-01	8.208024e-01	8.235950e-01	8.266323e-01	8.299350e-01	8.336679e-01	8.380788e-01	8.432347e-01	8.490577e-01	8.554010e-01	8.623303e-01	8.700249e-01	8.785421e-01	8.879211e-01	8.982740e-01	9.096597e-01	9.222302e-01	9.361036e-01	9.514703e-01	9.686082e-01	9.877457e-01	1.009242e+00	1.033584e+00	1.061085e+00	1.092276e+00	1.127623e+00	1.166968e+00	1.209845e+00	1.254540e+00	1.298031e+00	1.331727e+00	1.350891e+00	1.339586e+00	1.308426e+00	1.284514e+00	1.221545e+00	1.100189e+00	1.002813e+00	9.267451e-01	8.708569e-01	8.326697e-01	8.074800e-01	7.904843e-01	7.789424e-01	7.711572e-01	7.659571e-01	7.627810e-01	7.608885e-01	7.599031e-01	7.598205e-01	7.605124e-01	7.617422e-01	7.631880e-01	7.645188e-01	7.657456e-01	7.671926e-01	7.691243e-01	7.713964e-01	7.736089e-01	7.755270e-01	7.772387e-01	7.788913e-01	7.805909e-01	7.824116e-01	7.844115e-01	7.865765e-01	7.888357e-01	7.910924e-01	7.933076e-01	7.954604e-01	7.975418e-01	7.995123e-01	8.013944e-01	8.033479e-01	8.056669e-01	8.085692e-01	8.120564e-01	8.158690e-01	8.196552e-01	8.231651e-01	8.263787e-01	8.295499e-01	8.330355e-01	8.371540e-01	8.419103e-01	8.471534e-01	8.527499e-01	8.587059e-01	8.649818e-01	8.714547e-01	8.780531e-01	8.848542e-01	8.920251e-01	8.995864e-01	9.074729e-01	9.155993e-01	9.239220e-01	9.324287e-01	9.410869e-01	9.498819e-01	9.587636e-01	9.677148e-01	9.766613e-01	9.856054e-01	9.944639e-01	1.003156e+00	1.011619e+00	1.019769e+00	1.027559e+00	1.034968e+00	1.042043e+00	1.048963e+00	1.055988e+00	1.063508e+00	1.071821e+00	1.081023e+00	1.090731e+00	1.100084e+00	1.107829e+00	1.112630e+00	1.113394e+00	1.109759e+00	1.102488e+00	1.093749e+00	1.086625e+00	1.084092e+00	1.087993e+00	1.098215e+00	1.112803e+00	1.129982e+00	1.148457e+00	1.168624e+00	1.192710e+00	1.181125e+00	9.999765e-01	9.999697e-01	9.999532e-01	9.999295e-01	9.999055e-01	9.998776e-01	9.998383e-01	9.997833e-01	9.997210e-01	9.996692e-01	9.996348e-01	9.996463e-01	9.997004e-01	9.998107e-01	9.999053e-01	9.999817e-01	1.000024e+00	1.000049e+00	1.000064e+00	1.000070e+00	1.000073e+00	1.000074e+00	1.000074e+00	1.000076e+00	1.000077e+00	1.000080e+00	1.000085e+00	1.000092e+00	1.000101e+00	1.000114e+00	1.000128e+00	1.000150e+00	1.000168e+00	1.000195e+00	1.000212e+00	1.000223e+00	1.000224e+00	1.000211e+00	1.000200e+00	1.000188e+00	1.000181e+00	1.000166e+00	1.000149e+00	1.000129e+00	1.000105e+00	1.000077e+00	1.000060e+00	1.000046e+00	1.000013e+00	9.999797e-01	9.440075e-01	9.019422e-01	8.252269e-01	9.233110e-01	8.407148e-01	1.183065e+00	1.173578e+00	9.406953e-01	9.111500e-01	1.217341e+00	9.307176e-01	8.723730e-01	1.151743e+00	1.145017e+00	8.788843e-01	9.207716e-01	1.307780e+00	1.136046e+00	1.123678e+00	1.337683e+00	8.975247e-01	9.608026e-01	9.506382e-01	8.079495e-01	9.713777e-01	7.937046e-01	9.824902e-01	8.787722e-01	9.931091e-01	9.167945e-01	1.000547e+00	1.344686e+00	1.006034e+00	1.002937e+00	1.100222e+00	8.522670e-01	9.768902e-01	1.025325e+00	1.107421e+00	1.065592e+00	8.481609e-01	9.974225e-01	9.357263e-01	1.164160e+00	8.850127e-01	8.537877e-01	8.705291e-01	8.576082e-01	8.638725e-01	8.605490e-01	8.680110e-01	1.042772e+00	8.462020e-01	9.772569e-01	8.499800e-01	8.196375e-01	8.277838e-01	1.018464e+00	8.180928e-01	1.003552e+00	8.541734e-01	8.345802e-01	9.050567e-01	8.846656e-01	8.773820e-01	8.429062e-01	8.890647e-01	9.880006e-01	1.069932e+00	1.157669e+00	1.209158e+00	8.235436e-01	1.002289e+00	1.012723e+00	1.087651e+00	1.134361e+00	9.660220e-01	8.223377e-01	8.738756e-01	9.257098e-01	9.456497e-01	8.759051e-01	8.278044e-01	8.811101e-01	9.064921e-01	9.597825e-01	1.248721e+00	1.133722e+00	8.341547e-01	8.384528e-01	1.211158e+00	8.248659e-01	8.943798e-01	8.182102e-01	8.203259e-01	8.553847e-01	9.159115e-01	1.279945e+00	1.318475e+00	8.539959e-01	1.324674e+00	7.949072e-01	7.740083e-01	7.807228e-01	7.747761e-01	8.214538e-01	1.140190e+00	8.485206e-01	8.351267e-01	1.097216e+00	1.105890e+00	1.052332e+00	8.389422e-01	8.286554e-01	8.137684e-01	1.083690e+00	1.067093e+00	7.723346e-01	1.092444e+00	1.106646e+00	1.099103e+00	7.732102e-01	7.725506e-01	8.000859e-01	7.958713e-01	7.828296e-01	8.040002e-01	8.318405e-01	8.175172e-01	7.799412e-01	7.763619e-01	8.924116e-01	7.857579e-01	7.894228e-01	9.073387e-01	8.659579e-01	9.570252e-01	9.399328e-01	9.915475e-01	9.743238e-01	1.023979e+00	1.008278e+00	1.059492e+00	1.038485e+00	1.104268e+00	1.075229e+00	1.102351e+00	1.031373e+00	1.045412e+00	1.000005e+00	1.016277e+00	9.656702e-01	9.829782e-01	9.315460e-01	9.484318e-01	8.996959e-01	9.152284e-01	8.598020e-01	8.855031e-01	7.874840e-01	7.915315e-01	7.814483e-01	7.842350e-01	7.766626e-01	7.782202e-01	8.466848e-01	7.865648e-01	8.310671e-01	9.820452e-01	1.043708e+00	9.556818e-01	8.227748e-01	8.672376e-01	1.054011e+00	8.068146e-01	9.231065e-01	7.727855e-01	7.721088e-01	7.980004e-01	7.737585e-01	1.090253e+00	1.092320e+00	8.020945e-01	1.099318e+00	1.110375e+00	8.058715e-01	8.105304e-01	1.091932e+00	1.206469e+00	1.157937e+00	1.174447e+00	8.932284e-01	9.967281e-01	1.124380e+00	8.434414e-01	1.286670e+00	1.170327e+00	9.297264e-01	8.608136e-01	8.188696e-01	7.844499e-01	1.199887e+00	1.259752e+00	8.237345e-01	9.163946e-01	1.003253e+00	1.199591e+00	8.737715e-01	9.117450e-01	9.455785e-01	1.133377e+00	8.257275e-01	9.762048e-01	9.656787e-01	9.123177e-01	1.317258e+00	8.361810e-01	1.132728e+00	1.041605e+00	8.600962e-01	9.211261e-01	9.027706e-01	8.579670e-01	9.242658e-01	8.471849e-01	9.964760e-01	9.504735e-01	9.569027e-01	8.548909e-01	9.153754e-01	1.020586e+00	7.822535e-01	9.232054e-01	7.875110e-01	1.041902e+00	1.100563e+00	8.108445e-01	8.505356e-01	1.099673e+00	1.048715e+00	1.108314e+00	1.100946e+00	1.094557e+00	7.968428e-01	8.088524e-01	7.948589e-01	7.821492e-01	9.072121e-01	8.400067e-01	9.142626e-01	7.851996e-01	7.935191e-01	1.098092e+00	1.118995e+00	1.055589e+00	8.539615e-01	1.215363e+00	1.145801e+00	1.131586e+00	1.009524e+00	1.133902e+00	1.234069e+00	1.331072e+00	1.315158e+00	1.102133e+00	1.217656e+00	9.516913e-01	1.163056e+00	1.148595e+00	8.274878e-01	8.754264e-01	1.123054e+00	9.868682e-01	8.802017e-01	1.141683e+00	1.332400e+00	8.564475e-01	8.236140e-01	9.708898e-01	8.030013e-01	9.815661e-01	9.919211e-01	9.373422e-01	1.000289e+00	1.005563e+00	1.017392e+00	1.048451e+00	1.027431e+00	1.058811e+00	1.110039e+00	8.744624e-01	9.358078e-01	9.407114e-01	1.155400e+00	8.598780e-01	8.625060e-01	8.656202e-01	1.074180e+00	8.516798e-01	8.546264e-01	8.295898e-01	1.004028e+00	1.007844e+00	1.011278e+00	8.669737e-01	9.014129e-01	8.788349e-01	8.902096e-01	1.077043e+00	1.094529e+00	9.259310e-01	9.308648e-01	8.915576e-01	8.826072e-01	8.824588e-01	8.862485e-01	9.849353e-01	9.675419e-01	1.165277e+00	8.350588e-01	8.413249e-01	8.487310e-01	8.441458e-01	8.327287e-01	8.296732e-01	8.231440e-01	8.236938e-01	8.271249e-01	1.298501e+00	1.267555e+00	7.997680e-01	1.095860e+00	8.557833e-01	8.457105e-01	8.414717e-01	8.378007e-01	1.095727e+00	1.100211e+00	1.077351e+00	8.344990e-01	8.311326e-01	8.197634e-01	1.069944e+00	1.096282e+00	7.861890e-01	7.890790e-01	7.988876e-01	8.009409e-01	7.863479e-01	7.841022e-01	7.830120e-01	9.889958e-01	9.557546e-01	9.474674e-01	9.807633e-01	1.013024e+00	1.062633e+00	1.034988e+00	1.027894e+00	1.005253e+00	9.972175e-01	9.724210e-01	9.640763e-01	9.392709e-01	9.311680e-01	9.077450e-01	9.003677e-01	8.674100e-01	8.613860e-01	8.933561e-01	8.866620e-01	7.929961e-01	7.913548e-01	7.899329e-01	7.886969e-01	8.809679e-01	8.083165e-01	8.197933e-01	9.554561e-01	9.605357e-01	8.688916e-01	8.721276e-01	1.070155e+00	8.349359e-01	7.826188e-01	7.833737e-01	8.069703e-01	8.050212e-01	8.162406e-01	8.132388e-01	1.091075e+00	1.084564e+00	8.942705e-01	8.984703e-01	1.025084e+00	1.297443e+00	8.251005e-01	1.311639e+00	8.534964e-01	8.290625e-01	9.509680e-01	8.776048e-01	1.007383e+00	1.107289e+00	1.101223e+00	1.096622e+00	1.081530e+00	1.115945e+00	1.160551e+00	1.181448e+00	1.153154e+00	1.200925e+00	1.103791e+00	1.283385e+00	9.199925e-01	1.010795e+00	1.131575e+00	8.758331e-01	1.172919e+00	1.220845e+00	9.221566e-01	1.275984e+00	9.268263e-01	1.131266e+00	9.862820e-01	1.190672e+00	8.324407e-01	9.811508e-01	9.175491e-01	1.139469e+00	1.160678e+00	1.095974e+00	8.582313e-01	1.093280e+00	9.163526e-01	1.125943e+00	8.531242e-01	8.060964e-01	8.139849e-01	7.927135e-01	7.992429e-01	1.171564e+00	1.293330e+00	1.185142e+00	9.090267e-01	1.240933e+00	1.055106e+00	9.320374e-01	1.312210e+00	8.662674e-01	8.626747e-01	1.077884e+00	9.822714e-01	1.017785e+00	9.872205e-01	9.239125e-01	1.097495e+00	1.095667e+00	1.051781e+00	1.045155e+00	8.120412e-01	8.081219e-01	8.002848e-01	7.910314e-01	9.085955e-01	9.130229e-01	8.456010e-01	9.424281e-01	7.918575e-01	1.095960e+00	1.136224e+00	1.029317e+00	1.134535e+00	1.249578e+00	1.315052e+00	1.053522e+00	1.186192e+00	1.178453e+00	1.070320e+00	1.122741e+00	8.822046e-01	8.610599e-01	8.299458e-01	9.707872e-01	9.759597e-01	9.912727e-01	9.959647e-01	9.595358e-01	9.452132e-01	1.000216e+00	1.004000e+00	1.029595e+00	1.041143e+00	1.112226e+00	9.413376e-01	9.461657e-01	1.145986e+00	8.649350e-01	8.678963e-01	8.572320e-01	8.595115e-01	1.031424e+00	1.014984e+00	1.020960e+00	8.812655e-01	8.734161e-01	8.809379e-01	8.844505e-01	1.085518e+00	1.099635e+00	9.316067e-01	9.365196e-01	9.089670e-01	8.987540e-01	8.895700e-01	8.881348e-01	8.919964e-01	1.011323e+00	9.925715e-01	9.752501e-01	8.367940e-01	8.424533e-01	8.483717e-01	8.602387e-01	8.549096e-01	8.500727e-01	8.415881e-01	8.379861e-01	8.287916e-01	8.297666e-01	8.348950e-01	8.177975e-01	8.484237e-01	8.442955e-01	1.096482e+00	8.407453e-01	8.373367e-01	8.337620e-01	8.260703e-01	1.071801e+00	8.036974e-01	8.097634e-01	8.040826e-01	8.021502e-01	7.912906e-01	7.911252e-01	7.909761e-01	9.553142e-01	1.065148e+00	1.058404e+00	1.038492e+00	1.031780e+00	1.024951e+00	1.010383e+00	1.002860e+00	9.951067e-01	9.793410e-01	9.713486e-01	9.633300e-01	9.473574e-01	9.394374e-01	9.316319e-01	9.089699e-01	8.694613e-01	8.637054e-01	9.018864e-01	8.951052e-01	8.885763e-01	7.985610e-01	7.969943e-01	7.956896e-01	7.945758e-01	7.936326e-01	8.284977e-01	8.424166e-01	9.558198e-01	9.607773e-01	9.657310e-01	8.710960e-01	8.743250e-01	8.600233e-01	8.817945e-01	7.919451e-01	7.937878e-01	7.961374e-01	8.101226e-01	8.223908e-01	8.191047e-01	8.162606e-01	1.089419e+00	1.084311e+00	1.078323e+00	8.959702e-01	9.000684e-01	9.042713e-01	8.322955e-01	8.303351e-01	1.289980e+00	9.278310e-01	1.129339e+00	1.097658e+00	8.829917e-01	1.262026e+00	1.159463e+00	1.013127e+00	1.018057e+00	1.057269e+00	1.112670e+00	8.565868e-01	1.271293e+00	9.662563e-01	1.206334e+00	1.092426e+00	1.120608e+00	1.172254e+00	9.173339e-01	1.130867e+00	1.185406e+00	1.188065e+00	9.563011e-01	8.736914e-01	1.104005e+00	8.600127e-01	9.399893e-01	8.662174e-01	8.356412e-01	1.101010e+00	8.780594e-01	1.090349e+00	1.087320e+00	9.862053e-01	7.990511e-01	8.097932e-01	1.122131e+00	8.182231e-01	9.865131e-01	1.146679e+00	1.105975e+00	1.144066e+00	1.078630e+00	1.128304e+00	9.232914e-01	1.231576e+00	9.284039e-01	9.324985e-01	1.154340e+00	1.129962e+00	1.180649e+00	1.015189e+00	8.603724e-01	8.157262e-01	1.219591e+00	1.002650e+00	9.254035e-01	1.048454e+00	8.177158e-01	8.137729e-01	8.117430e-01	9.143651e-01	9.193667e-01	1.095689e+00	1.042817e+00	1.086854e+00	1.254732e+00	1.296822e+00	1.079927e+00	1.065692e+00	1.113103e+00	8.852524e-01	9.764039e-01	9.813927e-01	9.913897e-01	9.961270e-01	9.671585e-01	9.530324e-01	1.000551e+00	1.004819e+00	1.008950e+00	1.041486e+00	1.053071e+00	9.467078e-01	9.519367e-01	1.137250e+00	8.681284e-01	8.708103e-01	8.628768e-01	8.647077e-01	1.023985e+00	1.031648e+00	8.888391e-01	8.803631e-01	8.870815e-01	1.091104e+00	1.102753e+00	9.376209e-01	9.428966e-01	9.166369e-01	9.065014e-01	8.975236e-01	8.900575e-01	8.944428e-01	1.037188e+00	1.017740e+00	9.992006e-01	9.823443e-01	8.402935e-01	8.448913e-01	8.502721e-01	8.555113e-01	8.676932e-01	8.621355e-01	8.569114e-01	8.522231e-01	8.480142e-01	8.372012e-01	8.356849e-01	8.443500e-01	8.516903e-01	1.094594e+00	1.093696e+00	8.477497e-01	8.441554e-01	8.405655e-01	8.368201e-01	8.329610e-01	8.264219e-01	8.367817e-01	8.078910e-01	8.061982e-01	7.988562e-01	7.991822e-01	7.999725e-01	8.007544e-01	1.067062e+00	1.060949e+00	1.054774e+00	1.042095e+00	1.035762e+00	1.029407e+00	1.021938e+00	1.008948e+00	1.000885e+00	9.934461e-01	9.782322e-01	9.709776e-01	9.628073e-01	9.556352e-01	9.473773e-01	9.403753e-01	9.321610e-01	8.665292e-01	8.713667e-01	9.109417e-01	9.032597e-01	8.974087e-01	8.902497e-01	8.045675e-01	8.031707e-01	8.018196e-01	8.007820e-01	7.998756e-01	7.992790e-01	8.489987e-01	8.645939e-01	9.615100e-01	9.666771e-01	9.714347e-01	8.739854e-01	8.763185e-01	8.802350e-01	8.841334e-01	9.071865e-01	9.341110e-01	8.018988e-01	8.042373e-01	8.080892e-01	8.125859e-01	8.291859e-01	8.257347e-01	8.226528e-01	8.198397e-01	1.072958e+00	1.083265e+00	1.078496e+00	8.976976e-01	9.023160e-01	9.058119e-01	9.106360e-01	8.411597e-01	8.385817e-01	8.366610e-01	1.148006e+00	1.125326e+00	1.073697e+00	1.177460e+00	1.171232e+00	9.362791e-01	9.360469e-01	1.193483e+00	1.096502e+00	1.235383e+00	1.080956e+00	8.824481e-01	8.068828e-01	1.018907e+00	1.127380e+00	1.235123e+00	1.292415e+00	1.294459e+00	1.281620e+00	1.250877e+00	1.138732e+00	8.219218e-01	1.084566e+00	1.121539e+00	1.026507e+00	9.594838e-01	8.664375e-01	1.115908e+00	1.068654e+00	1.082017e+00	8.768796e-01	8.668230e-01	9.227011e-01	9.813534e-01	8.601128e-01	8.873880e-01	8.232592e-01	1.109655e+00	9.481426e-01	1.165191e+00	1.099783e+00	1.292654e+00	1.182391e+00	1.173232e+00	1.019675e+00	1.061100e+00	1.266812e+00	9.860565e-01	1.215156e+00	1.088036e+00	1.162221e+00	1.177066e+00	1.178079e+00	1.125406e+00	8.422521e-01	8.429579e-01	1.104101e+00	8.874617e-01	1.085399e+00	1.113486e+00	9.274475e-01	1.200348e+00	8.191965e-01	8.178988e-01	8.152316e-01	9.186620e-01	1.053504e+00	1.090224e+00	1.275362e+00	1.103608e+00	9.824857e-01	9.866059e-01	9.919879e-01	9.964187e-01	9.609672e-01	9.752385e-01	1.001549e+00	1.005545e+00	1.010492e+00	1.015567e+00	1.052020e+00	1.062693e+00	9.507027e-01	1.128582e+00	8.712171e-01	8.740759e-01	8.679563e-01	8.702403e-01	1.033945e+00	1.042162e+00	8.961871e-01	8.871155e-01	1.095034e+00	1.104735e+00	9.442595e-01	9.245160e-01	9.136456e-01	9.069453e-01	8.945890e-01	1.042175e+00	1.023561e+00	1.005741e+00	9.902244e-01	8.451122e-01	8.475136e-01	8.527068e-01	8.570404e-01	8.623043e-01	8.746780e-01	8.702489e-01	8.632010e-01	8.596871e-01	8.539904e-01	1.094050e+00	1.092107e+00	1.090218e+00	8.547083e-01	8.516574e-01	8.471704e-01	8.440897e-01	8.394840e-01	8.439231e-01	8.561350e-01	8.141770e-01	8.117810e-01	8.062862e-01	8.091091e-01	8.111294e-01	1.062762e+00	1.057331e+00	1.051258e+00	1.045423e+00	1.039209e+00	1.033266e+00	1.026428e+00	1.016534e+00	1.007129e+00	9.954381e-01	9.666757e-01	9.518884e-01	9.371904e-01	9.087805e-01	8.965253e-01	8.111464e-01	8.090231e-01	8.087825e-01	8.068374e-01	8.071940e-01	8.064651e-01	8.064504e-01	8.704653e-01	8.867057e-01	9.676587e-01	9.721401e-01	9.771890e-01	8.771717e-01	8.810139e-01	9.067009e-01	9.306339e-01	9.566519e-01	8.131545e-01	8.161924e-01	8.211278e-01	8.282138e-01	8.353874e-01	8.363934e-01	8.320612e-01	8.298350e-01	8.264476e-01	1.078224e+00	1.072968e+00	9.022041e-01	9.102289e-01	8.514471e-01	8.469592e-01	8.455755e-01	8.426416e-01	1.166083e+00	1.154363e+00	1.181127e+00	1.255106e+00	1.180680e+00	1.088607e+00	1.106540e+00	1.183563e+00	1.086408e+00	1.141051e+00	1.105944e+00	1.255395e+00	1.081722e+00	1.161502e+00	8.285925e-01	1.177725e+00	1.061156e+00	1.152519e+00	1.141375e+00	1.079415e+00	8.887010e-01	1.101702e+00	8.495357e-01	1.035135e+00	1.024757e+00	9.105022e-01	9.439774e-01	8.862623e-01	1.231253e+00	8.725990e-01	9.699511e-01	9.570882e-01	8.165228e-01	1.094238e+00	1.066054e+00	1.213038e+00	1.031193e+00	1.070045e+00	1.170726e+00	1.097571e+00	1.291445e+00	1.245042e+00	1.113747e+00	9.440459e-01	8.694051e-01	8.606034e-01	1.112116e+00	1.173867e+00	1.129508e+00	1.275329e+00	1.176733e+00	1.064146e+00	1.216985e+00	1.199802e+00	8.877522e-01	1.101468e+00	1.083955e+00	1.080351e+00	8.778777e-01	8.244026e-01	8.205974e-01	9.357652e-01	1.092036e+00	1.122959e+00	1.122121e+00	9.900562e-01	9.994275e-01	9.828119e-01	1.009005e+00	1.017464e+00	1.060602e+00	1.121001e+00	8.759884e-01	1.043338e+00	1.051478e+00	8.994053e-01	1.097457e+00	9.512651e-01	9.586587e-01	9.277996e-01	9.143528e-01	8.953326e-01	1.046525e+00	1.027949e+00	1.011162e+00	9.995946e-01	8.533764e-01	8.612152e-01	8.687936e-01	8.738300e-01	8.634770e-01	1.091453e+00	1.088963e+00	8.525719e-01	8.447348e-01	8.757968e-01	8.175978e-01	8.218502e-01	1.003235e+00	1.056098e+00	1.044872e+00	1.033334e+00	1.022748e+00	1.013356e+00	9.908904e-01	9.772078e-01	9.631166e-01	9.489757e-01	9.348102e-01	9.208853e-01	9.082982e-01	8.977808e-01	8.154502e-01	8.140924e-01	8.142902e-01	8.130267e-01	8.151189e-01	8.920609e-01	9.089732e-01	9.671619e-01	9.752481e-01	9.831856e-01	8.799755e-01	8.836919e-01	9.281745e-01	9.512946e-01	9.764634e-01	1.002595e+00	8.257140e-01	8.293670e-01	8.349855e-01	8.435440e-01	8.544704e-01	8.605165e-01	8.378157e-01	8.334986e-01	1.077814e+00	1.073311e+00	9.027399e-01	9.186184e-01	9.271062e-01	8.556078e-01	8.506349e-01	1.117376e+00	1.166021e+00	1.161182e+00	1.136240e+00	1.025336e+00	1.108358e+00	1.173796e+00	1.135626e+00	1.185607e+00	1.135153e+00	1.147609e+00	1.126780e+00	1.092659e+00	1.193739e+00	1.235687e+00	1.088365e+00	9.514961e-01	8.364918e-01	1.125030e+00	1.017084e+00	1.099389e+00	8.874573e-01	1.066811e+00	1.169558e+00	8.756511e-01	1.043546e+00	9.188924e-01	8.965389e-01	1.083525e+00	1.091446e+00	1.082106e+00	1.066921e+00	1.171385e+00	1.098726e+00	1.103062e+00	1.082835e+00	8.280253e-01	8.985375e-01	9.354876e-01	9.895805e-01	1.150507e+00	1.157249e+00	1.272094e+00	1.075355e+00	1.085453e+00	1.175642e+00	1.099195e+00	1.169178e+00	1.152248e+00	8.907654e-01	1.224953e+00	9.797968e-01	9.644902e-01	1.094841e+00	1.233713e+00	1.067200e+00	1.106564e+00	9.438077e-01	1.254385e+00	1.176115e+00	1.005102e+00	1.213129e+00	1.200170e+00	8.794847e-01	1.117552e+00	1.079358e+00	8.886288e-01	8.319586e-01	9.088393e-01	1.118482e+00	1.143580e+00	9.979712e-01	1.007527e+00	1.025360e+00	1.034275e+00	1.114273e+00	8.793185e-01	1.051227e+00	1.058987e+00	8.698334e-01	9.747924e-01	9.827297e-01	9.587484e-01	9.498485e-01	9.345688e-01	9.197596e-01	1.048948e+00	8.580064e-01	8.627591e-01	9.053503e-01	8.914299e-01	9.270660e-01	1.091445e+00	8.707685e-01	8.623404e-01	8.325820e-01	1.059508e+00	1.049569e+00	1.009842e+00	1.038907e+00	1.028604e+00	1.019179e+00	9.991522e-01	9.868111e-01	9.735983e-01	9.601239e-01	9.465145e-01	9.328769e-01	9.200526e-01	8.249516e-01	8.230083e-01	8.220600e-01	8.220738e-01	8.222742e-01	8.267068e-01	9.122201e-01	9.305012e-01	9.665260e-01	9.899553e-01	8.825396e-01	8.862536e-01	9.485092e-01	9.694562e-01	9.930219e-01	1.016553e+00	1.041141e+00	8.397138e-01	8.455752e-01	8.509828e-01	8.592646e-01	8.714366e-01	8.543452e-01	8.471357e-01	8.413948e-01	1.074571e+00	1.067835e+00	9.034844e-01	9.110376e-01	8.789516e-01	8.688538e-01	8.615705e-01	8.576548e-01	1.152319e+00	1.152984e+00	1.149683e+00	1.121116e+00	1.156195e+00	1.140370e+00	1.113719e+00	1.050464e+00	1.172798e+00	1.120688e+00	1.117934e+00	1.071718e+00	1.166000e+00	1.084785e+00	8.327079e-01	1.137611e+00	1.141601e+00	1.128266e+00	1.169438e+00	1.071067e+00	9.258640e-01	1.026916e+00	1.024909e+00	9.593898e-01	1.132807e+00	1.131985e+00	1.128175e+00	1.171840e+00	1.172202e+00	9.000052e-01	9.