# vtk DataFile Version 3.0
vtk output
ASCII
DATASET UNSTRUCTURED_GRID
POINTS 200 float
9.997500e-01	-3.633243e-05	0.0	9.990000e-01	-1.454726e-04	0.0	9.977600e-01	-3.275099e-04	0.0	9.960200e-01	-5.899411e-04	0.0	9.937800e-01	-9.471452e-04	0.0	9.910500e-01	-1.422236e-03	0.0	9.878400e-01	-2.045838e-03	0.0	9.841300e-01	-2.854309e-03	0.0	9.799500e-01	-3.859993e-03	0.0	9.752800e-01	-5.060059e-03	0.0	9.701500e-01	-6.407664e-03	0.0	9.645400e-01	-7.844288e-03	0.0	9.584700e-01	-9.294533e-03	0.0	9.519400e-01	-1.070299e-02	0.0	9.449600e-01	-1.204169e-02	0.0	9.375400e-01	-1.331501e-02	0.0	9.296900e-01	-1.455028e-02	0.0	9.214000e-01	-1.578579e-02	0.0	9.127000e-01	-1.704881e-02	0.0	9.035800e-01	-1.836036e-02	0.0	8.940600e-01	-1.972409e-02	0.0	8.841500e-01	-2.113537e-02	0.0	8.738500e-01	-2.258599e-02	0.0	8.631800e-01	-2.406384e-02	0.0	8.521600e-01	-2.555826e-02	0.0	8.407700e-01	-2.706609e-02	0.0	8.290500e-01	-2.857810e-02	0.0	8.170100e-01	-3.009043e-02	0.0	8.046400e-01	-3.160228e-02	0.0	7.919700e-01	-3.310799e-02	0.0	7.790100e-01	-3.460430e-02	0.0	7.657800e-01	-3.608659e-02	0.0	7.522800e-01	-3.755231e-02	0.0	7.385200e-01	-3.899760e-02	0.0	7.245300e-01	-4.041659e-02	0.0	7.103200e-01	-4.180565e-02	0.0	6.958900e-01	-4.316223e-02	0.0	6.812700e-01	-4.448111e-02	0.0	6.664700e-01	-4.575931e-02	0.0	6.515000e-01	-4.699404e-02	0.0	6.363800e-01	-4.818200e-02	0.0	6.211300e-01	-4.932028e-02	0.0	6.057600e-01	-5.040702e-02	0.0	5.902800e-01	-5.144060e-02	0.0	5.747100e-01	-5.241897e-02	0.0	5.590600e-01	-5.334097e-02	0.0	5.433600e-01	-5.420452e-02	0.0	5.276100e-01	-5.500944e-02	0.0	5.118400e-01	-5.575409e-02	0.0	4.960500e-01	-5.643842e-02	0.0	4.802700e-01	-5.706110e-02	0.0	4.645100e-01	-5.762174e-02	0.0	4.487800e-01	-5.811988e-02	0.0	4.331100e-01	-5.855447e-02	0.0	4.175000e-01	-5.892526e-02	0.0	4.019700e-01	-5.923139e-02	0.0	3.865400e-01	-5.947196e-02	0.0	3.712300e-01	-5.964610e-02	0.0	3.560400e-01	-5.975301e-02	0.0	3.409900e-01	-5.979155e-02	0.0	3.261100e-01	-5.976062e-02	0.0	3.114000e-01	-5.965905e-02	0.0	2.968700e-01	-5.948550e-02	0.0	2.825500e-01	-5.923887e-02	0.0	2.684500e-01	-5.891786e-02	0.0	2.545700e-01	-5.852079e-02	0.0	2.409400e-01	-5.804679e-02	0.0	2.275700e-01	-5.749456e-02	0.0	2.144700e-01	-5.686282e-02	0.0	2.016600e-01	-5.615087e-02	0.0	1.891400e-01	-5.535701e-02	0.0	1.769300e-01	-5.448081e-02	0.0	1.650400e-01	-5.352142e-02	0.0	1.534900e-01	-5.247905e-02	0.0	1.422900e-01	-5.135340e-02	0.0	1.314400e-01	-5.014319e-02	0.0	1.209500e-01	-4.884815e-02	0.0	1.108500e-01	-4.747106e-02	0.0	1.011300e-01	-4.600972e-02	0.0	9.181000e-02	-4.446623e-02	0.0	8.290000e-02	-4.284169e-02	0.0	7.440000e-02	-4.113543e-02	0.0	6.633000e-02	-3.935098e-02	0.0	5.869000e-02	-3.748803e-02	0.0	5.149000e-02	-3.554856e-02	0.0	4.474000e-02	-3.353510e-02	0.0	3.844000e-02	-3.144732e-02	0.0	3.260000e-02	-2.928805e-02	0.0	2.723000e-02	-2.706098e-02	0.0	2.232000e-02	-2.476106e-02	0.0	1.790000e-02	-2.240230e-02	0.0	1.395000e-02	-1.997387e-02	0.0	1.049000e-02	-1.748705e-02	0.0	7.520000e-03	-1.494278e-02	0.0	5.040000e-03	-1.234127e-02	0.0	3.050000e-03	-9.681045e-03	0.0	1.560000e-03	-6.977438e-03	0.0	5.600000e-04	-4.209436e-03	0.0	6.000000e-05	-1.384727e-03	0.0	0.000000e+00	0.000000e+00	0.0	6.000000e-05	1.264663e-03	0.0	5.600000e-04	3.629140e-03	0.0	1.560000e-03	5.796619e-03	0.0	3.050000e-03	7.818405e-03	0.0	5.040000e-03	9.739345e-03	0.0	7.520000e-03	1.156705e-02	0.0	1.049000e-02	1.331644e-02	0.0	1.395000e-02	1.499799e-02	0.0	1.790000e-02	1.661958e-02	0.0	2.232000e-02	1.818080e-02	0.0	2.723000e-02	1.969482e-02	0.0	3.260000e-02	2.115750e-02	0.0	3.844000e-02	2.257654e-02	0.0	4.474000e-02	2.395332e-02	0.0	5.149000e-02	2.528924e-02	0.0	5.869000e-02	2.658733e-02	0.0	6.633000e-02	2.784835e-02	0.0	7.440000e-02	2.907298e-02	0.0	8.290000e-02	3.026315e-02	0.0	9.181000e-02	3.141780e-02	0.0	1.011300e-01	3.253846e-02	0.0	1.108500e-01	3.362511e-02	0.0	1.209500e-01	3.467667e-02	0.0	1.314400e-01	3.569500e-02	0.0	1.422900e-01	3.667786e-02	0.0	1.534900e-01	3.762500e-02	0.0	1.650400e-01	3.853682e-02	0.0	1.769300e-01	3.941264e-02	0.0	1.891400e-01	4.025103e-02	0.0	2.016600e-01	4.105123e-02	0.0	2.144700e-01	4.181176e-02	0.0	2.275700e-01	4.253223e-02	0.0	2.409400e-01	4.321095e-02	0.0	2.545700e-01	4.384670e-02	0.0	2.684500e-01	4.443808e-02	0.0	2.825500e-01	4.498281e-02	0.0	2.968700e-01	4.547973e-02	0.0	3.114000e-01	4.592707e-02	0.0	3.261100e-01	4.632239e-02	0.0	3.409900e-01	4.666381e-02	0.0	3.560400e-01	4.694947e-02	0.0	3.712300e-01	4.717681e-02	0.0	3.865400e-01	4.734354e-02	0.0	4.019700e-01	4.744748e-02	0.0	4.175000e-01	4.748621e-02	0.0	4.331100e-01	4.745736e-02	0.0	4.487800e-01	4.735869e-02	0.0	4.645100e-01	4.718785e-02	0.0	4.802700e-01	4.694285e-02	0.0	4.960500e-01	4.662167e-02	0.0	5.118400e-01	4.622236e-02	0.0	5.276100e-01	4.574378e-02	0.0	5.433600e-01	4.518421e-02	0.0	5.590600e-01	4.454329e-02	0.0	5.747100e-01	4.381988e-02	0.0	5.902800e-01	4.301460e-02	0.0	6.057600e-01	4.212771e-02	0.0	6.211300e-01	4.116058e-02	0.0	6.363800e-01	4.011459e-02	0.0	6.515000e-01	3.899168e-02	0.0	6.664700e-01	3.779519e-02	0.0	6.812700e-01	3.652932e-02	0.0	6.958900e-01	3.519821e-02	0.0	7.103200e-01	3.380668e-02	0.0	7.245300e-01	3.236227e-02	0.0	7.385200e-01	3.087033e-02	0.0	7.522800e-01	2.933780e-02	0.0	7.657800e-01	2.777459e-02	0.0	7.790100e-01	2.618906e-02	0.0	7.919700e-01	2.458887e-02	0.0	8.046400e-01	2.298456e-02	0.0	8.170100e-01	2.138575e-02	0.0	8.290500e-01	1.980483e-02	0.0	8.407700e-01	1.824858e-02	0.0	8.521600e-01	1.672547e-02	0.0	8.631800e-01	1.524633e-02	0.0	8.738500e-01	1.381166e-02	0.0	8.841500e-01	1.242467e-02	0.0	8.940600e-01	1.108657e-02	0.0	9.035800e-01	9.795644e-03	0.0	9.127000e-01	8.554604e-03	0.0	9.214000e-01	7.374389e-03	0.0	9.296900e-01	6.271576e-03	0.0	9.375400e-01	5.277149e-03	0.0	9.449600e-01	4.420283e-03	0.0	9.519400e-01	3.725917e-03	0.0	9.584700e-01	3.200167e-03	0.0	9.645400e-01	2.822818e-03	0.0	9.701500e-01	2.548946e-03	0.0	9.752800e-01	2.322667e-03	0.0	9.799500e-01	2.091680e-03	0.0	9.841300e-01	1.826229e-03	0.0	9.878400e-01	1.519496e-03	0.0	9.910500e-01	1.190024e-03	0.0	9.937800e-01	8.629574e-04	0.0	9.960200e-01	5.666085e-04	0.0	9.977600e-01	3.231850e-04	0.0	9.990000e-01	1.450780e-04	0.0	9.997500e-01	3.632618e-05	0.0	1.000000e+00	0.000000e+00	0.0	
CELLS 200	600
2	149	150	2	150	151	2	151	152	2	152	153	2	153	154	2	154	155	2	155	156	2	156	157	2	157	158	2	158	159	2	159	160	2	160	161	2	161	162	2	162	163	2	163	164	2	164	165	2	165	166	2	166	167	2	167	168	2	168	169	2	169	170	2	170	171	2	171	172	2	172	173	2	173	174	2	174	175	2	175	176	2	176	177	2	177	178	2	178	179	2	179	180	2	180	181	2	181	182	2	31	32	2	32	33	2	33	34	2	34	35	2	35	36	2	36	37	2	37	38	2	38	39	2	39	40	2	40	41	2	41	42	2	42	43	2	43	44	2	44	45	2	45	46	2	46	47	2	47	48	2	48	49	2	49	50	2	50	51	2	51	52	2	52	53	2	53	54	2	54	55	2	55	56	2	56	57	2	57	58	2	58	59	2	59	60	2	60	61	2	61	62	2	62	63	2	63	64	2	64	65	2	65	66	2	66	67	2	67	68	2	68	69	2	69	70	2	70	71	2	71	72	2	72	73	2	73	74	2	74	75	2	75	76	2	76	77	2	77	78	2	78	79	2	79	80	2	80	81	2	81	82	2	82	83	2	83	84	2	113	114	2	114	115	2	115	116	2	116	117	2	117	118	2	118	119	2	119	120	2	120	121	2	121	122	2	122	123	2	123	124	2	124	125	2	125	126	2	126	127	2	127	128	2	128	129	2	129	130	2	130	131	2	131	132	2	132	133	2	133	134	2	134	135	2	135	136	2	136	137	2	137	138	2	138	139	2	139	140	2	140	141	2	141	142	2	142	143	2	143	144	2	144	145	2	145	146	2	146	147	2	147	148	2	148	149	2	84	85	2	85	86	2	86	87	2	87	88	2	88	89	2	89	90	2	90	91	2	91	92	2	92	93	2	93	94	2	94	95	2	95	96	2	96	97	2	97	98	2	98	99	2	99	100	2	100	101	2	101	102	2	102	103	2	103	104	2	104	105	2	105	106	2	106	107	2	107	108	2	108	109	2	109	110	2	110	111	2	111	112	2	112	113	2	199	0	2	0	1	2	1	2	2	2	3	2	3	4	2	4	5	2	5	6	2	6	7	2	182	183	2	183	184	2	184	185	2	185	186	2	186	187	2	187	188	2	188	189	2	189	190	2	190	191	2	191	192	2	192	193	2	193	194	2	194	195	2	195	196	2	196	197	2	197	198	2	198	199	2	7	8	2	8	9	2	9	10	2	10	11	2	11	12	2	12	13	2	13	14	2	14	15	2	15	16	2	16	17	2	17	18	2	18	19	2	19	20	2	20	21	2	21	22	2	22	23	2	23	24	2	24	25	2	25	26	2	26	27	2	27	28	2	28	29	2	29	30	2	30	31	
CELL_TYPES 200
3	3	3	3	3	3	3	3	3	3	3	3	3	3	3	3	3	3	3	3	3	3	3	3	3	3	3	3	3	3	3	3	3	3	3	3	3	3	3	3	3	3	3	3	3	3	3	3	3	3	3	3	3	3	3	3	3	3	3	3	3	3	3	3	3	3	3	3	3	3	3	3	3	3	3	3	3	3	3	3	3	3	3	3	3	3	3	3	3	3	3	3	3	3	3	3	3	3	3	3	3	3	3	3	3	3	3	3	3	3	3	3	3	3	3	3	3	3	3	3	3	3	3	3	3	3	3	3	3	3	3	3	3	3	3	3	3	3	3	3	3	3	3	3	3	3	3	3	3	3	3	3	3	3	3	3	3	3	3	3	3	3	3	3	3	3	3	3	3	3	3	3	3	3	3	3	3	3	3	3	3	3	3	3	3	3	3	3	3	3	3	3	3	3	3	3	3	3	3	3	
POINT_DATA 200

SCALARS Conservative_1 float 1
LOOKUP_TABLE default
1.199829e+00	1.181609e+00	1.171191e+00	1.164760e+00	1.160194e+00	1.155736e+00	1.148855e+00	1.137938e+00	1.121754e+00	1.100390e+00	1.075088e+00	1.048459e+00	1.024870e+00	1.008317e+00	9.999312e-01	9.978661e-01	9.989719e-01	1.000412e+00	1.000436e+00	9.984436e-01	9.946551e-01	9.896284e-01	9.839493e-01	9.780899e-01	9.723278e-01	9.667738e-01	9.614191e-01	9.562167e-01	9.511019e-01	9.460432e-01	9.410245e-01	9.360019e-01	9.309415e-01	9.258596e-01	9.208078e-01	9.158346e-01	9.109587e-01	9.061848e-01	9.015243e-01	8.969937e-01	8.925930e-01	8.883326e-01	8.841952e-01	8.801976e-01	8.763548e-01	8.727184e-01	8.692774e-01	8.659674e-01	8.626410e-01	8.592895e-01	8.561165e-01	8.534778e-01	8.514887e-01	8.498578e-01	8.479104e-01	8.448890e-01	8.402839e-01	8.342340e-01	8.276186e-01	8.217063e-01	8.173973e-01	8.148899e-01	8.139099e-01	8.140205e-01	8.149088e-01	8.163741e-01	8.183667e-01	8.208024e-01	8.235950e-01	8.266323e-01	8.299350e-01	8.336679e-01	8.380788e-01	8.432347e-01	8.490577e-01	8.554010e-01	8.623303e-01	8.700249e-01	8.785421e-01	8.879211e-01	8.982740e-01	9.096597e-01	9.222302e-01	9.361036e-01	9.514703e-01	9.686082e-01	9.877457e-01	1.009242e+00	1.033584e+00	1.061085e+00	1.092276e+00	1.127623e+00	1.166968e+00	1.209845e+00	1.254540e+00	1.298031e+00	1.331727e+00	1.350891e+00	1.339586e+00	1.308426e+00	1.284514e+00	1.221545e+00	1.100189e+00	1.002813e+00	9.267451e-01	8.708569e-01	8.326697e-01	8.074800e-01	7.904843e-01	7.789424e-01	7.711572e-01	7.659571e-01	7.627810e-01	7.608885e-01	7.599031e-01	7.598205e-01	7.605124e-01	7.617422e-01	7.631880e-01	7.645188e-01	7.657456e-01	7.671926e-01	7.691243e-01	7.713964e-01	7.736089e-01	7.755270e-01	7.772387e-01	7.788913e-01	7.805909e-01	7.824116e-01	7.844115e-01	7.865765e-01	7.888357e-01	7.910924e-01	7.933076e-01	7.954604e-01	7.975418e-01	7.995123e-01	8.013944e-01	8.033479e-01	8.056669e-01	8.085692e-01	8.120564e-01	8.158690e-01	8.196552e-01	8.231651e-01	8.263787e-01	8.295499e-01	8.330355e-01	8.371540e-01	8.419103e-01	8.471534e-01	8.527499e-01	8.587059e-01	8.649818e-01	8.714547e-01	8.780531e-01	8.848542e-01	8.920251e-01	8.995864e-01	9.074729e-01	9.155993e-01	9.239220e-01	9.324287e-01	9.410869e-01	9.498819e-01	9.587636e-01	9.677148e-01	9.766613e-01	9.856054e-01	9.944639e-01	1.003156e+00	1.011619e+00	1.019769e+00	1.027559e+00	1.034968e+00	1.042043e+00	1.048963e+00	1.055988e+00	1.063508e+00	1.071821e+00	1.081023e+00	1.090731e+00	1.100084e+00	1.107829e+00	1.112630e+00	1.113394e+00	1.109759e+00	1.102488e+00	1.093749e+00	1.086625e+00	1.084092e+00	1.087993e+00	1.098215e+00	1.112803e+00	1.129982e+00	1.148457e+00	1.168624e+00	1.192710e+00	1.181125e+00	
SCALARS Conservative_2 float 1
LOOKUP_TABLE default
7.195674e-01	7.459358e-01	7.640170e-01	7.748152e-01	7.806949e-01	7.854571e-01	7.912542e-01	8.009145e-01	8.159248e-01	8.363389e-01	8.604406e-01	8.849005e-01	9.060719e-01	9.215714e-01	9.308086e-01	9.347785e-01	9.355370e-01	9.351792e-01	9.351651e-01	9.361068e-01	9.380577e-01	9.407166e-01	9.437077e-01	9.467407e-01	9.496287e-01	9.523063e-01	9.547686e-01	9.570577e-01	9.591841e-01	9.611802e-01	9.630810e-01	9.648788e-01	9.665879e-01	9.682059e-01	9.697202e-01	9.711187e-01	9.724159e-01	9.735929e-01	9.746599e-01	9.756323e-01	9.764908e-01	9.772707e-01	9.779453e-01	9.785520e-01	9.790579e-01	9.795043e-01	9.798684e-01	9.802023e-01	9.804741e-01	9.807229e-01	9.808897e-01	9.810016e-01	9.810435e-01	9.810721e-01	9.811069e-01	9.811808e-01	9.812209e-01	9.811458e-01	9.808221e-01	9.803239e-01	9.798157e-01	9.793986e-01	9.791463e-01	9.789934e-01	9.789403e-01	9.788961e-01	9.788835e-01	9.788308e-01	9.787515e-01	9.785783e-01	9.783251e-01	9.779382e-01	9.774198e-01	9.766899e-01	9.757356e-01	9.744168e-01	9.727532e-01	9.706503e-01	9.678770e-01	9.642787e-01	9.597649e-01	9.540431e-01	9.468496e-01	9.377667e-01	9.262779e-01	9.116538e-01	8.929608e-01	8.691221e-01	8.385632e-01	7.991321e-01	7.483417e-01	6.831461e-01	5.998881e-01	4.963788e-01	3.726549e-01	2.365003e-01	1.074231e-01	1.087504e-02	-2.150129e-02	5.238305e-03	7.287201e-02	2.099901e-01	4.127260e-01	5.895006e-01	7.146976e-01	7.964649e-01	8.481974e-01	8.812008e-01	9.025221e-01	9.168772e-01	9.269233e-01	9.340865e-01	9.395472e-01	9.438126e-01	9.472313e-01	9.501614e-01	9.526661e-01	9.548319e-01	9.567562e-01	9.584158e-01	9.598953e-01	9.613101e-01	9.626779e-01	9.639109e-01	9.650126e-01	9.659792e-01	9.668666e-01	9.676807e-01	9.684646e-01	9.692161e-01	9.699675e-01	9.706988e-01	9.714134e-01	9.720806e-01	9.727138e-01	9.732984e-01	9.738467e-01	9.743507e-01	9.748299e-01	9.753063e-01	9.758372e-01	9.763932e-01	9.769541e-01	9.774650e-01	9.778910e-01	9.782420e-01	9.785361e-01	9.788272e-01	9.790677e-01	9.792918e-01	9.794402e-01	9.794993e-01	9.794302e-01	9.792301e-01	9.788605e-01	9.783056e-01	9.775944e-01	9.766598e-01	9.754998e-01	9.740578e-01	9.723348e-01	9.703068e-01	9.679770e-01	9.653293e-01	9.623585e-01	9.590594e-01	9.554303e-01	9.515113e-01	9.472363e-01	9.427167e-01	9.379592e-01	9.329823e-01	9.279022e-01	9.227739e-01	9.176523e-01	9.125637e-01	9.074523e-01	9.021952e-01	8.964996e-01	8.900687e-01	8.825664e-01	8.739853e-01	8.647513e-01	8.559486e-01	8.491187e-01	8.458295e-01	8.470921e-01	8.528114e-01	8.615265e-01	8.705687e-01	8.766270e-01	8.770547e-01	8.705433e-01	8.578273e-01	8.396417e-01	8.175372e-01	7.912277e-01	7.596789e-01	7.213443e-01	6.623606e-01	
SCALARS Conservative_3 float 1
LOOKUP_TABLE default
1.010192e-01	1.066661e-01	1.128622e-01	1.197617e-01	1.301822e-01	1.448092e-01	1.632961e-01	1.837284e-01	2.029558e-01	2.170536e-01	2.228365e-01	2.187255e-01	2.056857e-01	1.875129e-01	1.689358e-01	1.536255e-01	1.432218e-01	1.374842e-01	1.350605e-01	1.343177e-01	1.339593e-01	1.332215e-01	1.318189e-01	1.297796e-01	1.272720e-01	1.244959e-01	1.215849e-01	1.186282e-01	1.156515e-01	1.126425e-01	1.095896e-01	1.064722e-01	1.032790e-01	1.000024e-01	9.662847e-02	9.317200e-02	8.962948e-02	8.601944e-02	8.234829e-02	7.862804e-02	7.487196e-02	7.108696e-02	6.729162e-02	6.348747e-02	5.968203e-02	5.586676e-02	5.204548e-02	4.823041e-02	4.444515e-02	4.069403e-02	3.694071e-02	3.312830e-02	2.923417e-02	2.524505e-02	2.119282e-02	1.712167e-02	1.307752e-02	9.048515e-03	4.927041e-03	5.743087e-04	-4.047299e-03	-8.915774e-03	-1.401921e-02	-1.934592e-02	-2.493425e-02	-3.081243e-02	-3.703695e-02	-4.362472e-02	-5.060937e-02	-5.801098e-02	-6.587681e-02	-7.427134e-02	-8.326504e-02	-9.289047e-02	-1.031903e-01	-1.142168e-01	-1.260814e-01	-1.388511e-01	-1.526021e-01	-1.674588e-01	-1.835402e-01	-2.009590e-01	-2.198712e-01	-2.404119e-01	-2.627019e-01	-2.868594e-01	-3.129550e-01	-3.409332e-01	-3.704054e-01	-4.006372e-01	-4.301475e-01	-4.558218e-01	-4.725764e-01	-4.719895e-01	-4.411484e-01	-3.646577e-01	-2.308565e-01	-3.839128e-02	1.852621e-01	3.511499e-01	4.955441e-01	6.603457e-01	7.233647e-01	6.886837e-01	6.118160e-01	5.282329e-01	4.537163e-01	3.918571e-01	3.415580e-01	3.004395e-01	2.667706e-01	2.387658e-01	2.152497e-01	1.952682e-01	1.780835e-01	1.631798e-01	1.501709e-01	1.387041e-01	1.285246e-01	1.193601e-01	1.110099e-01	1.034042e-01	9.649386e-02	9.018727e-02	8.435472e-02	7.884845e-02	7.364135e-02	6.870866e-02	6.404146e-02	5.958986e-02	5.532183e-02	5.120579e-02	4.720951e-02	4.329551e-02	3.943897e-02	3.562078e-02	3.182672e-02	2.803365e-02	2.420985e-02	2.033347e-02	1.641293e-02	1.246328e-02	8.484206e-03	4.444286e-03	3.023858e-04	-3.982007e-03	-8.425292e-03	-1.300775e-02	-1.771078e-02	-2.250434e-02	-2.737869e-02	-3.237452e-02	-3.748710e-02	-4.272198e-02	-4.802861e-02	-5.340482e-02	-5.884452e-02	-6.432138e-02	-6.978493e-02	-7.519922e-02	-8.052607e-02	-8.575030e-02	-9.081170e-02	-9.568098e-02	-1.002888e-01	-1.046112e-01	-1.085772e-01	-1.121519e-01	-1.152799e-01	-1.179169e-01	-1.200223e-01	-1.215619e-01	-1.225368e-01	-1.229725e-01	-1.229416e-01	-1.225901e-01	-1.220930e-01	-1.216283e-01	-1.212680e-01	-1.208481e-01	-1.198360e-01	-1.173352e-01	-1.122274e-01	-1.036273e-01	-9.134502e-02	-7.630322e-02	-6.066681e-02	-4.752535e-02	-4.012742e-02	-4.067976e-02	-4.927847e-02	-6.368632e-02	-8.009131e-02	-9.475968e-02	-1.049670e-01	-1.097922e-01	-1.102837e-01	-1.062015e-01	-1.003440e-01	2.576650e-03	
SCALARS Conservative_4 float 1
LOOKUP_TABLE default
3.446401e+00	3.400803e+00	3.375531e+00	3.360030e+00	3.348899e+00	3.338043e+00	3.320957e+00	3.293771e+00	3.253390e+00	3.200041e+00	3.136742e+00	3.069882e+00	3.010482e+00	2.968779e+00	2.947679e+00	2.942474e+00	2.945211e+00	2.948762e+00	2.948729e+00	2.943588e+00	2.933903e+00	2.921075e+00	2.906577e+00	2.891602e+00	2.876854e+00	2.862615e+00	2.848865e+00	2.835491e+00	2.822322e+00	2.809281e+00	2.796335e+00	2.783362e+00	2.770277e+00	2.757123e+00	2.744031e+00	2.731128e+00	2.718466e+00	2.706052e+00	2.693920e+00	2.682116e+00	2.670634e+00	2.659512e+00	2.648695e+00	2.638239e+00	2.628171e+00	2.618641e+00	2.609611e+00	2.600926e+00	2.592189e+00	2.583387e+00	2.575039e+00	2.568087e+00	2.562827e+00	2.558511e+00	2.553371e+00	2.545429e+00	2.533328e+00	2.517414e+00	2.499957e+00	2.484305e+00	2.472863e+00	2.466176e+00	2.463549e+00	2.463816e+00	2.466163e+00	2.470036e+00	2.475315e+00	2.481761e+00	2.489157e+00	2.497191e+00	2.505926e+00	2.515784e+00	2.527424e+00	2.541006e+00	2.556335e+00	2.572993e+00	2.591178e+00	2.611351e+00	2.633617e+00	2.658063e+00	2.684999e+00	2.714538e+00	2.747067e+00	2.782852e+00	2.822345e+00	2.866205e+00	2.914948e+00	2.969454e+00	3.030876e+00	3.099865e+00	3.177679e+00	3.265361e+00	3.362261e+00	3.467180e+00	3.575795e+00	3.681258e+00	3.762445e+00	3.809702e+00	3.781364e+00	3.703248e+00	3.650250e+00	3.500930e+00	3.192612e+00	2.945017e+00	2.749875e+00	2.605664e+00	2.506890e+00	2.441651e+00	2.397467e+00	2.367361e+00	2.347023e+00	2.333375e+00	2.325057e+00	2.320121e+00	2.317577e+00	2.317453e+00	2.319374e+00	2.322714e+00	2.326640e+00	2.330258e+00	2.333609e+00	2.337564e+00	2.342806e+00	2.348923e+00	2.354870e+00	2.360029e+00	2.364645e+00	2.369098e+00	2.373680e+00	2.378578e+00	2.383955e+00	2.389766e+00	2.395825e+00	2.401871e+00	2.407804e+00	2.413566e+00	2.419137e+00	2.424409e+00	2.429449e+00	2.434680e+00	2.440891e+00	2.448641e+00	2.457929e+00	2.468062e+00	2.478108e+00	2.487417e+00	2.495943e+00	2.504368e+00	2.513612e+00	2.524525e+00	2.537104e+00	2.550951e+00	2.565708e+00	2.581392e+00	2.597890e+00	2.614877e+00	2.632175e+00	2.649969e+00	2.668702e+00	2.688416e+00	2.708942e+00	2.730049e+00	2.751625e+00	2.773636e+00	2.795994e+00	2.818660e+00	2.841500e+00	2.864482e+00	2.887386e+00	2.910251e+00	2.932854e+00	2.954980e+00	2.976490e+00	2.997170e+00	3.016906e+00	3.035649e+00	3.053513e+00	3.070958e+00	3.088620e+00	3.107487e+00	3.128283e+00	3.151263e+00	3.175471e+00	3.198791e+00	3.218147e+00	3.230239e+00	3.232331e+00	3.223451e+00	3.205418e+00	3.183595e+00	3.165650e+00	3.159057e+00	3.168506e+00	3.193874e+00	3.230040e+00	3.272588e+00	3.318053e+00	3.367465e+00	3.426989e+00	3.383855e+00	
SCALARS Pressure float 1
LOOKUP_TABLE default
1.290551e+00	1.264216e+00	1.248357e+00	1.238466e+00	1.231572e+00	1.224826e+00	1.214748e+00	1.198834e+00	1.175317e+00	1.144324e+00	1.107729e+00	1.069456e+00	1.035728e+00	1.012080e+00	1.000071e+00	9.971233e-01	9.987517e-01	1.000886e+00	1.001014e+00	9.982889e-01	9.930168e-01	9.859989e-01	9.780764e-01	9.699177e-01	9.619177e-01	9.542287e-01	9.468381e-01	9.396731e-01	9.326491e-01	9.257181e-01	9.188504e-01	9.119934e-01	9.050996e-01	8.981911e-01	8.913382e-01	8.846073e-01	8.780188e-01	8.715848e-01	8.653177e-01	8.592349e-01	8.533426e-01	8.476445e-01	8.421267e-01	8.368003e-01	8.316962e-01	8.268699e-01	8.223153e-01	8.179319e-01	8.135369e-01	8.091061e-01	8.049273e-01	8.014617e-01	7.988682e-01	7.967455e-01	7.941973e-01	7.902107e-01	7.841311e-01	7.761601e-01	7.674996e-01	7.598097e-01	7.542396e-01	7.510271e-01	7.497855e-01	7.499544e-01	7.511146e-01	7.530271e-01	7.556140e-01	7.587840e-01	7.624134e-01	7.663713e-01	7.706752e-01	7.755551e-01	7.813294e-01	7.881027e-01	7.957631e-01	8.041487e-01	8.133210e-01	8.235258e-01	8.348862e-01	8.474683e-01	8.614061e-01	8.768179e-01	8.939177e-01	9.129055e-01	9.340809e-01	9.578812e-01	9.846937e-01	1.015056e+00	1.049734e+00	1.089322e+00	1.134652e+00	1.186519e+00	1.244954e+00	1.309314e+00	1.377154e+00	1.443396e+00	1.495241e+00	1.523645e+00	1.507352e+00	1.462447e+00	1.421039e+00	1.321758e+00	1.150957e+00	1.014109e+00	9.089348e-01	8.324982e-01	7.805077e-01	7.462975e-01	7.233823e-01	7.079208e-01	6.975218e-01	6.906402e-01	6.864191e-01	6.838834e-01	6.825364e-01	6.823353e-01	6.831451e-01	6.846608e-01	6.864431e-01	6.880785e-01	6.895710e-01	6.913293e-01	6.937132e-01	6.965664e-01	6.993540e-01	7.017680e-01	7.039106e-01	7.059813e-01	7.081099e-01	7.103994e-01	7.129183e-01	7.156555e-01	7.185152e-01	7.213792e-01	7.241911e-01	7.269285e-01	7.295755e-01	7.320824e-01	7.344733e-01	7.369546e-01	7.398995e-01	7.436078e-01	7.480868e-01	7.530064e-01	7.579083e-01	7.624563e-01	7.666181e-01	7.707130e-01	7.752298e-01	7.805766e-01	7.867763e-01	7.936288e-01	8.009675e-01	8.087976e-01	8.170764e-01	8.256447e-01	8.343973e-01	8.434545e-01	8.530319e-01	8.631704e-01	8.737809e-01	8.847568e-01	8.960385e-01	9.076127e-01	9.194378e-01	9.314945e-01	9.437191e-01	9.560773e-01	9.684935e-01	9.809401e-01	9.933114e-01	1.005502e+00	1.017405e+00	1.028901e+00	1.039921e+00	1.050428e+00	1.060495e+00	1.070370e+00	1.080443e+00	1.091266e+00	1.103288e+00	1.116638e+00	1.130761e+00	1.144366e+00	1.155588e+00	1.162448e+00	1.163374e+00	1.157902e+00	1.147229e+00	1.134550e+00	1.124370e+00	1.120963e+00	1.126912e+00	1.141903e+00	1.163329e+00	1.188605e+00	1.216080e+00	1.246288e+00	1.281854e+00	1.279252e+00	
SCALARS Temperature float 1
LOOKUP_TABLE default
1.075612e+00	1.069910e+00	1.065887e+00	1.063280e+00	1.061523e+00	1.059781e+00	1.057355e+00	1.053514e+00	1.047750e+00	1.039925e+00	1.030361e+00	1.020026e+00	1.010594e+00	1.003731e+00	1.000139e+00	9.992556e-01	9.997795e-01	1.000474e+00	1.000578e+00	9.998451e-01	9.983529e-01	9.963325e-01	9.940313e-01	9.916447e-01	9.892936e-01	9.870237e-01	9.848339e-01	9.826989e-01	9.805985e-01	9.785157e-01	9.764362e-01	9.743499e-01	9.722411e-01	9.701158e-01	9.679959e-01	9.659029e-01	9.638404e-01	9.618179e-01	9.598385e-01	9.579051e-01	9.560265e-01	9.541972e-01	9.524217e-01	9.506960e-01	9.490405e-01	9.474647e-01	9.459757e-01	9.445297e-01	9.430770e-01	9.415989e-01	9.402077e-01	9.390540e-01	9.382018e-01	9.375045e-01	9.366523e-01	9.352835e-01	9.331740e-01	9.303865e-01	9.273591e-01	9.246731e-01	9.227332e-01	9.216302e-01	9.212143e-01	9.212967e-01	9.217162e-01	9.224044e-01	9.233196e-01	9.244418e-01	9.257140e-01	9.271006e-01	9.285971e-01	9.302926e-01	9.322863e-01	9.346184e-01	9.372308e-01	9.400839e-01	9.431664e-01	9.465543e-01	9.503087e-01	9.544410e-01	9.589570e-01	9.638966e-01	9.692999e-01	9.752185e-01	9.817236e-01	9.889254e-01	9.969101e-01	1.005761e+00	1.015626e+00	1.026612e+00	1.038795e+00	1.052230e+00	1.066828e+00	1.082216e+00	1.097736e+00	1.111989e+00	1.122784e+00	1.127882e+00	1.125237e+00	1.117714e+00	1.106285e+00	1.082038e+00	1.046145e+00	1.011264e+00	9.807819e-01	9.559529e-01	9.373558e-01	9.242304e-01	9.151128e-01	9.088230e-01	9.045131e-01	9.016695e-01	8.998901e-01	8.987957e-01	8.981887e-01	8.980216e-01	8.982695e-01	8.988091e-01	8.994417e-01	9.000151e-01	9.005223e-01	9.011157e-01	9.019520e-01	9.029941e-01	9.040150e-01	9.048918e-01	9.056556e-01	9.063926e-01	9.071460e-01	9.079613e-01	9.088575e-01	9.098358e-01	9.108553e-01	9.118773e-01	9.128755e-01	9.138463e-01	9.147803e-01	9.156613e-01	9.164943e-01	9.173543e-01	9.183689e-01	9.196589e-01	9.212252e-01	9.229502e-01	9.246673e-01	9.262495e-01	9.276837e-01	9.290737e-01	9.306083e-01	9.324170e-01	9.345131e-01	9.368183e-01	9.392760e-01	9.418796e-01	9.446169e-01	9.474328e-01	9.502812e-01	9.532129e-01	9.562869e-01	9.595192e-01	9.628728e-01	9.663144e-01	9.698205e-01	9.733856e-01	9.769956e-01	9.806425e-01	9.843085e-01	9.879742e-01	9.916371e-01	9.952666e-01	9.988410e-01	1.002339e+00	1.005719e+00	1.008955e+00	1.012030e+00	1.014938e+00	1.017708e+00	1.020408e+00	1.023158e+00	1.026100e+00	1.029359e+00	1.032946e+00	1.036699e+00	1.040253e+00	1.043110e+00	1.044775e+00	1.044890e+00	1.043382e+00	1.040582e+00	1.037304e+00	1.034736e+00	1.034011e+00	1.035772e+00	1.039781e+00	1.045405e+00	1.051879e+00	1.058882e+00	1.066458e+00	1.074741e+00	1.083079e+00	
SCALARS Pressure_Coefficient float 1
LOOKUP_TABLE default
6.485513e-01	5.897668e-01	5.543689e-01	5.322892e-01	5.169024e-01	5.018446e-01	4.793487e-01	4.438262e-01	3.913327e-01	3.221509e-01	2.404672e-01	1.550346e-01	7.975041e-02	2.696397e-02	1.576932e-04	-6.421220e-03	-2.786444e-03	1.977979e-03	2.264448e-03	-3.819388e-03	-1.558758e-02	-3.125241e-02	-4.893659e-02	-6.714807e-02	-8.500519e-02	-1.021681e-01	-1.186651e-01	-1.346582e-01	-1.503368e-01	-1.658079e-01	-1.811375e-01	-1.964434e-01	-2.118313e-01	-2.272521e-01	-2.425486e-01	-2.575731e-01	-2.722794e-01	-2.866411e-01	-3.006301e-01	-3.142079e-01	-3.273604e-01	-3.400793e-01	-3.523958e-01	-3.642850e-01	-3.756781e-01	-3.864511e-01	-3.966177e-01	-4.064020e-01	-4.162123e-01	-4.261025e-01	-4.354302e-01	-4.431659e-01	-4.489549e-01	-4.536931e-01	-4.593811e-01	-4.682796e-01	-4.818503e-01	-4.996426e-01	-5.189741e-01	-5.361390e-01	-5.485723e-01	-5.557430e-01	-5.585146e-01	-5.581374e-01	-5.555477e-01	-5.512788e-01	-5.455046e-01	-5.384285e-01	-5.303272e-01	-5.214926e-01	-5.118857e-01	-5.009931e-01	-4.881040e-01	-4.729851e-01	-4.558860e-01	-4.371682e-01	-4.166942e-01	-3.939157e-01	-3.685576e-01	-3.404725e-01	-3.093613e-01	-2.749600e-01	-2.367909e-01	-1.944073e-01	-1.471409e-01	-9.401515e-02	-3.416593e-02	3.360779e-02	1.110137e-01	1.993802e-01	3.005617e-01	4.163371e-01	5.467723e-01	6.904333e-01	8.418613e-01	9.897239e-01	1.105449e+00	1.168851e+00	1.132483e+00	1.032248e+00	9.398187e-01	7.182098e-01	3.369583e-01	3.149257e-02	-2.032705e-01	-3.738879e-01	-4.899381e-01	-5.663002e-01	-6.174501e-01	-6.519625e-01	-6.751746e-01	-6.905353e-01	-6.999574e-01	-7.056175e-01	-7.086241e-01	-7.090731e-01	-7.072654e-01	-7.038821e-01	-6.999038e-01	-6.962534e-01	-6.929218e-01	-6.889970e-01	-6.836758e-01	-6.773071e-01	-6.710848e-01	-6.656964e-01	-6.609139e-01	-6.562917e-01	-6.515404e-01	-6.464298e-01	-6.408074e-01	-6.346976e-01	-6.283143e-01	-6.219214e-01	-6.156449e-01	-6.095346e-01	-6.036261e-01	-5.980303e-01	-5.926934e-01	-5.871548e-01	-5.805816e-01	-5.723039e-01	-5.623062e-01	-5.513250e-01	-5.403833e-01	-5.302316e-01	-5.209418e-01	-5.118014e-01	-5.017192e-01	-4.897844e-01	-4.759459e-01	-4.606499e-01	-4.442689e-01	-4.267911e-01	-4.083116e-01	-3.891859e-01	-3.696488e-01	-3.494320e-01	-3.280537e-01	-3.054232e-01	-2.817390e-01	-2.572393e-01	-2.320570e-01	-2.062217e-01	-1.798264e-01	-1.529140e-01	-1.256270e-01	-9.804176e-02	-7.032692e-02	-4.254439e-02	-1.492997e-02	1.228208e-02	3.885018e-02	6.451222e-02	8.910839e-02	1.125635e-01	1.350334e-01	1.570756e-01	1.795602e-01	2.037178e-01	2.305532e-01	2.603525e-01	2.918766e-01	3.222446e-01	3.472936e-01	3.626067e-01	3.646751e-01	3.524606e-01	3.286367e-01	3.003346e-01	2.776124e-01	2.700067e-01	2.832864e-01	3.167472e-01	3.645733e-01	4.209927e-01	4.823217e-01	5.497502e-01	6.291385e-01	6.233309e-01	
SCALARS Mach float 1
LOOKUP_TABLE default
4.935126e-01	5.210571e-01	5.398129e-01	5.516974e-01	5.595999e-01	5.673487e-01	5.780072e-01	5.945930e-01	6.188654e-01	6.507661e-01	6.883583e-01	7.275296e-01	7.621714e-01	7.868063e-01	7.995277e-01	8.026409e-01	8.007962e-01	7.983480e-01	7.979803e-01	8.005652e-01	8.058139e-01	8.128911e-01	8.209122e-01	8.291875e-01	8.372985e-01	8.450916e-01	8.525759e-01	8.598414e-01	8.669607e-01	8.739930e-01	8.809872e-01	8.879790e-01	8.950206e-01	9.020924e-01	9.091219e-01	9.160396e-01	9.228344e-01	9.294771e-01	9.359598e-01	9.422742e-01	9.483935e-01	9.543377e-01	9.600933e-01	9.656750e-01	9.710184e-01	9.760946e-01	9.808827e-01	9.855245e-01	9.901800e-01	9.949091e-01	9.993536e-01	1.003034e+00	1.005750e+00	1.007970e+00	1.010682e+00	1.015032e+00	1.021725e+00	1.030548e+00	1.040106e+00	1.048564e+00	1.054661e+00	1.058123e+00	1.059428e+00	1.059169e+00	1.057853e+00	1.055693e+00	1.052819e+00	1.049291e+00	1.045288e+00	1.040920e+00	1.036201e+00	1.030845e+00	1.024537e+00	1.017144e+00	1.008841e+00	9.997488e-01	9.898936e-01	9.790233e-01	9.669261e-01	9.535461e-01	9.388407e-01	9.226495e-01	9.048009e-01	8.850712e-01	8.631509e-01	8.385652e-01	8.108713e-01	7.795679e-01	7.438126e-01	7.027313e-01	6.552829e-01	6.000611e-01	5.354716e-01	4.599519e-01	3.713127e-01	2.683647e-01	1.525021e-01	2.350589e-02	1.109264e-01	2.145666e-01	3.133225e-01	4.608872e-01	6.254997e-01	7.597416e-01	8.663402e-01	9.486329e-01	1.008444e+00	1.049956e+00	1.078521e+00	1.098118e+00	1.111500e+00	1.120311e+00	1.125818e+00	1.129202e+00	1.131078e+00	1.131595e+00	1.130829e+00	1.129161e+00	1.127205e+00	1.125431e+00	1.123862e+00	1.122026e+00	1.119437e+00	1.116209e+00	1.113045e+00	1.110326e+00	1.107956e+00	1.105669e+00	1.103329e+00	1.100796e+00	1.098011e+00	1.094968e+00	1.091795e+00	1.088612e+00	1.085501e+00	1.082474e+00	1.079559e+00	1.076808e+00	1.074206e+00	1.071517e+00	1.068343e+00	1.064304e+00	1.059394e+00	1.053979e+00	1.048582e+00	1.043602e+00	1.039082e+00	1.034696e+00	1.029847e+00	1.024123e+00	1.017478e+00	1.010154e+00	1.002326e+00	9.940118e-01	9.852448e-01	9.761974e-01	9.670149e-01	9.575300e-01	9.475462e-01	9.370039e-01	9.260149e-01	9.146812e-01	9.030731e-01	8.912022e-01	8.791082e-01	8.668119e-01	8.543666e-01	8.418326e-01	8.292140e-01	8.166115e-01	8.040989e-01	7.917518e-01	7.797169e-01	7.680968e-01	7.569612e-01	7.463390e-01	7.361366e-01	7.261071e-01	7.158022e-01	7.046776e-01	6.922211e-01	6.783370e-01	6.636053e-01	6.494534e-01	6.379183e-01	6.311270e-01	6.306571e-01	6.368130e-01	6.481315e-01	6.612139e-01	6.713381e-01	6.741800e-01	6.672654e-01	6.513453e-01	6.285461e-01	6.015483e-01	5.713171e-01	5.371830e-01	4.977987e-01	4.554154e-01	