# vtk DataFile Version 3.0
vtk output
ASCII
DATASET UNSTRUCTURED_GRID
POINTS 200 float
9.997500e-01	-3.633243e-05	0.0	9.990000e-01	-1.454723e-04	0.0	9.977600e-01	-3.275073e-04	0.0	9.960200e-01	-5.899270e-04	0.0	9.937800e-01	-9.470942e-04	0.0	9.910500e-01	-1.422095e-03	0.0	9.878400e-01	-2.045514e-03	0.0	9.841300e-01	-2.853669e-03	0.0	9.799500e-01	-3.858874e-03	0.0	9.752800e-01	-5.058290e-03	0.0	9.701500e-01	-6.405099e-03	0.0	9.645400e-01	-7.840828e-03	0.0	9.584700e-01	-9.290140e-03	0.0	9.519400e-01	-1.069768e-02	0.0	9.449600e-01	-1.203550e-02	0.0	9.375400e-01	-1.330799e-02	0.0	9.296900e-01	-1.454248e-02	0.0	9.214000e-01	-1.577722e-02	0.0	9.127000e-01	-1.703949e-02	0.0	9.035800e-01	-1.835031e-02	0.0	8.940600e-01	-1.971332e-02	0.0	8.841500e-01	-2.112392e-02	0.0	8.738500e-01	-2.257390e-02	0.0	8.631800e-01	-2.405116e-02	0.0	8.521600e-01	-2.554505e-02	0.0	8.407700e-01	-2.705239e-02	0.0	8.290500e-01	-2.856396e-02	0.0	8.170100e-01	-3.007590e-02	0.0	8.046400e-01	-3.158739e-02	0.0	7.919700e-01	-3.309279e-02	0.0	7.790100e-01	-3.458882e-02	0.0	7.657800e-01	-3.607087e-02	0.0	7.522800e-01	-3.753639e-02	0.0	7.385200e-01	-3.898152e-02	0.0	7.245300e-01	-4.040040e-02	0.0	7.103200e-01	-4.178939e-02	0.0	6.958900e-01	-4.314594e-02	0.0	6.812700e-01	-4.446485e-02	0.0	6.664700e-01	-4.574311e-02	0.0	6.515000e-01	-4.697796e-02	0.0	6.363800e-01	-4.816608e-02	0.0	6.211300e-01	-4.930456e-02	0.0	6.057600e-01	-5.039154e-02	0.0	5.902800e-01	-5.142539e-02	0.0	5.747100e-01	-5.240406e-02	0.0	5.590600e-01	-5.332638e-02	0.0	5.433600e-01	-5.419027e-02	0.0	5.276100e-01	-5.499552e-02	0.0	5.118400e-01	-5.574050e-02	0.0	4.960500e-01	-5.642515e-02	0.0	4.802700e-01	-5.704812e-02	0.0	4.645100e-01	-5.760903e-02	0.0	4.487800e-01	-5.810740e-02	0.0	4.331100e-01	-5.854215e-02	0.0	4.175000e-01	-5.891305e-02	0.0	4.019700e-01	-5.921922e-02	0.0	3.865400e-01	-5.945976e-02	0.0	3.712300e-01	-5.963378e-02	0.0	3.560400e-01	-5.974050e-02	0.0	3.409900e-01	-5.977875e-02	0.0	3.261100e-01	-5.974744e-02	0.0	3.114000e-01	-5.964541e-02	0.0	2.968700e-01	-5.947130e-02	0.0	2.825500e-01	-5.922401e-02	0.0	2.684500e-01	-5.890227e-02	0.0	2.545700e-01	-5.850439e-02	0.0	2.409400e-01	-5.802951e-02	0.0	2.275700e-01	-5.747634e-02	0.0	2.144700e-01	-5.684361e-02	0.0	2.016600e-01	-5.613062e-02	0.0	1.891400e-01	-5.533570e-02	0.0	1.769300e-01	-5.445842e-02	0.0	1.650400e-01	-5.349796e-02	0.0	1.534900e-01	-5.245453e-02	0.0	1.422900e-01	-5.132786e-02	0.0	1.314400e-01	-5.011669e-02	0.0	1.209500e-01	-4.882076e-02	0.0	1.108500e-01	-4.744286e-02	0.0	1.011300e-01	-4.598083e-02	0.0	9.181000e-02	-4.443677e-02	0.0	8.290000e-02	-4.281181e-02	0.0	7.440000e-02	-4.110530e-02	0.0	6.633000e-02	-3.932078e-02	0.0	5.869000e-02	-3.745796e-02	0.0	5.149000e-02	-3.551885e-02	0.0	4.474000e-02	-3.350598e-02	0.0	3.844000e-02	-3.141903e-02	0.0	3.260000e-02	-2.926086e-02	0.0	2.723000e-02	-2.703515e-02	0.0	2.232000e-02	-2.473687e-02	0.0	1.790000e-02	-2.238001e-02	0.0	1.395000e-02	-1.995376e-02	0.0	1.049000e-02	-1.746938e-02	0.0	7.520000e-03	-1.492778e-02	0.0	5.040000e-03	-1.232913e-02	0.0	3.050000e-03	-9.671895e-03	0.0	1.560000e-03	-6.971319e-03	0.0	5.600000e-04	-4.206243e-03	0.0	6.000000e-05	-1.384014e-03	0.0	0.000000e+00	0.000000e+00	0.0	6.000000e-05	1.263715e-03	0.0	5.600000e-04	3.624949e-03	0.0	1.560000e-03	5.788668e-03	0.0	3.050000e-03	7.806632e-03	0.0	5.040000e-03	9.723865e-03	0.0	7.520000e-03	1.154812e-02	0.0	1.049000e-02	1.329439e-02	0.0	1.395000e-02	1.497318e-02	0.0	1.790000e-02	1.659241e-02	0.0	2.232000e-02	1.815170e-02	0.0	2.723000e-02	1.966419e-02	0.0	3.260000e-02	2.112576e-02	0.0	3.844000e-02	2.254411e-02	0.0	4.474000e-02	2.392058e-02	0.0	5.149000e-02	2.525657e-02	0.0	5.869000e-02	2.655508e-02	0.0	6.633000e-02	2.781686e-02	0.0	7.440000e-02	2.904256e-02	0.0	8.290000e-02	3.023409e-02	0.0	9.181000e-02	3.139036e-02	0.0	1.011300e-01	3.251287e-02	0.0	1.108500e-01	3.360159e-02	0.0	1.209500e-01	3.465539e-02	0.0	1.314400e-01	3.567613e-02	0.0	1.422900e-01	3.666151e-02	0.0	1.534900e-01	3.761128e-02	0.0	1.650400e-01	3.852579e-02	0.0	1.769300e-01	3.940436e-02	0.0	1.891400e-01	4.024553e-02	0.0	2.016600e-01	4.104850e-02	0.0	2.144700e-01	4.181178e-02	0.0	2.275700e-01	4.253494e-02	0.0	2.409400e-01	4.321630e-02	0.0	2.545700e-01	4.385459e-02	0.0	2.684500e-01	4.444842e-02	0.0	2.825500e-01	4.499547e-02	0.0	2.968700e-01	4.549457e-02	0.0	3.114000e-01	4.594395e-02	0.0	3.261100e-01	4.634114e-02	0.0	3.409900e-01	4.668426e-02	0.0	3.560400e-01	4.697146e-02	0.0	3.712300e-01	4.720014e-02	0.0	3.865400e-01	4.736803e-02	0.0	4.019700e-01	4.747296e-02	0.0	4.175000e-01	4.751249e-02	0.0	4.331100e-01	4.748426e-02	0.0	4.487800e-01	4.738604e-02	0.0	4.645100e-01	4.721548e-02	0.0	4.802700e-01	4.697062e-02	0.0	4.960500e-01	4.664941e-02	0.0	5.118400e-01	4.624996e-02	0.0	5.276100e-01	4.577110e-02	0.0	5.433600e-01	4.521116e-02	0.0	5.590600e-01	4.456977e-02	0.0	5.747100e-01	4.384581e-02	0.0	5.902800e-01	4.303992e-02	0.0	6.057600e-01	4.215238e-02	0.0	6.211300e-01	4.118455e-02	0.0	6.363800e-01	4.013785e-02	0.0	6.515000e-01	3.901421e-02	0.0	6.664700e-01	3.781699e-02	0.0	6.812700e-01	3.655041e-02	0.0	6.958900e-01	3.521861e-02	0.0	7.103200e-01	3.382640e-02	0.0	7.245300e-01	3.238135e-02	0.0	7.385200e-01	3.088879e-02	0.0	7.522800e-01	2.935567e-02	0.0	7.657800e-01	2.779190e-02	0.0	7.790100e-01	2.620584e-02	0.0	7.919700e-01	2.460514e-02	0.0	8.046400e-01	2.300032e-02	0.0	8.170100e-01	2.140104e-02	0.0	8.290500e-01	1.981962e-02	0.0	8.407700e-01	1.826288e-02	0.0	8.521600e-01	1.673924e-02	0.0	8.631800e-01	1.525956e-02	0.0	8.738500e-01	1.382431e-02	0.0	8.841500e-01	1.243671e-02	0.0	8.940600e-01	1.109797e-02	0.0	9.035800e-01	9.806396e-03	0.0	9.127000e-01	8.564698e-03	0.0	9.214000e-01	7.383819e-03	0.0	9.296900e-01	6.280321e-03	0.0	9.375400e-01	5.285166e-03	0.0	9.449600e-01	4.427495e-03	0.0	9.519400e-01	3.732223e-03	0.0	9.584700e-01	3.205467e-03	0.0	9.645400e-01	2.827052e-03	0.0	9.701500e-01	2.552121e-03	0.0	9.752800e-01	2.324878e-03	0.0	9.799500e-01	2.093088e-03	0.0	9.841300e-01	1.827039e-03	0.0	9.878400e-01	1.519907e-03	0.0	9.910500e-01	1.190204e-03	0.0	9.937800e-01	8.630226e-04	0.0	9.960200e-01	5.666265e-04	0.0	9.977600e-01	3.231883e-04	0.0	9.990000e-01	1.450783e-04	0.0	9.997500e-01	3.632619e-05	0.0	1.000000e+00	0.000000e+00	0.0	
CELLS 200	600
2	199	0	2	0	1	2	1	2	2	2	3	2	3	4	2	4	5	2	5	6	2	6	7	2	7	8	2	8	9	2	9	10	2	10	11	2	11	12	2	12	13	2	13	14	2	14	15	2	15	16	2	16	17	2	17	18	2	18	19	2	19	20	2	20	21	2	21	22	2	22	23	2	23	24	2	24	25	2	25	26	2	26	27	2	27	28	2	28	29	2	29	30	2	30	31	2	31	32	2	32	33	2	33	34	2	34	35	2	35	36	2	36	37	2	37	38	2	38	39	2	39	40	2	40	41	2	41	42	2	42	43	2	43	44	2	44	45	2	45	46	2	46	47	2	47	48	2	48	49	2	49	50	2	50	51	2	51	52	2	52	53	2	53	54	2	54	55	2	55	56	2	56	57	2	57	58	2	58	59	2	59	60	2	60	61	2	61	62	2	62	63	2	63	64	2	64	65	2	65	66	2	66	67	2	67	68	2	68	69	2	69	70	2	70	71	2	71	72	2	72	73	2	73	74	2	74	75	2	75	76	2	76	77	2	77	78	2	78	79	2	79	80	2	80	81	2	81	82	2	82	83	2	83	84	2	84	85	2	85	86	2	86	87	2	87	88	2	88	89	2	89	90	2	90	91	2	91	92	2	92	93	2	93	94	2	94	95	2	95	96	2	96	97	2	97	98	2	98	99	2	99	100	2	100	101	2	101	102	2	102	103	2	103	104	2	104	105	2	105	106	2	106	107	2	107	108	2	108	109	2	109	110	2	110	111	2	111	112	2	112	113	2	113	114	2	114	115	2	115	116	2	116	117	2	117	118	2	118	119	2	119	120	2	120	121	2	121	122	2	122	123	2	123	124	2	124	125	2	125	126	2	126	127	2	127	128	2	128	129	2	129	130	2	130	131	2	131	132	2	132	133	2	133	134	2	134	135	2	135	136	2	136	137	2	137	138	2	138	139	2	139	140	2	140	141	2	141	142	2	142	143	2	143	144	2	144	145	2	145	146	2	146	147	2	147	148	2	148	149	2	149	150	2	150	151	2	151	152	2	152	153	2	153	154	2	154	155	2	155	156	2	156	157	2	157	158	2	158	159	2	159	160	2	160	161	2	161	162	2	162	163	2	163	164	2	164	165	2	165	166	2	166	167	2	167	168	2	168	169	2	169	170	2	170	171	2	171	172	2	172	173	2	173	174	2	174	175	2	175	176	2	176	177	2	177	178	2	178	179	2	179	180	2	180	181	2	181	182	2	182	183	2	183	184	2	184	185	2	185	186	2	186	187	2	187	188	2	188	189	2	189	190	2	190	191	2	191	192	2	192	193	2	193	194	2	194	195	2	195	196	2	196	197	2	197	198	2	198	199	
CELL_TYPES 200
3	3	3	3	3	3	3	3	3	3	3	3	3	3	3	3	3	3	3	3	3	3	3	3	3	3	3	3	3	3	3	3	3	3	3	3	3	3	3	3	3	3	3	3	3	3	3	3	3	3	3	3	3	3	3	3	3	3	3	3	3	3	3	3	3	3	3	3	3	3	3	3	3	3	3	3	3	3	3	3	3	3	3	3	3	3	3	3	3	3	3	3	3	3	3	3	3	3	3	3	3	3	3	3	3	3	3	3	3	3	3	3	3	3	3	3	3	3	3	3	3	3	3	3	3	3	3	3	3	3	3	3	3	3	3	3	3	3	3	3	3	3	3	3	3	3	3	3	3	3	3	3	3	3	3	3	3	3	3	3	3	3	3	3	3	3	3	3	3	3	3	3	3	3	3	3	3	3	3	3	3	3	3	3	3	3	3	3	3	3	3	3	3	3	3	3	3	3	3	3	
POINT_DATA 200

SCALARS Conservative_1 float 1
LOOKUP_TABLE default
1.199829e+00	1.181603e+00	1.171179e+00	1.164739e+00	1.160166e+00	1.155701e+00	1.148816e+00	1.137898e+00	1.121717e+00	1.100362e+00	1.075074e+00	1.048463e+00	1.024896e+00	1.008362e+00	9.999885e-01	9.979304e-01	9.990398e-01	1.000483e+00	1.000510e+00	9.985215e-01	9.947380e-01	9.897165e-01	9.840421e-01	9.781866e-01	9.724277e-01	9.668761e-01	9.615233e-01	9.563226e-01	9.512095e-01	9.461526e-01	9.411358e-01	9.361154e-01	9.310573e-01	9.259780e-01	9.209287e-01	9.159579e-01	9.110842e-01	9.063120e-01	9.016527e-01	8.971227e-01	8.927220e-01	8.884610e-01	8.843222e-01	8.803223e-01	8.764760e-01	8.728350e-01	8.693888e-01	8.660735e-01	8.627420e-01	8.593847e-01	8.562040e-01	8.535535e-01	8.515469e-01	8.498924e-01	8.479171e-01	8.448699e-01	8.402514e-01	8.342098e-01	8.276247e-01	8.217524e-01	8.174793e-01	8.149979e-01	8.140359e-01	8.141605e-01	8.150619e-01	8.165411e-01	8.185489e-01	8.210015e-01	8.238128e-01	8.268702e-01	8.301927e-01	8.339433e-01	8.383689e-01	8.435375e-01	8.493728e-01	8.557284e-01	8.626690e-01	8.703727e-01	8.788968e-01	8.882805e-01	8.986356e-01	9.100210e-01	9.225882e-01	9.364548e-01	9.518108e-01	9.689334e-01	9.880506e-01	1.009521e+00	1.033831e+00	1.061295e+00	1.092443e+00	1.127744e+00	1.167045e+00	1.209885e+00	1.254555e+00	1.298041e+00	1.331744e+00	1.350900e+00	1.339533e+00	1.308267e+00	1.284252e+00	1.221084e+00	1.099435e+00	1.001952e+00	9.259580e-01	8.702554e-01	8.322807e-01	8.072831e-01	7.904567e-01	7.790618e-01	7.714033e-01	7.663122e-01	7.632291e-01	7.614166e-01	7.605007e-01	7.604779e-01	7.612197e-01	7.624893e-01	7.639653e-01	7.653206e-01	7.665723e-01	7.680442e-01	7.699947e-01	7.722736e-01	7.744818e-01	7.763915e-01	7.780947e-01	7.797383e-01	7.814253e-01	7.832260e-01	7.851955e-01	7.873176e-01	7.895194e-01	7.917006e-01	7.938178e-01	7.958453e-01	7.977735e-01	7.995640e-01	8.012258e-01	8.028742e-01	8.047208e-01	8.069208e-01	8.095231e-01	8.124916e-01	8.158325e-01	8.196111e-01	8.238607e-01	8.285485e-01	8.334994e-01	8.385020e-01	8.433488e-01	8.480989e-01	8.530531e-01	8.585648e-01	8.646971e-01	8.712196e-01	8.779092e-01	8.847638e-01	8.919504e-01	8.995165e-01	9.074116e-01	9.155483e-01	9.238772e-01	9.323857e-01	9.410442e-01	9.498394e-01	9.587215e-01	9.676727e-01	9.766184e-01	9.855613e-01	9.944184e-01	1.003109e+00	1.011571e+00	1.019719e+00	1.027508e+00	1.034917e+00	1.041992e+00	1.048912e+00	1.055939e+00	1.063460e+00	1.071774e+00	1.080975e+00	1.090683e+00	1.100036e+00	1.107782e+00	1.112587e+00	1.113361e+00	1.109742e+00	1.102492e+00	1.093778e+00	1.086677e+00	1.084160e+00	1.088065e+00	1.098280e+00	1.112853e+00	1.130017e+00	1.148479e+00	1.168636e+00	1.192714e+00	1.181127e+00	
SCALARS Conservative_2 float 1
LOOKUP_TABLE default
7.195757e-01	7.459513e-01	7.640421e-01	7.748515e-01	7.807435e-01	7.855171e-01	7.913231e-01	8.009883e-01	8.159977e-01	8.364045e-01	8.604929e-01	8.849356e-01	9.060897e-01	9.215745e-01	9.308007e-01	9.347634e-01	9.355175e-01	9.351568e-01	9.351403e-01	9.360796e-01	9.380283e-01	9.406855e-01	9.436754e-01	9.467078e-01	9.495959e-01	9.522740e-01	9.547370e-01	9.570270e-01	9.591544e-01	9.611516e-01	9.630535e-01	9.648523e-01	9.665625e-01	9.681817e-01	9.696972e-01	9.710970e-01	9.723957e-01	9.735742e-01	9.746429e-01	9.756169e-01	9.764773e-01	9.772589e-01	9.779355e-01	9.785440e-01	9.790519e-01	9.795001e-01	9.798658e-01	9.802012e-01	9.804743e-01	9.807244e-01	9.808924e-01	9.810054e-01	9.810482e-01	9.810778e-01	9.811133e-01	9.811871e-01	9.812258e-01	9.811488e-01	9.808248e-01	9.803294e-01	9.798255e-01	9.794123e-01	9.791627e-01	9.790115e-01	9.789593e-01	9.789154e-01	9.789027e-01	9.788494e-01	9.787690e-01	9.785943e-01	9.783390e-01	9.779492e-01	9.774267e-01	9.766915e-01	9.757310e-01	9.744047e-01	9.727328e-01	9.706206e-01	9.678374e-01	9.642285e-01	9.597036e-01	9.539709e-01	9.467671e-01	9.376753e-01	9.261801e-01	9.115533e-01	8.928631e-01	8.690348e-01	8.384960e-01	7.990971e-01	7.483521e-01	6.832136e-01	6.000177e-01	4.965594e-01	3.728464e-01	2.366383e-01	1.074527e-01	1.080524e-02	-2.158043e-02	5.237547e-03	7.307223e-02	2.105354e-01	4.135728e-01	5.903348e-01	7.153331e-01	7.968951e-01	8.484683e-01	8.813708e-01	9.026352e-01	9.169627e-01	9.269999e-01	9.341658e-01	9.396347e-01	9.439114e-01	9.473428e-01	9.502847e-01	9.527995e-01	9.549731e-01	9.569033e-01	9.585685e-01	9.600543e-01	9.614739e-01	9.628432e-01	9.640742e-01	9.651720e-01	9.661352e-01	9.670198e-01	9.678306e-01	9.686098e-01	9.693542e-01	9.700961e-01	9.708151e-01	9.715148e-01	9.721636e-01	9.727756e-01	9.733353e-01	9.738556e-01	9.743274e-01	9.747648e-01	9.751853e-01	9.756371e-01	9.760990e-01	9.765777e-01	9.770568e-01	9.775326e-01	9.780035e-01	9.784387e-01	9.788390e-01	9.791213e-01	9.793173e-01	9.794116e-01	9.794415e-01	9.793874e-01	9.792213e-01	9.788784e-01	9.783296e-01	9.776106e-01	9.766664e-01	9.755020e-01	9.740595e-01	9.723367e-01	9.703079e-01	9.679778e-01	9.653301e-01	9.623603e-01	9.590620e-01	9.554340e-01	9.515161e-01	9.472425e-01	9.427246e-01	9.379689e-01	9.329942e-01	9.279162e-01	9.227899e-01	9.176701e-01	9.125827e-01	9.074720e-01	9.022151e-01	8.965195e-01	8.900889e-01	8.825877e-01	8.740087e-01	8.647777e-01	8.559772e-01	8.491469e-01	8.458526e-01	8.471038e-01	8.528049e-01	8.614970e-01	8.705146e-01	8.765519e-01	8.769670e-01	8.704531e-01	8.577430e-01	8.395689e-01	8.174783e-01	7.911821e-01	7.596446e-01	7.213183e-01	6.623528e-01	
SCALARS Conservative_3 float 1
LOOKUP_TABLE default
1.010185e-01	1.066669e-01	1.128621e-01	1.197578e-01	1.301704e-01	1.447845e-01	1.632536e-01	1.836649e-01	2.028702e-01	2.169477e-01	2.227152e-01	2.185960e-01	2.055565e-01	1.873910e-01	1.688243e-01	1.535243e-01	1.431290e-01	1.373978e-01	1.349792e-01	1.342411e-01	1.338877e-01	1.331555e-01	1.317590e-01	1.297258e-01	1.272241e-01	1.244534e-01	1.215473e-01	1.185950e-01	1.156223e-01	1.126168e-01	1.095674e-01	1.064535e-01	1.032636e-01	9.999036e-02	9.661974e-02	9.316664e-02	8.962748e-02	8.602074e-02	8.235283e-02	7.863565e-02	7.488245e-02	7.110008e-02	6.730702e-02	6.350481e-02	5.970096e-02	5.588686e-02	5.206628e-02	4.825126e-02	4.446535e-02	4.071290e-02	3.695760e-02	3.314264e-02	2.924555e-02	2.525336e-02	2.119836e-02	1.712448e-02	1.307672e-02	9.041883e-03	4.912311e-03	5.516278e-04	-4.076816e-03	-8.951463e-03	-1.406098e-02	-1.939398e-02	-2.498871e-02	-3.087319e-02	-3.710374e-02	-4.369719e-02	-5.068713e-02	-5.809350e-02	-6.596321e-02	-7.436033e-02	-8.335521e-02	-9.298036e-02	-1.032785e-01	-1.143014e-01	-1.261602e-01	-1.389214e-01	-1.526611e-01	-1.675033e-01	-1.835665e-01	-2.009632e-01	-2.198488e-01	-2.403582e-01	-2.626119e-01	-2.867282e-01	-3.127780e-01	-3.407068e-01	-3.701285e-01	-4.003123e-01	-4.297832e-01	-4.554361e-01	-4.721976e-01	-4.716532e-01	-4.408843e-01	-3.644590e-01	-2.306542e-01	-3.806457e-02	1.858145e-01	3.519152e-01	4.964267e-01	6.611574e-01	7.236657e-01	6.883998e-01	6.111840e-01	5.275026e-01	4.530396e-01	3.912919e-01	3.411183e-01	3.001188e-01	2.665540e-01	2.386377e-01	2.151956e-01	1.952756e-01	1.781419e-01	1.632807e-01	1.503067e-01	1.388682e-01	1.287110e-01	1.195634e-01	1.112268e-01	1.036323e-01	9.673031e-02	9.042835e-02	8.459612e-02	7.908776e-02	7.387773e-02	6.894145e-02	6.426947e-02	5.981140e-02	5.553540e-02	5.140991e-02	4.740370e-02	4.347888e-02	3.961116e-02	3.578074e-02	3.197379e-02	2.816894e-02	2.433698e-02	2.045768e-02	1.653451e-02	1.256956e-02	8.551881e-03	4.449490e-03	2.443851e-04	-4.069673e-03	-8.489348e-03	-1.300608e-02	-1.763656e-02	-2.239051e-02	-2.728965e-02	-3.235439e-02	-3.753429e-02	-4.280055e-02	-4.810155e-02	-5.345683e-02	-5.888251e-02	-6.435871e-02	-6.982790e-02	-7.524662e-02	-8.057402e-02	-8.579684e-02	-9.085688e-02	-9.572527e-02	-1.003321e-01	-1.046531e-01	-1.086178e-01	-1.121913e-01	-1.153183e-01	-1.179549e-01	-1.200604e-01	-1.216008e-01	-1.225772e-01	-1.230154e-01	-1.229877e-01	-1.226401e-01	-1.221472e-01	-1.216866e-01	-1.213300e-01	-1.209133e-01	-1.199046e-01	-1.174080e-01	-1.123067e-01	-1.037169e-01	-9.144908e-02	-7.642495e-02	-6.080680e-02	-4.768002e-02	-4.028822e-02	-4.083401e-02	-4.941270e-02	-6.379041e-02	-8.016181e-02	-9.480002e-02	-1.049852e-01	-1.097972e-01	-1.102825e-01	-1.061985e-01	-1.003424e-01	2.575587e-03	
SCALARS Conservative_4 float 1
LOOKUP_TABLE default
3.446401e+00	3.400790e+00	3.375502e+00	3.359981e+00	3.348831e+00	3.337958e+00	3.320861e+00	3.293673e+00	3.253301e+00	3.199973e+00	3.136707e+00	3.069894e+00	3.010549e+00	2.968893e+00	2.947826e+00	2.942638e+00	2.945385e+00	2.948943e+00	2.948918e+00	2.943788e+00	2.934115e+00	2.921301e+00	2.906815e+00	2.891851e+00	2.877110e+00	2.862879e+00	2.849134e+00	2.835764e+00	2.822600e+00	2.809564e+00	2.796623e+00	2.783657e+00	2.770578e+00	2.757430e+00	2.744345e+00	2.731449e+00	2.718793e+00	2.706384e+00	2.694255e+00	2.682453e+00	2.670971e+00	2.659848e+00	2.649028e+00	2.638566e+00	2.628490e+00	2.618948e+00	2.609904e+00	2.601206e+00	2.592455e+00	2.583639e+00	2.575271e+00	2.568288e+00	2.562982e+00	2.558604e+00	2.553391e+00	2.545381e+00	2.533244e+00	2.517351e+00	2.499973e+00	2.484427e+00	2.473080e+00	2.466463e+00	2.463884e+00	2.464189e+00	2.466570e+00	2.470479e+00	2.475799e+00	2.482290e+00	2.489735e+00	2.497821e+00	2.506608e+00	2.516512e+00	2.528190e+00	2.541805e+00	2.557165e+00	2.573854e+00	2.592067e+00	2.612263e+00	2.634545e+00	2.659001e+00	2.685941e+00	2.715477e+00	2.747994e+00	2.783758e+00	2.823221e+00	2.867039e+00	2.915726e+00	2.970164e+00	3.031502e+00	3.100392e+00	3.178095e+00	3.265660e+00	3.362448e+00	3.467276e+00	3.575828e+00	3.681278e+00	3.762485e+00	3.809725e+00	3.781236e+00	3.702858e+00	3.649617e+00	3.499802e+00	3.190694e+00	2.942776e+00	2.747792e+00	2.604057e+00	2.505841e+00	2.441111e+00	2.397377e+00	2.367665e+00	2.347667e+00	2.334312e+00	2.326245e+00	2.321525e+00	2.319169e+00	2.319205e+00	2.321262e+00	2.324709e+00	2.328716e+00	2.332401e+00	2.335819e+00	2.339840e+00	2.345132e+00	2.351266e+00	2.357201e+00	2.362337e+00	2.366929e+00	2.371359e+00	2.375906e+00	2.380750e+00	2.386044e+00	2.391739e+00	2.397644e+00	2.403486e+00	2.409158e+00	2.414584e+00	2.419746e+00	2.424537e+00	2.428988e+00	2.433403e+00	2.438353e+00	2.444235e+00	2.451182e+00	2.459093e+00	2.467986e+00	2.478034e+00	2.489315e+00	2.501747e+00	2.514847e+00	2.528071e+00	2.540872e+00	2.553418e+00	2.566492e+00	2.581019e+00	2.597147e+00	2.614265e+00	2.631801e+00	2.649733e+00	2.668506e+00	2.688232e+00	2.708781e+00	2.729915e+00	2.751508e+00	2.773523e+00	2.795882e+00	2.818548e+00	2.841390e+00	2.864371e+00	2.887274e+00	2.910136e+00	2.932735e+00	2.954858e+00	2.976364e+00	2.997041e+00	3.016775e+00	3.035516e+00	3.053381e+00	3.070828e+00	3.088494e+00	3.107364e+00	3.128162e+00	3.151141e+00	3.175348e+00	3.198667e+00	3.218026e+00	3.230129e+00	3.232245e+00	3.223404e+00	3.205424e+00	3.183664e+00	3.165776e+00	3.159223e+00	3.168683e+00	3.194033e+00	3.230163e+00	3.272673e+00	3.318105e+00	3.367492e+00	3.426997e+00	3.383858e+00	
SCALARS Pressure float 1
LOOKUP_TABLE default
1.290549e+00	1.264206e+00	1.248338e+00	1.238435e+00	1.231530e+00	1.224774e+00	1.214689e+00	1.198774e+00	1.175262e+00	1.144281e+00	1.107707e+00	1.069460e+00	1.035763e+00	1.012141e+00	1.000150e+00	9.972126e-01	9.988460e-01	1.000984e+00	1.001117e+00	9.983971e-01	9.931317e-01	9.861208e-01	9.782046e-01	9.700511e-01	9.620551e-01	9.543691e-01	9.469808e-01	9.398180e-01	9.327960e-01	9.258671e-01	9.190017e-01	9.121472e-01	9.052563e-01	8.983509e-01	8.915012e-01	8.847730e-01	8.781871e-01	8.717551e-01	8.654893e-01	8.594069e-01	8.535142e-01	8.478149e-01	8.422950e-01	8.369653e-01	8.318562e-01	8.270235e-01	8.224617e-01	8.180710e-01	8.136691e-01	8.092306e-01	8.050414e-01	8.015600e-01	7.989433e-01	7.967892e-01	7.942039e-01	7.901834e-01	7.840865e-01	7.761270e-01	7.675068e-01	7.598693e-01	7.543455e-01	7.511665e-01	7.499478e-01	7.501347e-01	7.513120e-01	7.532426e-01	7.558494e-01	7.590417e-01	7.626958e-01	7.666803e-01	7.710107e-01	7.759143e-01	7.817085e-01	7.884993e-01	7.961771e-01	8.045802e-01	8.137689e-01	8.239875e-01	8.353589e-01	8.479493e-01	8.618924e-01	8.773061e-01	8.944039e-01	9.133854e-01	9.345490e-01	9.583314e-01	9.851188e-01	1.015448e+00	1.050085e+00	1.089622e+00	1.134893e+00	1.186697e+00	1.245070e+00	1.309378e+00	1.377182e+00	1.443417e+00	1.495270e+00	1.523658e+00	1.507270e+00	1.462207e+00	1.420636e+00	1.321064e+00	1.149897e+00	1.012953e+00	9.079101e-01	8.317302e-01	7.800212e-01	7.460607e-01	7.233626e-01	7.080882e-01	6.978495e-01	6.911049e-01	6.870003e-01	6.845644e-01	6.833042e-01	6.831776e-01	6.840499e-01	6.856156e-01	6.874358e-01	6.891019e-01	6.906255e-01	6.924156e-01	6.948240e-01	6.976867e-01	7.004697e-01	7.028734e-01	7.050055e-01	7.070652e-01	7.091785e-01	7.114435e-01	7.139246e-01	7.166081e-01	7.193958e-01	7.221646e-01	7.248522e-01	7.274302e-01	7.298815e-01	7.321585e-01	7.342691e-01	7.363615e-01	7.387023e-01	7.415056e-01	7.448334e-01	7.486416e-01	7.529380e-01	7.578083e-01	7.633046e-01	7.693800e-01	7.758271e-01	7.823528e-01	7.886871e-01	7.948953e-01	8.013802e-01	8.086139e-01	8.166961e-01	8.253285e-01	8.342035e-01	8.433338e-01	8.529332e-01	8.630781e-01	8.736999e-01	8.846894e-01	8.959794e-01	9.075559e-01	9.193813e-01	9.314383e-01	9.436633e-01	9.560212e-01	9.684364e-01	9.808812e-01	9.932503e-01	1.005439e+00	1.017339e+00	1.028833e+00	1.039851e+00	1.050358e+00	1.060425e+00	1.070301e+00	1.080376e+00	1.091200e+00	1.103223e+00	1.116572e+00	1.130694e+00	1.144298e+00	1.155521e+00	1.162389e+00	1.163329e+00	1.157880e+00	1.147239e+00	1.134596e+00	1.124449e+00	1.121064e+00	1.127019e+00	1.141999e+00	1.163405e+00	1.188660e+00	1.216116e+00	1.246309e+00	1.281864e+00	1.279255e+00	
SCALARS Temperature float 1
LOOKUP_TABLE default
1.075611e+00	1.069907e+00	1.065881e+00	1.063272e+00	1.061512e+00	1.059767e+00	1.057340e+00	1.053498e+00	1.047735e+00	1.039913e+00	1.030354e+00	1.020026e+00	1.010603e+00	1.003748e+00	1.000162e+00	9.992807e-01	9.998060e-01	1.000501e+00	1.000607e+00	9.998754e-01	9.983852e-01	9.963670e-01	9.940679e-01	9.916831e-01	9.893333e-01	9.870646e-01	9.848756e-01	9.827415e-01	9.806419e-01	9.785599e-01	9.764815e-01	9.743961e-01	9.722885e-01	9.701644e-01	9.680457e-01	9.659538e-01	9.638924e-01	9.618709e-01	9.598921e-01	9.579591e-01	9.560807e-01	9.542512e-01	9.524752e-01	9.507487e-01	9.490918e-01	9.475141e-01	9.460228e-01	9.445746e-01	9.431198e-01	9.416394e-01	9.402448e-01	9.390859e-01	9.382258e-01	9.375178e-01	9.366528e-01	9.352722e-01	9.331570e-01	9.303738e-01	9.273609e-01	9.246937e-01	9.227702e-01	9.216790e-01	9.212711e-01	9.213597e-01	9.217852e-01	9.224796e-01	9.234016e-01	9.245315e-01	9.258121e-01	9.272076e-01	9.287129e-01	9.304161e-01	9.324159e-01	9.347532e-01	9.373706e-01	9.402284e-01	9.433153e-01	9.467065e-01	9.504630e-01	9.545963e-01	9.591122e-01	9.640504e-01	9.694509e-01	9.753652e-01	9.818642e-01	9.890581e-01	9.970327e-01	1.005871e+00	1.015722e+00	1.026692e+00	1.038858e+00	1.052276e+00	1.066857e+00	1.082233e+00	1.097745e+00	1.111996e+00	1.122791e+00	1.127884e+00	1.125220e+00	1.117667e+00	1.106198e+00	1.081878e+00	1.045899e+00	1.010979e+00	9.805089e-01	9.557312e-01	9.372093e-01	9.241623e-01	9.151198e-01	9.088986e-01	9.046493e-01	9.018581e-01	9.001232e-01	8.990669e-01	8.984925e-01	8.983530e-01	8.986236e-01	8.991806e-01	8.998259e-01	9.004094e-01	9.009268e-01	9.015309e-01	9.023751e-01	9.034191e-01	9.044367e-01	9.053080e-01	9.060664e-01	9.067981e-01	9.075448e-01	9.083502e-01	9.092316e-01	9.101894e-01	9.111819e-01	9.121689e-01	9.131216e-01	9.140346e-01	9.148982e-01	9.156973e-01	9.164321e-01	9.171568e-01	9.179610e-01	9.189323e-01	9.200890e-01	9.214145e-01	9.229076e-01	9.245950e-01	9.264972e-01	9.285877e-01	9.308070e-01	9.330363e-01	9.351849e-01	9.372672e-01	9.394259e-01	9.418204e-01	9.444881e-01	9.473255e-01	9.502162e-01	9.531740e-01	9.562563e-01	9.594911e-01	9.628485e-01	9.662947e-01	9.698035e-01	9.733696e-01	9.769800e-01	9.806272e-01	9.842934e-01	9.879593e-01	9.916220e-01	9.952513e-01	9.988253e-01	1.002323e+00	1.005702e+00	1.008938e+00	1.012012e+00	1.014920e+00	1.017690e+00	1.020391e+00	1.023142e+00	1.026084e+00	1.029343e+00	1.032931e+00	1.036684e+00	1.040237e+00	1.043095e+00	1.044762e+00	1.044881e+00	1.043378e+00	1.040587e+00	1.037318e+00	1.034759e+00	1.034040e+00	1.035802e+00	1.039807e+00	1.045426e+00	1.051895e+00	1.058892e+00	1.066464e+00	1.074745e+00	1.083081e+00	
SCALARS Pressure_Coefficient float 1
LOOKUP_TABLE default
6.485461e-01	5.897449e-01	5.543253e-01	5.322203e-01	5.168077e-01	5.017277e-01	4.792175e-01	4.436921e-01	3.912102e-01	3.220565e-01	2.404174e-01	1.550447e-01	7.982808e-02	2.710080e-02	3.348853e-04	-6.221924e-03	-2.575957e-03	2.196535e-03	2.492838e-03	-3.577973e-03	-1.533098e-02	-3.098031e-02	-4.865036e-02	-6.685016e-02	-8.469838e-02	-1.018546e-01	-1.183464e-01	-1.343349e-01	-1.500090e-01	-1.654753e-01	-1.807998e-01	-1.960999e-01	-2.114814e-01	-2.268954e-01	-2.421849e-01	-2.572030e-01	-2.719038e-01	-2.862610e-01	-3.002472e-01	-3.138239e-01	-3.269772e-01	-3.396989e-01	-3.520201e-01	-3.639168e-01	-3.753209e-01	-3.861082e-01	-3.962910e-01	-4.060915e-01	-4.159172e-01	-4.258246e-01	-4.351755e-01	-4.429464e-01	-4.487872e-01	-4.535955e-01	-4.593663e-01	-4.683407e-01	-4.819498e-01	-4.997166e-01	-5.189581e-01	-5.360061e-01	-5.483359e-01	-5.554319e-01	-5.581522e-01	-5.577350e-01	-5.551072e-01	-5.507979e-01	-5.449791e-01	-5.378534e-01	-5.296969e-01	-5.208028e-01	-5.111369e-01	-5.001913e-01	-4.872578e-01	-4.720997e-01	-4.549619e-01	-4.362050e-01	-4.156945e-01	-3.928851e-01	-3.675025e-01	-3.393988e-01	-3.082759e-01	-2.738703e-01	-2.357056e-01	-1.933363e-01	-1.460960e-01	-9.301034e-02	-3.321703e-02	3.448318e-02	1.117961e-01	2.000499e-01	3.011012e-01	4.167353e-01	5.470319e-01	6.905752e-01	8.419239e-01	9.897700e-01	1.105514e+00	1.168880e+00	1.132299e+00	1.031711e+00	9.389205e-01	7.166610e-01	3.345924e-01	2.891260e-02	-2.055578e-01	-3.756021e-01	-4.910241e-01	-5.668288e-01	-6.174942e-01	-6.515889e-01	-6.744431e-01	-6.894980e-01	-6.986601e-01	-7.040972e-01	-7.069104e-01	-7.071929e-01	-7.052457e-01	-7.017509e-01	-6.976880e-01	-6.939690e-01	-6.905680e-01	-6.865724e-01	-6.811964e-01	-6.748064e-01	-6.685943e-01	-6.632290e-01	-6.584700e-01	-6.538723e-01	-6.491552e-01	-6.440993e-01	-6.385613e-01	-6.325712e-01	-6.263486e-01	-6.201682e-01	-6.141692e-01	-6.084147e-01	-6.029430e-01	-5.978604e-01	-5.931494e-01	-5.884789e-01	-5.832537e-01	-5.769964e-01	-5.695684e-01	-5.610680e-01	-5.514776e-01	-5.406064e-01	-5.283379e-01	-5.147768e-01	-5.003860e-01	-4.858195e-01	-4.716807e-01	-4.578231e-01	-4.433477e-01	-4.272012e-01	-4.091604e-01	-3.898917e-01	-3.700814e-01	-3.497013e-01	-3.282741e-01	-3.056292e-01	-2.819198e-01	-2.573897e-01	-2.321889e-01	-2.063484e-01	-1.799524e-01	-1.530394e-01	-1.257515e-01	-9.816693e-02	-7.045453e-02	-4.267598e-02	-1.506639e-02	1.214041e-02	3.870315e-02	6.436041e-02	8.895307e-02	1.124065e-01	1.348770e-01	1.569217e-01	1.794100e-01	2.035711e-01	2.304082e-01	2.602064e-01	2.917274e-01	3.220934e-01	3.471461e-01	3.624745e-01	3.645746e-01	3.524118e-01	3.286584e-01	3.004369e-01	2.777890e-01	2.702331e-01	2.835253e-01	3.169629e-01	3.647443e-01	4.211150e-01	4.824013e-01	5.497968e-01	6.291608e-01	6.233379e-01	
SCALARS Mach float 1
LOOKUP_TABLE default
4.935188e-01	5.210712e-01	5.398373e-01	5.517339e-01	5.596489e-01	5.674081e-01	5.780732e-01	5.946601e-01	6.189268e-01	6.508142e-01	6.883855e-01	7.275290e-01	7.621399e-01	7.867473e-01	7.994497e-01	8.025526e-01	8.007030e-01	7.982514e-01	7.978795e-01	8.004586e-01	8.057004e-01	8.127704e-01	8.207850e-01	8.290549e-01	8.371618e-01	8.449517e-01	8.524335e-01	8.596968e-01	8.668138e-01	8.738437e-01	8.808354e-01	8.878243e-01	8.948627e-01	9.019310e-01	9.089570e-01	9.158714e-01	9.226633e-01	9.293035e-01	9.357845e-01	9.420980e-01	9.482174e-01	9.541624e-01	9.599199e-01	9.655048e-01	9.708530e-01	9.759357e-01	9.807312e-01	9.853803e-01	9.900428e-01	9.947796e-01	9.992350e-01	1.002932e+00	1.005673e+00	1.007928e+00	1.010680e+00	1.015068e+00	1.021779e+00	1.030588e+00	1.040100e+00	1.048499e+00	1.054545e+00	1.057970e+00	1.059250e+00	1.058972e+00	1.057637e+00	1.055457e+00	1.052561e+00	1.049009e+00	1.044980e+00	1.040583e+00	1.035835e+00	1.030455e+00	1.024127e+00	1.016716e+00	1.008397e+00	9.992873e-01	9.894167e-01	9.785339e-01	9.664278e-01	9.530419e-01	9.383339e-01	9.221436e-01	9.042999e-01	8.845797e-01	8.626740e-01	8.381089e-01	8.104421e-01	7.791728e-01	7.434589e-01	7.024262e-01	6.550323e-01	5.998685e-01	5.353361e-01	4.598654e-01	3.712564e-01	2.683052e-01	1.523972e-01	2.330934e-02	1.112635e-01	2.150650e-01	3.139636e-01	4.617200e-01	6.265145e-01	7.607757e-01	8.672638e-01	9.493542e-01	1.008910e+00	1.050170e+00	1.078499e+00	1.097883e+00	1.111078e+00	1.119728e+00	1.125097e+00	1.128364e+00	1.130140e+00	1.130571e+00	1.129734e+00	1.128012e+00	1.126017e+00	1.124212e+00	1.122611e+00	1.120741e+00	1.118126e+00	1.114892e+00	1.111737e+00	1.109035e+00	1.106681e+00	1.104410e+00	1.102090e+00	1.099588e+00	1.096847e+00	1.093868e+00	1.090778e+00	1.087704e+00	1.084734e+00	1.081886e+00	1.079191e+00	1.076696e+00	1.074400e+00	1.072135e+00	1.069619e+00	1.066579e+00	1.062956e+00	1.058800e+00	1.054113e+00	1.048809e+00	1.042822e+00	1.036230e+00	1.029219e+00	1.022161e+00	1.015345e+00	1.008726e+00	1.001848e+00	9.942009e-01	9.856579e-01	9.765429e-01	9.672248e-01	9.576564e-01	9.476459e-01	9.370955e-01	9.260946e-01	9.147463e-01	9.031294e-01	8.912555e-01	8.791609e-01	8.668638e-01	8.544179e-01	8.418838e-01	8.292660e-01	8.166650e-01	8.041544e-01	7.918094e-01	7.797769e-01	7.681588e-01	7.570247e-01	7.464032e-01	7.362005e-01	7.261699e-01	7.158633e-01	7.047372e-01	6.922803e-01	6.783971e-01	6.636672e-01	6.495164e-01	6.379794e-01	6.311804e-01	6.306948e-01	6.368257e-01	6.481111e-01	6.611563e-01	6.712470e-01	6.740672e-01	6.671480e-01	6.512387e-01	6.284591e-01	6.014829e-01	5.712707e-01	5.371516e-01	4.977781e-01	4.554091e-01	