# vtk DataFile Version 3.0
vtk output
ASCII
DATASET UNSTRUCTURED_GRID
POINTS 5233 float
9.997500e-01	-3.633236e-05	0.0	9.990000e-01	-1.454683e-04	0.0	9.977600e-01	-3.274632e-04	0.0	9.960200e-01	-5.896883e-04	0.0	9.937800e-01	-9.462313e-04	0.0	9.910500e-01	-1.419708e-03	0.0	9.878400e-01	-2.040082e-03	0.0	9.841300e-01	-2.843000e-03	0.0	9.799500e-01	-3.840385e-03	0.0	9.752800e-01	-5.029377e-03	0.0	9.701500e-01	-6.363792e-03	0.0	9.645400e-01	-7.786123e-03	0.0	9.584700e-01	-9.222233e-03	0.0	9.519400e-01	-1.061770e-02	0.0	9.449600e-01	-1.194507e-02	0.0	9.375400e-01	-1.320871e-02	0.0	9.296900e-01	-1.443553e-02	0.0	9.214000e-01	-1.566329e-02	0.0	9.127000e-01	-1.691884e-02	0.0	9.035800e-01	-1.822296e-02	0.0	8.940600e-01	-1.957928e-02	0.0	8.841500e-01	-2.098329e-02	0.0	8.738500e-01	-2.242693e-02	0.0	8.631800e-01	-2.389824e-02	0.0	8.521600e-01	-2.538667e-02	0.0	8.407700e-01	-2.688908e-02	0.0	8.290500e-01	-2.839625e-02	0.0	8.170100e-01	-2.990435e-02	0.0	8.046400e-01	-3.141253e-02	0.0	7.919700e-01	-3.291515e-02	0.0	7.790100e-01	-3.440895e-02	0.0	7.657800e-01	-3.588936e-02	0.0	7.522800e-01	-3.735384e-02	0.0	7.385200e-01	-3.879858e-02	0.0	7.245300e-01	-4.021774e-02	0.0	7.103200e-01	-4.160772e-02	0.0	6.958900e-01	-4.296599e-02	0.0	6.812700e-01	-4.428737e-02	0.0	6.664700e-01	-4.556884e-02	0.0	6.515000e-01	-4.680764e-02	0.0	6.363800e-01	-4.800042e-02	0.0	6.211300e-01	-4.914423e-02	0.0	6.057600e-01	-5.023717e-02	0.0	5.902800e-01	-5.127754e-02	0.0	5.747100e-01	-5.226321e-02	0.0	5.590600e-01	-5.319293e-02	0.0	5.433600e-01	-5.406451e-02	0.0	5.276100e-01	-5.487765e-02	0.0	5.118400e-01	-5.563059e-02	0.0	4.960500e-01	-5.632315e-02	0.0	4.802700e-01	-5.695389e-02	0.0	4.645100e-01	-5.752226e-02	0.0	4.487800e-01	-5.802771e-02	0.0	4.331100e-01	-5.846902e-02	0.0	4.175000e-01	-5.884587e-02	0.0	4.019700e-01	-5.915726e-02	0.0	3.865400e-01	-5.940221e-02	0.0	3.712300e-01	-5.957976e-02	0.0	3.560400e-01	-5.968905e-02	0.0	3.409900e-01	-5.972888e-02	0.0	3.261100e-01	-5.969811e-02	0.0	3.114000e-01	-5.959555e-02	0.0	2.968700e-01	-5.941986e-02	0.0	2.825500e-01	-5.916994e-02	0.0	2.684500e-01	-5.884454e-02	0.0	2.545700e-01	-5.844202e-02	0.0	2.409400e-01	-5.796158e-02	0.0	2.275700e-01	-5.740201e-02	0.0	2.144700e-01	-5.676211e-02	0.0	2.016600e-01	-5.604130e-02	0.0	1.891400e-01	-5.523801e-02	0.0	1.769300e-01	-5.435194e-02	0.0	1.650400e-01	-5.338240e-02	0.0	1.534900e-01	-5.232975e-02	0.0	1.422900e-01	-5.119386e-02	0.0	1.314400e-01	-4.997363e-02	0.0	1.209500e-01	-4.866896e-02	0.0	1.108500e-01	-4.728283e-02	0.0	1.011300e-01	-4.581321e-02	0.0	9.181000e-02	-4.426239e-02	0.0	8.290000e-02	-4.263165e-02	0.0	7.440000e-02	-4.092053e-02	0.0	6.633000e-02	-3.913271e-02	0.0	5.869000e-02	-3.726805e-02	0.0	5.149000e-02	-3.532873e-02	0.0	4.474000e-02	-3.331738e-02	0.0	3.844000e-02	-3.123383e-02	0.0	3.260000e-02	-2.908103e-02	0.0	2.723000e-02	-2.686273e-02	0.0	2.232000e-02	-2.457400e-02	0.0	1.790000e-02	-2.222879e-02	0.0	1.395000e-02	-1.981634e-02	0.0	1.049000e-02	-1.734777e-02	0.0	7.520000e-03	-1.482384e-02	0.0	5.040000e-03	-1.224448e-02	0.0	3.050000e-03	-9.607783e-03	0.0	1.560000e-03	-6.928203e-03	0.0	5.600000e-04	-4.183623e-03	0.0	6.000000e-05	-1.378924e-03	0.0	0.000000e+00	0.000000e+00	0.0	6.000000e-05	1.261441e-03	0.0	5.600000e-04	3.615992e-03	0.0	1.560000e-03	5.773146e-03	0.0	3.050000e-03	7.785453e-03	0.0	5.040000e-03	9.698075e-03	0.0	7.520000e-03	1.151876e-02	0.0	1.049000e-02	1.326236e-02	0.0	1.395000e-02	1.493919e-02	0.0	1.790000e-02	1.655694e-02	0.0	2.232000e-02	1.811501e-02	0.0	2.723000e-02	1.962629e-02	0.0	3.260000e-02	2.108645e-02	0.0	3.844000e-02	2.250297e-02	0.0	4.474000e-02	2.387702e-02	0.0	5.149000e-02	2.520981e-02	0.0	5.869000e-02	2.650423e-02	0.0	6.633000e-02	2.776090e-02	0.0	7.440000e-02	2.898042e-02	0.0	8.290000e-02	3.016463e-02	0.0	9.181000e-02	3.131246e-02	0.0	1.011300e-01	3.242541e-02	0.0	1.108500e-01	3.350352e-02	0.0	1.209500e-01	3.454574e-02	0.0	1.314400e-01	3.555404e-02	0.0	1.422900e-01	3.652628e-02	0.0	1.534900e-01	3.746237e-02	0.0	1.650400e-01	3.836286e-02	0.0	1.769300e-01	3.922726e-02	0.0	1.891400e-01	4.005434e-02	0.0	2.016600e-01	4.084356e-02	0.0	2.144700e-01	4.159364e-02	0.0	2.275700e-01	4.230443e-02	0.0	2.409400e-01	4.297447e-02	0.0	2.545700e-01	4.360274e-02	0.0	2.684500e-01	4.418805e-02	0.0	2.825500e-01	4.472833e-02	0.0	2.968700e-01	4.522257e-02	0.0	3.114000e-01	4.566917e-02	0.0	3.261100e-01	4.606579e-02	0.0	3.409900e-01	4.641067e-02	0.0	3.560400e-01	4.670199e-02	0.0	3.712300e-01	4.693723e-02	0.0	3.865400e-01	4.711405e-02	0.0	4.019700e-01	4.723026e-02	0.0	4.175000e-01	4.728332e-02	0.0	4.331100e-01	4.727074e-02	0.0	4.487800e-01	4.719010e-02	0.0	4.645100e-01	4.703887e-02	0.0	4.802700e-01	4.681481e-02	0.0	4.960500e-01	4.651564e-02	0.0	5.118400e-01	4.613917e-02	0.0	5.276100e-01	4.568391e-02	0.0	5.433600e-01	4.514789e-02	0.0	5.590600e-01	4.453041e-02	0.0	5.747100e-01	4.383005e-02	0.0	5.902800e-01	4.304713e-02	0.0	6.057600e-01	4.218165e-02	0.0	6.211300e-01	4.123473e-02	0.0	6.363800e-01	4.020753e-02	0.0	6.515000e-01	3.910183e-02	0.0	6.664700e-01	3.792081e-02	0.0	6.812700e-01	3.666858e-02	0.0	6.958900e-01	3.534923e-02	0.0	7.103200e-01	3.396754e-02	0.0	7.245300e-01	3.253108e-02	0.0	7.385200e-01	3.104527e-02	0.0	7.522800e-01	2.951714e-02	0.0	7.657800e-01	2.795668e-02	0.0	7.790100e-01	2.637242e-02	0.0	7.919700e-01	2.477215e-02	0.0	8.046400e-01	2.316652e-02	0.0	8.170100e-01	2.156531e-02	0.0	8.290500e-01	1.998099e-02	0.0	8.407700e-01	1.842047e-02	0.0	8.521600e-01	1.689228e-02	0.0	8.631800e-01	1.540738e-02	0.0	8.738500e-01	1.396637e-02	0.0	8.841500e-01	1.257264e-02	0.0	8.940600e-01	1.122756e-02	0.0	9.035800e-01	9.929633e-03	0.0	9.127000e-01	8.681662e-03	0.0	9.214000e-01	7.494562e-03	0.0	9.296900e-01	6.384627e-03	0.0	9.375400e-01	5.382376e-03	0.0	9.449600e-01	4.516386e-03	0.0	9.519400e-01	3.811142e-03	0.0	9.584700e-01	3.272703e-03	0.0	9.645400e-01	2.881371e-03	0.0	9.701500e-01	2.593232e-03	0.0	9.752800e-01	2.353706e-03	0.0	9.799500e-01	2.111550e-03	0.0	9.841300e-01	1.837704e-03	0.0	9.878400e-01	1.525341e-03	0.0	9.910500e-01	1.192593e-03	0.0	9.937800e-01	8.638867e-04	0.0	9.960200e-01	5.668656e-04	0.0	9.977600e-01	3.232326e-04	0.0	9.990000e-01	1.450824e-04	0.0	9.997500e-01	3.632625e-05	0.0	1.000000e+00	0.000000e+00	0.0	1.984229e+01	2.506660e+00	0.0	1.937166e+01	4.973800e+00	0.0	1.859553e+01	7.362490e+00	0.0	1.752613e+01	9.635070e+00	0.0	1.618034e+01	1.175571e+01	0.0	1.457937e+01	1.369094e+01	0.0	1.274848e+01	1.541027e+01	0.0	1.071654e+01	1.688656e+01	0.0	8.515590e+00	1.809654e+01	0.0	6.180340e+00	1.902113e+01	0.0	3.747630e+00	1.964575e+01	0.0	1.255810e+00	1.996053e+01	0.0	-1.255810e+00	1.996053e+01	0.0	-3.747630e+00	1.964574e+01	0.0	-6.180340e+00	1.902113e+01	0.0	-8.515590e+00	1.809654e+01	0.0	-1.071654e+01	1.688656e+01	0.0	-1.274848e+01	1.541026e+01	0.0	-1.457937e+01	1.369094e+01	0.0	-1.618034e+01	1.175570e+01	0.0	-1.752613e+01	9.635070e+00	0.0	-1.859553e+01	7.362490e+00	0.0	-1.937166e+01	4.973800e+00	0.0	-1.984229e+01	2.506660e+00	0.0	-2.000000e+01	0.000000e+00	0.0	-1.984229e+01	-2.506670e+00	0.0	-1.937166e+01	-4.973800e+00	0.0	-1.859553e+01	-7.362490e+00	0.0	-1.752613e+01	-9.635080e+00	0.0	-1.618034e+01	-1.175571e+01	0.0	-1.457937e+01	-1.369094e+01	0.0	-1.274848e+01	-1.541027e+01	0.0	-1.071653e+01	-1.688656e+01	0.0	-8.515580e+00	-1.809654e+01	0.0	-6.180340e+00	-1.902113e+01	0.0	-3.747620e+00	-1.964575e+01	0.0	-1.255810e+00	-1.996053e+01	0.0	1.255810e+00	-1.996053e+01	0.0	3.747630e+00	-1.964574e+01	0.0	6.180340e+00	-1.902113e+01	0.0	8.515590e+00	-1.809654e+01	0.0	1.071654e+01	-1.688656e+01	0.0	1.274848e+01	-1.541026e+01	0.0	1.457937e+01	-1.369094e+01	0.0	1.618034e+01	-1.175570e+01	0.0	1.752614e+01	-9.635070e+00	0.0	1.859553e+01	-7.362490e+00	0.0	1.937166e+01	-4.973790e+00	0.0	1.984229e+01	-2.506660e+00	0.0	2.000000e+01	0.000000e+00	0.0	6.074650e-02	-4.513402e-02	0.0	6.601891e-01	-5.985082e-02	0.0	4.255452e-01	6.150703e-02	0.0	6.897573e-01	4.922604e-02	0.0	3.791237e-01	-7.354602e-02	0.0	9.994673e-01	-7.274776e-04	0.0	9.985542e-01	-1.331077e-03	0.0	7.738098e-01	-4.722102e-02	0.0	6.898598e-01	-5.697076e-02	0.0	-1.119742e-03	5.504920e-03	0.0	7.467776e-01	-5.062627e-02	0.0	5.833188e-01	5.752802e-02	0.0	9.928149e-01	-3.733174e-03	0.0	9.899344e-01	-4.738523e-03	0.0	5.988953e-01	5.661502e-02	0.0	7.187633e-01	-5.388288e-02	0.0	-1.463002e-03	6.003414e-04	0.0	9.865703e-01	-5.896625e-03	0.0	9.827298e-01	-7.210403e-03	0.0	-1.291552e-03	-6.438752e-03	0.0	6.451064e-01	-6.120563e-02	0.0	8.244767e-01	-4.013029e-02	0.0	7.997378e-01	-4.371973e-02	0.0	3.484786e-01	6.034344e-02	0.0	8.478960e-01	-3.650891e-02	0.0	2.473706e-01	5.585538e-02	0.0	8.699354e-01	-3.287968e-02	0.0	1.046882e-02	1.730928e-02	0.0	8.904886e-01	-2.929841e-02	0.0	7.702358e-02	-4.951725e-02	0.0	9.094834e-01	-2.581923e-02	0.0	-1.759076e-03	-3.190658e-03	0.0	9.424750e-01	-1.907867e-02	0.0	9.268398e-01	-2.244385e-02	0.0	1.795858e-02	-2.734445e-02	0.0	4.257433e-01	-7.296339e-02	0.0	8.590973e-01	-3.468984e-02	0.0	9.563285e-01	-1.559793e-02	0.0	9.784048e-01	-8.701147e-03	0.0	9.683242e-01	-1.203511e-02	0.0	1.582595e-01	-6.344995e-02	0.0	9.001877e-01	-2.754413e-02	0.0	7.604266e-01	-4.893914e-02	0.0	9.971355e-01	-2.086502e-03	0.0	5.990524e-01	-6.489472e-02	0.0	4.414461e-01	-7.260768e-02	0.0	5.363226e-01	-6.885808e-02	0.0	4.730182e-01	-7.166194e-02	0.0	5.046794e-01	-7.040989e-02	0.0	4.888368e-01	-7.107298e-02	0.0	1.249471e-01	-5.891550e-02	0.0	2.785340e-02	-3.280473e-02	0.0	3.945699e-01	-7.343433e-02	0.0	4.622528e-02	-4.043675e-02	0.0	4.101111e-01	-7.324042e-02	0.0	3.187133e-01	-7.315946e-02	0.0	3.486121e-01	-7.352542e-02	0.0	3.351600e-02	-3.541130e-02	0.0	2.895080e-01	-7.245069e-02	0.0	9.348773e-01	-2.076774e-02	0.0	1.468012e-01	-6.202896e-02	0.0	1.946391e-01	-6.713583e-02	0.0	8.579680e-02	-5.157949e-02	0.0	1.045863e-01	-5.543898e-02	0.0	5.678251e-01	-6.702352e-02	0.0	1.700617e-01	-6.477713e-02	0.0	6.145296e-01	-6.372694e-02	0.0	8.804062e-01	-3.108044e-02	0.0	2.267819e-02	-3.011408e-02	0.0	9.952211e-01	-2.868561e-03	0.0	6.748332e-03	-1.871230e-02	0.0	1.849629e-02	2.147377e-02	0.0	9.183700e-01	-2.412191e-02	0.0	9.49632
[...]
POINT_DATA 5233

SCALARS Conservative_1 float 1
LOOKUP_TABLE default
1.199684e+00	1.181374e+00	1.170847e+00	1.164291e+00	1.159603e+00	1.155044e+00	1.148112e+00	1.137211e+00	1.121128e+00	1.099963e+00	1.074953e+00	1.048697e+00	1.025501e+00	1.009247e+00	1.001010e+00	9.989658e-01	1.000026e+00	1.001410e+00	1.001402e+00	9.994143e-01	9.956596e-01	9.906845e-01	9.850631e-01	9.792591e-01	9.735455e-01	9.680330e-01	9.627146e-01	9.575460e-01	9.524645e-01	9.474395e-01	9.424552e-01	9.374690e-01	9.324469e-01	9.274047e-01	9.223909e-01	9.174516e-01	9.126049e-01	9.078535e-01	9.032084e-01	8.986843e-01	8.942803e-01	8.900055e-01	8.858409e-01	8.818009e-01	8.779006e-01	8.741924e-01	8.706678e-01	8.672616e-01	8.638244e-01	8.603494e-01	8.570568e-01	8.543218e-01	8.522554e-01	8.505205e-01	8.483606e-01	8.449535e-01	8.398185e-01	8.332560e-01	8.263723e-01	8.205219e-01	8.165044e-01	8.143661e-01	8.137294e-01	8.141255e-01	8.152512e-01	8.169278e-01	8.191230e-01	8.217645e-01	8.247707e-01	8.280283e-01	8.315477e-01	8.354801e-01	8.400662e-01	8.453804e-01	8.513551e-01	8.578460e-01	8.649107e-01	8.727205e-01	8.813319e-01	8.907831e-01	9.011847e-01	9.125940e-01	9.251586e-01	9.389939e-01	9.542855e-01	9.713046e-01	9.902757e-01	1.011553e+00	1.035617e+00	1.062783e+00	1.093586e+00	1.128508e+00	1.167434e+00	1.209946e+00	1.254377e+00	1.297800e+00	1.331602e+00	1.350907e+00	1.339526e+00	1.308166e+00	1.284033e+00	1.220568e+00	1.098608e+00	1.001118e+00	9.253188e-01	8.698540e-01	8.320315e-01	8.070637e-01	7.901713e-01	7.786396e-01	7.707909e-01	7.654688e-01	7.621258e-01	7.600320e-01	7.588181e-01	7.584882e-01	7.589248e-01	7.599025e-01	7.611073e-01	7.622061e-01	7.631988e-01	7.644104e-01	7.661221e-01	7.682112e-01	7.702861e-01	7.720994e-01	7.737274e-01	7.753123e-01	7.769657e-01	7.787779e-01	7.808265e-01	7.831174e-01	7.855944e-01	7.881674e-01	7.907800e-01	7.933878e-01	7.960446e-01	7.990434e-01	8.031207e-01	8.092029e-01	8.175020e-01	8.264005e-01	8.331163e-01	8.358805e-01	8.348493e-01	8.314781e-01	8.275188e-01	8.245192e-01	8.237360e-01	8.262186e-01	8.321734e-01	8.405989e-01	8.495363e-01	8.574296e-01	8.640111e-01	8.698989e-01	8.758238e-01	8.822397e-01	8.893127e-01	8.968972e-01	9.048201e-01	9.129860e-01	9.213733e-01	9.299727e-01	9.387356e-01	9.476387e-01	9.566295e-01	9.656911e-01	9.747478e-01	9.837991e-01	9.927606e-01	1.001550e+00	1.010103e+00	1.018338e+00	1.026208e+00	1.033693e+00	1.040841e+00	1.047831e+00	1.054917e+00	1.062484e+00	1.070823e+00	1.080030e+00	1.089726e+00	1.099066e+00	1.106820e+00	1.111676e+00	1.112566e+00	1.109145e+00	1.102176e+00	1.093791e+00	1.087007e+00	1.084719e+00	1.088709e+00	1.098863e+00	1.113285e+00	1.130278e+00	1.148590e+00	1.168635e+00	1.192636e+00	1.181015e+00	9.999750e-01	9.999670e-01	9.999490e-01	9.999236e-01	9.998979e-01	9.998678e-01	9.998262e-01	9.997686e-01	9.997035e-01	9.996497e-01	9.996142e-01	9.996263e-01	9.996822e-01	9.997965e-01	9.998947e-01	9.999744e-01	1.000019e+00	1.000045e+00	1.000061e+00	1.000068e+00	1.000072e+00	1.000073e+00	1.000074e+00	1.000075e+00	1.000077e+00	1.000080e+00	1.000085e+00	1.000092e+00	1.000101e+00	1.000115e+00	1.000130e+00	1.000153e+00	1.000173e+00	1.000201e+00	1.000221e+00	1.000235e+00	1.000241e+00	1.000231e+00	1.000222e+00	1.000208e+00	1.000200e+00	1.000182e+00	1.000162e+00	1.000139e+00	1.000113e+00	1.000084e+00	1.000064e+00	1.000049e+00	1.000014e+00	9.999791e-01	9.466988e-01	9.035888e-01	8.374068e-01	9.208380e-01	8.399746e-01	1.182878e+00	1.173309e+00	9.421046e-01	9.127650e-01	1.216527e+00	9.322020e-01	8.714157e-01	1.151199e+00	1.144420e+00	8.771088e-01	9.223296e-01	1.307499e+00	1.135440e+00	1.123122e+00	1.337604e+00	8.991747e-01	9.620750e-01	9.519792e-01	8.161518e-01	9.725744e-01	7.905176e-01	9.835918e-01	8.780100e-01	9.941062e-01	9.195561e-01	1.001482e+00	1.344607e+00	1.007003e+00	1.003899e+00	1.101403e+00	8.528959e-01	9.780421e-01	1.025977e+00	1.106985e+00	1.065618e+00	8.502277e-01	9.983793e-01	9.371721e-01	1.163798e+00	8.866075e-01	8.545517e-01	8.718594e-01	8.585045e-01	8.649901e-01	8.615469e-01	8.704774e-01	1.044600e+00	8.460348e-01	9.797344e-01	8.503077e-01	8.190043e-01	8.265630e-01	1.020555e+00	8.181361e-01	1.004537e+00	8.563790e-01	8.361208e-01	9.078086e-01	8.873222e-01	8.788697e-01	8.448219e-01	8.906906e-01	9.890487e-01	1.071454e+00	1.157209e+00	1.209347e+00	8.230915e-01	1.003227e+00	1.013590e+00	1.087409e+00	1.133187e+00	9.672582e-01	8.230505e-01	8.752902e-01	9.272324e-01	9.470246e-01	8.784790e-01	8.289204e-01	8.826586e-01	9.081267e-01	9.623867e-01	1.248700e+00	1.134547e+00	8.330051e-01	8.401932e-01	1.211044e+00	8.257772e-01	8.970959e-01	8.179434e-01	8.208383e-01	8.562119e-01	9.175005e-01	1.279466e+00	1.318360e+00	8.491499e-01	1.324500e+00	7.944501e-01	7.728719e-01	7.800074e-01	7.719313e-01	8.398894e-01	1.140346e+00	8.399277e-01	8.274407e-01	1.097086e+00	1.105279e+00	1.051263e+00	8.281331e-01	8.333983e-01	8.338628e-01	1.082741e+00	1.066112e+00	7.704489e-01	1.092584e+00	1.105878e+00	1.098184e+00	7.708476e-01	7.711683e-01	7.981766e-01	7.930394e-01	7.792694e-01	8.041641e-01	8.296028e-01	8.390456e-01	7.765698e-01	7.732998e-01	8.897931e-01	7.820856e-01	7.858237e-01	9.047761e-01	8.653151e-01	9.549345e-01	9.376359e-01	9.898652e-01	9.724401e-01	1.022640e+00	1.006778e+00	1.058474e+00	1.037290e+00	1.103401e+00	1.074269e+00	1.101958e+00	1.030109e+00	1.044284e+00	9.984166e-01	1.014860e+00	9.636829e-01	9.811968e-01	9.291516e-01	9.462385e-01	8.970804e-01	9.127063e-01	8.579824e-01	8.831141e-01	7.838147e-01	7.880873e-01	7.779736e-01	7.806052e-01	7.757520e-01	7.749826e-01	8.461165e-01	7.860041e-01	8.323949e-01	9.807965e-01	1.044055e+00	9.569888e-01	8.217781e-01	8.684695e-01	1.052688e+00	8.063979e-01	9.220868e-01	7.706599e-01	7.704729e-01	7.956007e-01	7.711541e-01	1.090617e+00	1.092811e+00	8.008764e-01	1.099818e+00	1.110791e+00	8.089619e-01	8.252881e-01	1.090991e+00	1.206367e+00	1.157983e+00	1.174408e+00	8.948720e-01	9.990356e-01	1.124669e+00	8.323971e-01	1.286551e+00	1.170810e+00	9.324691e-01	8.631542e-01	8.191658e-01	7.827967e-01	1.199083e+00	1.259185e+00	8.239749e-01	9.179484e-01	1.004150e+00	1.199838e+00	8.729455e-01	9.133216e-01	9.469279e-01	1.132889e+00	8.249951e-01	9.773317e-01	9.668870e-01	9.148891e-01	1.317130e+00	8.374427e-01	1.133518e+00	1.042010e+00	8.622025e-01	9.226522e-01	9.043726e-01	8.587701e-01	9.268345e-01	8.467939e-01	9.974180e-01	9.517890e-01	9.559697e-01	8.543392e-01	9.129444e-01	1.019264e+00	7.796125e-01	9.208182e-01	7.840033e-01	1.040785e+00	1.100901e+00	8.163512e-01	8.409440e-01	1.098962e+00	1.047657e+00	1.108637e+00	1.100353e+00	1.094704e+00	7.934640e-01	8.103524e-01	7.912881e-01	7.797573e-01	9.088051e-01	8.414678e-01	9.134885e-01	7.819447e-01	7.925612e-01	1.097847e+00	1.119249e+00	1.054583e+00	8.559418e-01	1.215264e+00	1.145874e+00	1.131752e+00	1.008470e+00	1.132902e+00	1.234117e+00	1.330917e+00	1.314920e+00	1.103225e+00	1.217546e+00	9.541689e-01	1.162766e+00	1.148165e+00	8.422545e-01	8.767776e-01	1.122593e+00	9.878998e-01	8.788422e-01	1.141206e+00	1.332268e+00	8.571582e-01	8.430874e-01	9.720593e-01	8.007732e-01	9.826465e-01	9.929047e-01	9.398803e-01	1.001200e+00	1.006457e+00	1.018176e+00	1.050103e+00	1.028059e+00	1.058967e+00	1.109655e+00	8.767973e-01	9.372273e-01	9.420948e-01	1.155036e+00	8.607458e-01	8.634590e-01	8.666798e-01	1.075562e+00	8.518060e-01	8.551330e-01	8.285612e-01	1.006120e+00	1.008735e+00	1.012143e+00	8.691964e-01	9.039629e-01	8.802598e-01	8.917813e-01	1.076972e+00	1.094275e+00	9.274247e-01	9.323225e-01	8.940607e-01	8.850373e-01	8.839462e-01	8.877854e-01	9.871904e-01	9.699259e-01	1.165779e+00	8.339489e-01	8.404496e-01	8.505616e-01	8.458005e-01	8.337921e-01	8.305425e-01	8.231086e-01	8.233247e-01	8.277994e-01	1.298152e+00	1.267475e+00	7.989912e-01	1.096141e+00	8.493011e-01	8.349702e-01	8.323569e-01	8.328739e-01	1.095687e+00	1.099775e+00	1.076451e+00	8.356037e-01	8.392093e-01	8.402841e-01	1.069016e+00	1.095491e+00	7.847812e-01	7.879069e-01	7.958015e-01	7.982478e-01	7.829530e-01	7.810229e-01	7.801382e-01	9.873418e-01	9.537178e-01	9.453350e-01	9.790152e-01	1.011627e+00	1.061670e+00	1.033808e+00	1.026645e+00	1.003776e+00	9.956541e-01	9.705769e-01	9.621361e-01	9.370413e-01	9.288506e-01	9.052786e-01	8.978800e-01	8.662116e-01	8.582180e-01	8.909635e-01	8.846448e-01	7.893279e-01	7.876601e-01	7.862668e-01	7.850976e-01	8.803290e-01	8.076769e-01	8.192396e-01	9.567371e-01	9.617809e-01	8.700601e-01	8.733942e-01	1.069076e+00	8.344126e-01	7.804756e-01	7.814755e-01	8.063547e-01	8.033897e-01	8.335386e-01	8.246003e-01	1.090233e+00	1.083689e+00	8.958634e-01	9.000725e-01	1.026976e+00	1.297312e+00	8.255712e-01	1.311438e+00	8.533992e-01	8.292460e-01	9.522496e-01	8.788942e-01	1.008219e+00	1.107501e+00	1.101418e+00	1.096174e+00	1.080584e+00	1.116130e+00	1.160557e+00	1.181360e+00	1.152862e+00	1.200818e+00	1.104774e+00	1.283008e+00	9.223856e-01	1.011611e+00	1.131183e+00	8.748827e-01	1.172690e+00	1.220933e+00	9.236418e-01	1.275862e+00	9.282818e-01	1.131995e+00	9.872886e-01	1.190938e+00	8.316572e-01	9.822029e-01	9.190593e-01	1.139095e+00	1.161161e+00	1.095977e+00	8.503671e-01	1.092618e+00	9.140162e-01	1.126068e+00	8.430936e-01	8.035614e-01	8.172170e-01	7.892964e-01	7.978403e-01	1.171507e+00	1.293172e+00	1.184395e+00	9.083374e-01	1.240364e+00	1.055332e+00	9.344143e-01	1.311946e+00	8.682849e-01	8.635249e-01	1.079117e+00	9.813895e-01	1.016491e+00	9.856063e-01	9.216158e-01	1.097620e+00	1.095099e+00	1.050795e+00	1.044116e+00	8.123471e-01	8.061385e-01	7.967573e-01	7.886283e-01	9.101396e-01	9.145534e-01	8.469951e-01	9.416429e-01	7.885903e-01	1.095813e+00	1.136299e+00	1.028373e+00	1.133647e+00	1.249538e+00	1.314818e+00	1.054998e+00	1.186061e+00	1.178287e+00	1.070357e+00	1.122359e+00	8.811841e-01	8.618385e-01	8.466951e-01	9.719246e-01	9.770557e-01	9.922337e-01	9.968838e-01	9.618024e-01	9.475492e-01	1.001099e+00	1.004856e+00	1.030183e+00	1.041562e+00	1.111888e+00	9.426864e-01	9.474809e-01	1.145656e+00	8.658562e-01	8.689079e-01	8.575823e-01	8.601494e-01	1.033117e+00	1.015765e+00	1.021669e+00	8.834710e-01	8.755299e-01	8.823006e-01	8.858752e-01	1.085392e+00	1.099384e+00	9.330296e-01	9.379041e-01	9.113498e-01	9.011050e-01	8.918629e-01	8.896110e-01	8.935093e-01	1.013200e+00	9.946075e-01	9.774164e-01	8.358050e-01	8.415201e-01	8.477834e-01	8.621354e-01	8.566557e-01	8.516481e-01	8.427960e-01	8.390070e-01	8.286797e-01	8.293145e-01	8.357272e-01	8.169832e-01	8.385541e-01	8.373140e-01	1.096179e+00	8.388366e-01	8.418094e-01	8.449025e-01	8.457116e-01	1.070940e+00	8.025197e-01	8.087851e-01	8.011124e-01	7.988437e-01	7.882039e-01	7.882515e-01	7.883310e-01	9.533418e-01	1.064250e+00	1.057465e+00	1.037395e+00	1.030621e+00	1.023728e+00	1.009017e+00	1.001417e+00	9.935785e-01	9.776395e-01	9.695562e-01	9.614494e-01	9.452957e-01	9.372829e-01	9.293986e-01	9.066079e-01	8.673605e-01	8.590416e-01	8.995468e-01	8.929764e-01	8.869513e-01	7.949075e-01	7.932938e-01	7.919988e-01	7.909395e-01	7.900909e-01	8.278055e-01	8.417957e-01	9.570676e-01	9.619888e-01	9.669061e-01	8.722069e-01	8.755309e-01	8.594239e-01	8.811714e-01	7.898001e-01	7.918998e-01	7.944965e-01	8.089295e-01	8.410458e-01	8.331426e-01	8.243281e-01	1.088687e+00	1.083527e+00	1.077499e+00	8.975074e-01	9.016171e-01	9.058223e-01	8.329341e-01	8.307623e-01	1.289760e+00	9.300394e-01	1.129393e+00	1.097663e+00	8.842943e-01	1.261577e+00	1.159222e+00	1.013878e+00	1.018763e+00	1.058582e+00	1.112782e+00	8.471139e-01	1.271128e+00	9.654922e-01	1.206452e+00	1.091981e+00	1.120697e+00	1.171560e+00	9.150390e-01	1.130086e+00	1.185290e+00	1.187960e+00	9.575164e-01	8.756092e-01	1.104886e+00	8.601799e-01	9.421727e-01	8.670420e-01	8.357677e-01	1.101088e+00	8.764441e-01	1.089809e+00	1.086700e+00	9.846406e-01	7.957940e-01	8.069848e-01	1.121820e+00	8.170580e-01	9.874847e-01	1.146698e+00	1.106089e+00	1.143795e+00	1.078601e+00	1.128976e+00	9.247360e-01	1.231565e+00	9.298125e-01	9.338860e-01	1.154803e+00	1.129650e+00	1.180926e+00	1.013919e+00	8.515452e-01	8.153347e-01	1.219012e+00	1.001837e+00	9.231761e-01	1.047495e+00	8.194609e-01	8.122007e-01	8.094609e-01	9.158511e-01	9.208251e-01	1.095592e+00	1.041981e+00	1.086028e+00	1.254626e+00	1.296552e+00	1.081026e+00	1.065800e+00	1.112820e+00	8.844546e-01	9.774608e-01	9.824085e-01	9.923182e-01	9.970136e-01	9.692155e-01	9.551646e-01	1.001400e+00	1.005634e+00	1.009733e+00	1.041896e+00	1.053330e+00	9.479889e-01	9.531766e-01	1.136952e+00	8.690256e-01	8.717852e-01	8.633991e-01	8.654329e-01	1.024625e+00	1.032190e+00	8.909056e-01	8.823641e-01	8.884413e-01	1.090962e+00	1.102525e+00	9.389657e-01	9.442009e-01	9.188526e-01	9.086952e-01	8.996603e-01	8.914770e-01	8.958940e-01	1.038689e+00	1.019409e+00	1.001027e+00	9.843026e-01	8.395437e-01	8.440563e-01	8.496098e-01	8.552271e-01	8.694874e-01	8.637877e-01	8.584055e-01	8.535534e-01	8.491724e-01	8.367108e-01	8.355120e-01	8.453314e-01	8.436250e-01	1.094380e+00	1.093362e+00	8.435481e-01	8.453588e-01	8.479182e-01	8.499417e-01	8.500918e-01	8.254395e-01	8.359447e-01	8.047012e-01	8.027452e-01	7.957928e-01	7.963339e-01	7.973563e-01	7.983809e-01	1.066239e+00	1.060085e+00	1.053862e+00	1.041080e+00	1.034695e+00	1.028279e+00	1.020746e+00	1.007623e+00	9.994811e-01	9.919499e-01	9.765720e-01	9.692479e-01	9.609791e-01	9.537398e-01	9.453799e-01	9.383095e-01	9.299948e-01	8.602414e-01	8.679535e-01	9.086639e-01	9.010927e-01	8.956957e-01	8.891000e-01	8.009624e-01	7.994975e-01	7.981344e-01	7.971359e-01	7.963078e-01	7.958459e-01	8.482651e-01	8.639240e-01	9.626809e-01	9.678101e-01	9.725319e-01	8.750486e-01	8.774652e-01	8.814583e-01	8.834822e-01	9.065191e-01	9.334033e-01	7.997762e-01	8.023788e-01	8.064862e-01	8.112128e-01	8.473608e-01	8.414501e-01	8.332983e-01	8.252546e-01	1.072179e+00	1.082582e+00	1.077761e+00	8.991831e-01	9.038066e-01	9.073148e-01	9.121248e-01	8.419575e-01	8.391834e-01	8.370442e-01	1.148438e+00	1.125368e+00	1.073731e+00	1.177373e+00	1.171501e+00	9.376019e-01	9.380707e-01	1.193614e+00	1.096425e+00	1.235297e+00	1.081931e+00	8.842601e-01	8.038750e-01	1.018160e+00	1.126674e+00	1.234644e+00	1.292084e+00	1.294164e+00	1.281255e+00	1.250722e+00	1.138474e+00	8.225865e-01	1.084503e+00	1.121284e+00	1.027079e+00	9.606364e-01	8.668039e-01	1.115953e+00	1.067909e+00	1.081438e+00	8.727652e-01	8.586854e-01	9.204519e-01	9.797880e-01	8.518476e-01	8.886506e-01	8.264950e-01	1.109702e+00	9.501287e-01	1.165145e+00	1.099771e+00	1.292341e+00	1.182253e+00	1.173053e+00	1.020327e+00	1.062253e+00	1.266587e+00	9.853303e-01	1.215168e+00	1.087602e+00	1.161575e+00	1.176948e+00	1.177971e+00	1.126009e+00	8.420469e-01	8.430586e-01	1.104131e+00	8.863305e-01	1.084886e+00	1.113248e+00	9.288259e-01	1.199779e+00	8.181800e-01	8.159628e-01	8.126074e-01	9.200831e-01	1.052752e+00	1.089485e+00	1.275079e+00	1.104389e+00	9.834550e-01	9.875446e-01	9.928738e-01	9.972715e-01	9.628978e-01	9.770774e-01	1.002353e+00	1.006321e+00	1.011220e+00	1.016252e+00	1.052287e+00	1.062840e+00	9.519189e-01	1.128325e+00	8.720945e-01	8.750254e-01	8.685946e-01	8.710225e-01	1.034433e+00	1.042548e+00	8.981173e-01	8.890198e-01	1.094892e+00	1.104535e+00	9.455211e-01	9.265560e-01	9.156932e-01	9.089306e-01	8.959621e-01	1.043491e+00	1.025039e+00	1.007366e+00	9.919603e-01	8.446718e-01	8.468536e-01	8.520875e-01	8.566061e-01	8.622385e-01	8.763849e-01	8.718228e-01	8.646320e-01	8.609713e-01	8.551093e-01	1.093890e+00	1.091855e+00	1.089872e+00	8.488664e-01	8.507340e-01	8.515767e-01	8.540549e-01	8.539863e-01	8.429554e-01	8.552935e-01	8.111159e-01	8.084094e-01	8.034730e-01	8.065532e-01	8.088279e-01	1.061980e+00	1.056495e+00	1.050382e+00	1.044488e+00	1.038229e+00	1.032222e+00	1.025329e+00	1.015335e+00	1.005842e+00	9.940242e-01	9.649587e-01	9.500164e-01	9.351148e-01	9.068529e-01	8.955364e-01	8.076057e-01	8.053847e-01	8.051365e-01	8.032062e-01	8.036474e-01	8.030391e-01	8.032134e-01	8.697130e-01	8.860073e-01	9.687473e-01	9.731997e-01	9.782013e-01	8.782006e-01	8.821443e-01	9.060256e-01	9.299519e-01	9.559503e-01	8.111003e-01	8.143933e-01	8.195846e-01	8.268996e-01	8.342599e-01	8.526491e-01	8.481527e-01	8.423226e-01	8.336965e-01	1.077586e+00	1.072280e+00	9.036362e-01	9.116715e-01	8.524042e-01	8.477262e-01	8.461541e-01	8.429860e-01	1.165856e+00	1.154366e+00	1.181261e+00	1.254706e+00	1.180565e+00	1.088529e+00	1.106532e+00	1.183016e+00	1.086061e+00	1.140817e+00	1.105769e+00	1.255118e+00	1.082576e+00	1.161760e+00	8.317070e-01	1.177615e+00	1.060477e+00	1.151923e+00	1.141770e+00	1.079406e+00	8.898658e-01	1.101669e+00	8.495017e-01	1.035575e+00	1.025313e+00	9.118839e-01	9.458089e-01	8.879279e-01	1.231111e+00	8.731974e-01	9.716624e-01	9.588598e-01	8.139265e-01	1.094106e+00	1.065371e+00	1.212545e+00	1.030510e+00	1.070117e+00	1.170654e+00	1.097495e+00	1.291128e+00	1.244829e+00	1.113546e+00	9.452737e-01	8.611823e-01	8.562796e-01	1.112117e+00	1.173752e+00	1.129522e+00	1.275000e+00	1.176579e+00	1.065149e+00	1.216918e+00	1.199828e+00	8.852541e-01	1.102160e+00	1.083538e+00	1.079869e+00	8.715747e-01	8.235901e-01	8.180011e-01	9.370500e-01	1.091372e+00	1.122322e+00	1.122655e+00	9.909275e-01	1.000215e+00	9.844451e-01	1.009709e+00	1.018089e+00	1.060766e+00	1.120786e+00	8.768691e-01	1.043688e+00	1.051738e+00	9.012034e-01	1.097323e+00	9.524388e-01	9.597783e-01	9.296779e-01	9.161863e-01	8.966095e-01	1.047672e+00	1.029249e+00	1.012608e+00	1.001110e+00	8.529513e-01	8.608621e-01	8.689170e-01	8.752699e-01	8.646402e-01	1.091253e+00	1.088690e+00	8.576073e-01	8.577686e-01	8.749706e-01	8.142436e-01	8.196465e-01	1.001956e+00	1.055319e+00	1.043991e+00	1.032343e+00	1.021661e+00	1.012179e+00	9.894816e-01	9.756620e-01	9.614464e-01	9.471283e-01	9.327027e-01	9.188193e-01	9.069747e-01	8.969616e-01	8.118656e-01	8.105462e-01	8.109184e-01	8.098124e-01	8.121782e-01	8.913094e-01	9.082699e-01	9.682192e-01	9.762443e-01	9.841118e-01	8.809735e-01	8.847609e-01	9.274969e-01	9.506234e-01	9.757877e-01	1.001915e+00	8.237773e-01	8.276642e-01	8.335217e-01	8.423060e-01	8.534143e-01	8.595782e-01	8.516350e-01	8.423653e-01	1.077265e+00	1.072712e+00	9.040957e-01	9.199873e-01	9.284402e-01	8.564439e-01	8.510725e-01	1.117375e+00	1.165830e+00	1.160966e+00	1.136248e+00	1.026539e+00	1.108325e+00	1.173676e+00	1.135400e+00	1.185640e+00	1.135503e+00	1.147379e+00	1.126564e+00	1.092057e+00	1.193255e+00	1.235425e+00	1.088143e+00	9.526285e-01	8.418143e-01	1.125036e+00	1.017674e+00	1.099996e+00	8.866152e-01	1.066194e+00	1.169687e+00	8.760210e-01	1.043868e+00	9.202032e-01	8.977203e-01	1.083491e+00	1.091362e+00	1.082844e+00	1.067773e+00	1.171298e+00	1.098645e+00	1.103008e+00	1.082495e+00	8.262104e-01	8.971034e-01	9.367284e-01	9.910361e-01	1.150498e+00	1.157215e+00	1.271735e+00	1.075380e+00	1.085171e+00	1.175534e+00	1.099071e+00	1.168658e+00	1.152484e+00	8.918532e-01	1.224756e+00	9.812924e-01	9.660722e-01	1.094722e+00	1.233281e+00	1.067293e+00	1.106409e+00	9.449962e-01	1.254061e+00	1.175977e+00	1.006436e+00	1.213002e+00	1.200118e+00	8.724973e-01	1.118024e+00	1.078955e+00	8.845101e-01	8.328051e-01	9.078736e-01	1.117902e+00	1.143028e+00	9.987344e-01	1.008205e+00	1.025871e+00	1.034693e+00	1.114093e+00	8.800676e-01	1.051469e+00	1.059153e+00	8.697556e-01	9.757521e-01	9.836231e-01	9.598274e-01	9.515057e-01	9.362589e-01	9.214454e-01	1.049942e+00	8.579208e-01	8.624733e-01	9.069912e-01	8.929410e-01	9.283491e-01	1.091278e+00	8.648467e-01	8.629476e-01	8.304609e-01	1.058829e+00	1.048791e+00	1.008687e+00	1.038025e+00	1.027624e+00	1.018113e+00	9.978895e-01	9.854252e-01	9.721029e-01	9.585071e-01	9.446722e-01	9.308691e-01	9.184088e-01	8.219365e-01	8.195588e-01	8.185694e-01	8.187626e-01	8.192911e-01	8.241805e-01	9.114890e-01	9.298147e-01	9.675489e-01	9.907873e-01	8.834813e-01	8.872749e-01	9.478500e-01	9.688132e-01	9.923848e-01	1.015921e+00	1.040515e+00	8.379214e-01	8.440156e-01	8.496227e-01	8.581002e-01	8.704490e-01	8.630595e-01	8.596606e-01	8.517543e-01	1.074074e+00	1.067250e+00	9.047526e-01	9.123494e-01	8.802594e-01	8.698997e-01	8.622910e-01	8.579796e-01	1.152284e+00	1.152742e+00	1.149411e+00	1.121142e+00	1.155706e+00	1.140389e+00	1.113187e+00	1.050692e+00	1.172678e+00	1.120496e+00	1.117758e+00	1.071764e+00	1.165928e+00	1.084548e+00	8.302617e-01	1.137400e+00	1.141390e+00	1.128574e+00	1.169330e+00	1.070505e+00	9.273934e-01	1.027964e+00	1.025388e+00	9.604187e-01	1.132566e+00	1.131972e+00	1.128163e+00	1.171685e+00	1.172237e+00	8.975050e-01	9.