# vtk DataFile Version 3.0
vtk output
ASCII
DATASET UNSTRUCTURED_GRID
POINTS 200 float
9.997500e-01	-3.633236e-05	0.0	9.990000e-01	-1.454683e-04	0.0	9.977600e-01	-3.274632e-04	0.0	9.960200e-01	-5.896883e-04	0.0	9.937800e-01	-9.462313e-04	0.0	9.910500e-01	-1.419708e-03	0.0	9.878400e-01	-2.040082e-03	0.0	9.841300e-01	-2.843000e-03	0.0	9.799500e-01	-3.840385e-03	0.0	9.752800e-01	-5.029377e-03	0.0	9.701500e-01	-6.363792e-03	0.0	9.645400e-01	-7.786123e-03	0.0	9.584700e-01	-9.222233e-03	0.0	9.519400e-01	-1.061770e-02	0.0	9.449600e-01	-1.194507e-02	0.0	9.375400e-01	-1.320871e-02	0.0	9.296900e-01	-1.443553e-02	0.0	9.214000e-01	-1.566329e-02	0.0	9.127000e-01	-1.691884e-02	0.0	9.035800e-01	-1.822296e-02	0.0	8.940600e-01	-1.957928e-02	0.0	8.841500e-01	-2.098329e-02	0.0	8.738500e-01	-2.242693e-02	0.0	8.631800e-01	-2.389824e-02	0.0	8.521600e-01	-2.538667e-02	0.0	8.407700e-01	-2.688908e-02	0.0	8.290500e-01	-2.839625e-02	0.0	8.170100e-01	-2.990435e-02	0.0	8.046400e-01	-3.141253e-02	0.0	7.919700e-01	-3.291515e-02	0.0	7.790100e-01	-3.440895e-02	0.0	7.657800e-01	-3.588936e-02	0.0	7.522800e-01	-3.735384e-02	0.0	7.385200e-01	-3.879858e-02	0.0	7.245300e-01	-4.021774e-02	0.0	7.103200e-01	-4.160772e-02	0.0	6.958900e-01	-4.296599e-02	0.0	6.812700e-01	-4.428737e-02	0.0	6.664700e-01	-4.556884e-02	0.0	6.515000e-01	-4.680764e-02	0.0	6.363800e-01	-4.800042e-02	0.0	6.211300e-01	-4.914423e-02	0.0	6.057600e-01	-5.023717e-02	0.0	5.902800e-01	-5.127754e-02	0.0	5.747100e-01	-5.226321e-02	0.0	5.590600e-01	-5.319293e-02	0.0	5.433600e-01	-5.406451e-02	0.0	5.276100e-01	-5.487765e-02	0.0	5.118400e-01	-5.563059e-02	0.0	4.960500e-01	-5.632315e-02	0.0	4.802700e-01	-5.695389e-02	0.0	4.645100e-01	-5.752226e-02	0.0	4.487800e-01	-5.802771e-02	0.0	4.331100e-01	-5.846902e-02	0.0	4.175000e-01	-5.884587e-02	0.0	4.019700e-01	-5.915726e-02	0.0	3.865400e-01	-5.940221e-02	0.0	3.712300e-01	-5.957976e-02	0.0	3.560400e-01	-5.968905e-02	0.0	3.409900e-01	-5.972888e-02	0.0	3.261100e-01	-5.969811e-02	0.0	3.114000e-01	-5.959555e-02	0.0	2.968700e-01	-5.941986e-02	0.0	2.825500e-01	-5.916994e-02	0.0	2.684500e-01	-5.884454e-02	0.0	2.545700e-01	-5.844202e-02	0.0	2.409400e-01	-5.796158e-02	0.0	2.275700e-01	-5.740201e-02	0.0	2.144700e-01	-5.676211e-02	0.0	2.016600e-01	-5.604130e-02	0.0	1.891400e-01	-5.523801e-02	0.0	1.769300e-01	-5.435194e-02	0.0	1.650400e-01	-5.338240e-02	0.0	1.534900e-01	-5.232975e-02	0.0	1.422900e-01	-5.119386e-02	0.0	1.314400e-01	-4.997363e-02	0.0	1.209500e-01	-4.866896e-02	0.0	1.108500e-01	-4.728283e-02	0.0	1.011300e-01	-4.581321e-02	0.0	9.181000e-02	-4.426239e-02	0.0	8.290000e-02	-4.263165e-02	0.0	7.440000e-02	-4.092053e-02	0.0	6.633000e-02	-3.913271e-02	0.0	5.869000e-02	-3.726805e-02	0.0	5.149000e-02	-3.532873e-02	0.0	4.474000e-02	-3.331738e-02	0.0	3.844000e-02	-3.123383e-02	0.0	3.260000e-02	-2.908103e-02	0.0	2.723000e-02	-2.686273e-02	0.0	2.232000e-02	-2.457400e-02	0.0	1.790000e-02	-2.222879e-02	0.0	1.395000e-02	-1.981634e-02	0.0	1.049000e-02	-1.734777e-02	0.0	7.520000e-03	-1.482384e-02	0.0	5.040000e-03	-1.224448e-02	0.0	3.050000e-03	-9.607783e-03	0.0	1.560000e-03	-6.928203e-03	0.0	5.600000e-04	-4.183623e-03	0.0	6.000000e-05	-1.378924e-03	0.0	0.000000e+00	0.000000e+00	0.0	6.000000e-05	1.261441e-03	0.0	5.600000e-04	3.615992e-03	0.0	1.560000e-03	5.773146e-03	0.0	3.050000e-03	7.785453e-03	0.0	5.040000e-03	9.698075e-03	0.0	7.520000e-03	1.151876e-02	0.0	1.049000e-02	1.326236e-02	0.0	1.395000e-02	1.493919e-02	0.0	1.790000e-02	1.655694e-02	0.0	2.232000e-02	1.811501e-02	0.0	2.723000e-02	1.962629e-02	0.0	3.260000e-02	2.108645e-02	0.0	3.844000e-02	2.250297e-02	0.0	4.474000e-02	2.387702e-02	0.0	5.149000e-02	2.520981e-02	0.0	5.869000e-02	2.650423e-02	0.0	6.633000e-02	2.776090e-02	0.0	7.440000e-02	2.898042e-02	0.0	8.290000e-02	3.016463e-02	0.0	9.181000e-02	3.131246e-02	0.0	1.011300e-01	3.242541e-02	0.0	1.108500e-01	3.350352e-02	0.0	1.209500e-01	3.454574e-02	0.0	1.314400e-01	3.555404e-02	0.0	1.422900e-01	3.652628e-02	0.0	1.534900e-01	3.746237e-02	0.0	1.650400e-01	3.836286e-02	0.0	1.769300e-01	3.922726e-02	0.0	1.891400e-01	4.005434e-02	0.0	2.016600e-01	4.084356e-02	0.0	2.144700e-01	4.159364e-02	0.0	2.275700e-01	4.230443e-02	0.0	2.409400e-01	4.297447e-02	0.0	2.545700e-01	4.360274e-02	0.0	2.684500e-01	4.418805e-02	0.0	2.825500e-01	4.472833e-02	0.0	2.968700e-01	4.522257e-02	0.0	3.114000e-01	4.566917e-02	0.0	3.261100e-01	4.606579e-02	0.0	3.409900e-01	4.641067e-02	0.0	3.560400e-01	4.670199e-02	0.0	3.712300e-01	4.693723e-02	0.0	3.865400e-01	4.711405e-02	0.0	4.019700e-01	4.723026e-02	0.0	4.175000e-01	4.728332e-02	0.0	4.331100e-01	4.727074e-02	0.0	4.487800e-01	4.719010e-02	0.0	4.645100e-01	4.703887e-02	0.0	4.802700e-01	4.681481e-02	0.0	4.960500e-01	4.651564e-02	0.0	5.118400e-01	4.613917e-02	0.0	5.276100e-01	4.568391e-02	0.0	5.433600e-01	4.514789e-02	0.0	5.590600e-01	4.453041e-02	0.0	5.747100e-01	4.383005e-02	0.0	5.902800e-01	4.304713e-02	0.0	6.057600e-01	4.218165e-02	0.0	6.211300e-01	4.123473e-02	0.0	6.363800e-01	4.020753e-02	0.0	6.515000e-01	3.910183e-02	0.0	6.664700e-01	3.792081e-02	0.0	6.812700e-01	3.666858e-02	0.0	6.958900e-01	3.534923e-02	0.0	7.103200e-01	3.396754e-02	0.0	7.245300e-01	3.253108e-02	0.0	7.385200e-01	3.104527e-02	0.0	7.522800e-01	2.951714e-02	0.0	7.657800e-01	2.795668e-02	0.0	7.790100e-01	2.637242e-02	0.0	7.919700e-01	2.477215e-02	0.0	8.046400e-01	2.316652e-02	0.0	8.170100e-01	2.156531e-02	0.0	8.290500e-01	1.998099e-02	0.0	8.407700e-01	1.842047e-02	0.0	8.521600e-01	1.689228e-02	0.0	8.631800e-01	1.540738e-02	0.0	8.738500e-01	1.396637e-02	0.0	8.841500e-01	1.257264e-02	0.0	8.940600e-01	1.122756e-02	0.0	9.035800e-01	9.929633e-03	0.0	9.127000e-01	8.681662e-03	0.0	9.214000e-01	7.494562e-03	0.0	9.296900e-01	6.384627e-03	0.0	9.375400e-01	5.382376e-03	0.0	9.449600e-01	4.516386e-03	0.0	9.519400e-01	3.811142e-03	0.0	9.584700e-01	3.272703e-03	0.0	9.645400e-01	2.881371e-03	0.0	9.701500e-01	2.593232e-03	0.0	9.752800e-01	2.353706e-03	0.0	9.799500e-01	2.111550e-03	0.0	9.841300e-01	1.837704e-03	0.0	9.878400e-01	1.525341e-03	0.0	9.910500e-01	1.192593e-03	0.0	9.937800e-01	8.638867e-04	0.0	9.960200e-01	5.668656e-04	0.0	9.977600e-01	3.232326e-04	0.0	9.990000e-01	1.450824e-04	0.0	9.997500e-01	3.632625e-05	0.0	1.000000e+00	0.000000e+00	0.0	
CELLS 200	600
2	199	0	2	0	1	2	1	2	2	2	3	2	3	4	2	4	5	2	5	6	2	6	7	2	7	8	2	8	9	2	9	10	2	10	11	2	11	12	2	12	13	2	13	14	2	14	15	2	15	16	2	16	17	2	17	18	2	18	19	2	19	20	2	20	21	2	21	22	2	22	23	2	23	24	2	24	25	2	25	26	2	26	27	2	27	28	2	28	29	2	29	30	2	30	31	2	31	32	2	32	33	2	33	34	2	34	35	2	35	36	2	36	37	2	37	38	2	38	39	2	39	40	2	40	41	2	41	42	2	42	43	2	43	44	2	44	45	2	45	46	2	46	47	2	47	48	2	48	49	2	49	50	2	50	51	2	51	52	2	52	53	2	53	54	2	54	55	2	55	56	2	56	57	2	57	58	2	58	59	2	59	60	2	60	61	2	61	62	2	62	63	2	63	64	2	64	65	2	65	66	2	66	67	2	67	68	2	68	69	2	69	70	2	70	71	2	71	72	2	72	73	2	73	74	2	74	75	2	75	76	2	76	77	2	77	78	2	78	79	2	79	80	2	80	81	2	81	82	2	82	83	2	83	84	2	84	85	2	85	86	2	86	87	2	87	88	2	88	89	2	89	90	2	90	91	2	91	92	2	92	93	2	93	94	2	94	95	2	95	96	2	96	97	2	97	98	2	98	99	2	99	100	2	100	101	2	101	102	2	102	103	2	103	104	2	104	105	2	105	106	2	106	107	2	107	108	2	108	109	2	109	110	2	110	111	2	111	112	2	112	113	2	113	114	2	114	115	2	115	116	2	116	117	2	117	118	2	118	119	2	119	120	2	120	121	2	121	122	2	122	123	2	123	124	2	124	125	2	125	126	2	126	127	2	127	128	2	128	129	2	129	130	2	130	131	2	131	132	2	132	133	2	133	134	2	134	135	2	135	136	2	136	137	2	137	138	2	138	139	2	139	140	2	140	141	2	141	142	2	142	143	2	143	144	2	144	145	2	145	146	2	146	147	2	147	148	2	148	149	2	149	150	2	150	151	2	151	152	2	152	153	2	153	154	2	154	155	2	155	156	2	156	157	2	157	158	2	158	159	2	159	160	2	160	161	2	161	162	2	162	163	2	163	164	2	164	165	2	165	166	2	166	167	2	167	168	2	168	169	2	169	170	2	170	171	2	171	172	2	172	173	2	173	174	2	174	175	2	175	176	2	176	177	2	177	178	2	178	179	2	179	180	2	180	181	2	181	182	2	182	183	2	183	184	2	184	185	2	185	186	2	186	187	2	187	188	2	188	189	2	189	190	2	190	191	2	191	192	2	192	193	2	193	194	2	194	195	2	195	196	2	196	197	2	197	198	2	198	199	
CELL_TYPES 200
3	3	3	3	3	3	3	3	3	3	3	3	3	3	3	3	3	3	3	3	3	3	3	3	3	3	3	3	3	3	3	3	3	3	3	3	3	3	3	3	3	3	3	3	3	3	3	3	3	3	3	3	3	3	3	3	3	3	3	3	3	3	3	3	3	3	3	3	3	3	3	3	3	3	3	3	3	3	3	3	3	3	3	3	3	3	3	3	3	3	3	3	3	3	3	3	3	3	3	3	3	3	3	3	3	3	3	3	3	3	3	3	3	3	3	3	3	3	3	3	3	3	3	3	3	3	3	3	3	3	3	3	3	3	3	3	3	3	3	3	3	3	3	3	3	3	3	3	3	3	3	3	3	3	3	3	3	3	3	3	3	3	3	3	3	3	3	3	3	3	3	3	3	3	3	3	3	3	3	3	3	3	3	3	3	3	3	3	3	3	3	3	3	3	3	3	3	3	3	3	
POINT_DATA 200

SCALARS Conservative_1 float 1
LOOKUP_TABLE default
1.199684e+00	1.181374e+00	1.170847e+00	1.164291e+00	1.159603e+00	1.155044e+00	1.148112e+00	1.137211e+00	1.121128e+00	1.099963e+00	1.074953e+00	1.048697e+00	1.025501e+00	1.009247e+00	1.001010e+00	9.989658e-01	1.000026e+00	1.001410e+00	1.001402e+00	9.994143e-01	9.956596e-01	9.906845e-01	9.850631e-01	9.792591e-01	9.735455e-01	9.680330e-01	9.627146e-01	9.575460e-01	9.524645e-01	9.474395e-01	9.424552e-01	9.374690e-01	9.324469e-01	9.274047e-01	9.223909e-01	9.174516e-01	9.126049e-01	9.078535e-01	9.032084e-01	8.986843e-01	8.942803e-01	8.900055e-01	8.858409e-01	8.818009e-01	8.779006e-01	8.741924e-01	8.706678e-01	8.672616e-01	8.638244e-01	8.603494e-01	8.570568e-01	8.543218e-01	8.522554e-01	8.505205e-01	8.483606e-01	8.449535e-01	8.398185e-01	8.332560e-01	8.263723e-01	8.205219e-01	8.165044e-01	8.143661e-01	8.137294e-01	8.141255e-01	8.152512e-01	8.169278e-01	8.191230e-01	8.217645e-01	8.247707e-01	8.280283e-01	8.315477e-01	8.354801e-01	8.400662e-01	8.453804e-01	8.513551e-01	8.578460e-01	8.649107e-01	8.727205e-01	8.813319e-01	8.907831e-01	9.011847e-01	9.125940e-01	9.251586e-01	9.389939e-01	9.542855e-01	9.713046e-01	9.902757e-01	1.011553e+00	1.035617e+00	1.062783e+00	1.093586e+00	1.128508e+00	1.167434e+00	1.209946e+00	1.254377e+00	1.297800e+00	1.331602e+00	1.350907e+00	1.339526e+00	1.308166e+00	1.284033e+00	1.220568e+00	1.098608e+00	1.001118e+00	9.253188e-01	8.698540e-01	8.320315e-01	8.070637e-01	7.901713e-01	7.786396e-01	7.707909e-01	7.654688e-01	7.621258e-01	7.600320e-01	7.588181e-01	7.584882e-01	7.589248e-01	7.599025e-01	7.611073e-01	7.622061e-01	7.631988e-01	7.644104e-01	7.661221e-01	7.682112e-01	7.702861e-01	7.720994e-01	7.737274e-01	7.753123e-01	7.769657e-01	7.787779e-01	7.808265e-01	7.831174e-01	7.855944e-01	7.881674e-01	7.907800e-01	7.933878e-01	7.960446e-01	7.990434e-01	8.031207e-01	8.092029e-01	8.175020e-01	8.264005e-01	8.331163e-01	8.358805e-01	8.348493e-01	8.314781e-01	8.275188e-01	8.245192e-01	8.237360e-01	8.262186e-01	8.321734e-01	8.405989e-01	8.495363e-01	8.574296e-01	8.640111e-01	8.698989e-01	8.758238e-01	8.822397e-01	8.893127e-01	8.968972e-01	9.048201e-01	9.129860e-01	9.213733e-01	9.299727e-01	9.387356e-01	9.476387e-01	9.566295e-01	9.656911e-01	9.747478e-01	9.837991e-01	9.927606e-01	1.001550e+00	1.010103e+00	1.018338e+00	1.026208e+00	1.033693e+00	1.040841e+00	1.047831e+00	1.054917e+00	1.062484e+00	1.070823e+00	1.080030e+00	1.089726e+00	1.099066e+00	1.106820e+00	1.111676e+00	1.112566e+00	1.109145e+00	1.102176e+00	1.093791e+00	1.087007e+00	1.084719e+00	1.088709e+00	1.098863e+00	1.113285e+00	1.130278e+00	1.148590e+00	1.168635e+00	1.192636e+00	1.181015e+00	
SCALARS Conservative_2 float 1
LOOKUP_TABLE default
7.198544e-01	7.463335e-01	7.645639e-01	7.755384e-01	7.816083e-01	7.865413e-01	7.924609e-01	8.021639e-01	8.171073e-01	8.373375e-01	8.611539e-01	8.852751e-01	9.061287e-01	9.213828e-01	9.304649e-01	9.343651e-01	9.351110e-01	9.347647e-01	9.347623e-01	9.357067e-01	9.376508e-01	9.402978e-01	9.432769e-01	9.463017e-01	9.491863e-01	9.518651e-01	9.543321e-01	9.566280e-01	9.587631e-01	9.607687e-01	9.626798e-01	9.644888e-01	9.662095e-01	9.678405e-01	9.693696e-01	9.707845e-01	9.721003e-01	9.732971e-01	9.743859e-01	9.753811e-01	9.762640e-01	9.770688e-01	9.777695e-01	9.784024e-01	9.789347e-01	9.794060e-01	9.797939e-01	9.801500e-01	9.804432e-01	9.807105e-01	9.808909e-01	9.810097e-01	9.810541e-01	9.810865e-01	9.811321e-01	9.812208e-01	9.812622e-01	9.811556e-01	9.807736e-01	9.802386e-01	9.797307e-01	9.793407e-01	9.791253e-01	9.790071e-01	9.789809e-01	9.789565e-01	9.789566e-01	9.789110e-01	9.788326e-01	9.786553e-01	9.783913e-01	9.779859e-01	9.774384e-01	9.766688e-01	9.756637e-01	9.742841e-01	9.725499e-01	9.703658e-01	9.675047e-01	9.638111e-01	9.591964e-01	9.533733e-01	9.460812e-01	9.369106e-01	9.253541e-01	9.106931e-01	8.920105e-01	8.682485e-01	8.378540e-01	7.986992e-01	7.483146e-01	6.836506e-01	6.010077e-01	4.980754e-01	3.746468e-01	2.382693e-01	1.084467e-01	1.103730e-02	-2.166146e-02	5.238079e-03	7.333614e-02	2.113898e-01	4.148592e-01	5.914688e-01	7.161173e-01	7.973865e-01	8.487558e-01	8.815270e-01	9.027000e-01	9.169554e-01	9.269281e-01	9.340292e-01	9.394315e-01	9.436386e-01	9.469968e-01	9.498650e-01	9.523093e-01	9.544181e-01	9.562890e-01	9.578958e-01	9.593204e-01	9.606841e-01	9.620111e-01	9.632160e-01	9.643006e-01	9.652534e-01	9.661292e-01	9.669352e-01	9.677187e-01	9.684825e-01	9.692611e-01	9.700393e-01	9.708156e-01	9.715618e-01	9.722819e-01	9.729722e-01	9.736743e-01	9.744502e-01	9.754008e-01	9.765098e-01	9.775834e-01	9.782343e-01	9.784291e-01	9.784029e-01	9.783091e-01	9.782256e-01	9.781628e-01	9.781992e-01	9.783420e-01	9.787099e-01	9.791696e-01	9.794711e-01	9.793851e-01	9.790471e-01	9.786293e-01	9.781592e-01	9.775956e-01	9.767983e-01	9.757407e-01	9.743724e-01	9.727127e-01	9.707464e-01	9.684704e-01	9.658695e-01	9.629355e-01	9.596673e-01	9.560618e-01	9.521603e-01	9.478964e-01	9.433819e-01	9.386254e-01	9.336458e-01	9.285587e-01	9.234210e-01	9.182850e-01	9.131781e-01	9.080449e-01	9.027664e-01	8.970550e-01	8.906223e-01	8.831397e-01	8.746017e-01	8.654268e-01	8.566767e-01	8.498604e-01	8.465115e-01	8.476161e-01	8.530740e-01	8.614475e-01	8.701194e-01	8.758564e-01	8.760797e-01	8.695095e-01	8.568598e-01	8.388233e-01	8.169044e-01	7.907725e-01	7.593755e-01	7.211547e-01	6.624023e-01	
SCALARS Conservative_3 float 1
LOOKUP_TABLE default
1.010323e-01	1.067001e-01	1.128751e-01	1.197036e-01	1.299799e-01	1.443727e-01	1.625448e-01	1.826121e-01	2.014677e-01	2.152477e-01	2.208266e-01	2.166663e-01	2.037467e-01	1.858152e-01	1.675154e-01	1.524482e-01	1.422192e-01	1.365880e-01	1.342228e-01	1.335169e-01	1.331935e-01	1.324990e-01	1.311498e-01	1.291714e-01	1.267279e-01	1.240149e-01	1.211643e-01	1.182643e-01	1.153412e-01	1.123840e-01	1.093822e-01	1.063161e-01	1.031745e-01	9.995039e-02	9.662988e-02	9.322746e-02	8.973918e-02	8.618274e-02	8.256410e-02	7.889421e-02	7.518585e-02	7.144475e-02	6.768921e-02	6.391985e-02	6.014394e-02	5.635156e-02	5.254607e-02	4.873930e-02	4.495652e-02	4.120208e-02	3.743705e-02	3.360059e-02	2.966734e-02	2.562628e-02	2.152086e-02	1.740826e-02	1.333858e-02	9.280995e-03	5.094967e-03	6.512633e-04	-4.066438e-03	-9.024638e-03	-1.421101e-02	-1.961682e-02	-2.528335e-02	-3.123943e-02	-3.754050e-02	-4.420268e-02	-5.125854e-02	-5.872694e-02	-6.665206e-02	-7.509543e-02	-8.412589e-02	-9.377547e-02	-1.040863e-01	-1.151074e-01	-1.269470e-01	-1.396687e-01	-1.533470e-01	-1.681023e-01	-1.840505e-01	-2.013009e-01	-2.200058e-01	-2.402976e-01	-2.622944e-01	-2.861141e-01	-3.118308e-01	-3.393977e-01	-3.684447e-01	-3.982719e-01	-4.274523e-01	-4.529575e-01	-4.698102e-01	-4.696819e-01	-4.396694e-01	-3.641466e-01	-2.310051e-01	-3.847613e-02	1.857980e-01	3.523132e-01	4.972260e-01	6.620283e-01	7.238324e-01	6.878947e-01	6.104370e-01	5.268277e-01	4.525425e-01	3.909471e-01	3.408659e-01	2.998981e-01	2.663163e-01	2.383476e-01	2.148289e-01	1.948169e-01	1.775828e-01	1.626170e-01	1.495390e-01	1.380013e-01	1.277535e-01	1.185274e-01	1.101207e-01	1.024642e-01	9.551196e-02	8.917639e-02	8.333324e-02	7.783212e-02	7.264255e-02	6.773868e-02	6.311196e-02	5.871473e-02	5.451458e-02	5.048212e-02	4.658203e-02	4.277969e-02	3.904396e-02	3.534855e-02	3.165062e-02	2.791154e-02	2.412252e-02	2.037017e-02	1.680670e-02	1.342284e-02	9.866927e-03	5.932923e-03	1.660798e-03	-2.811922e-03	-7.379673e-03	-1.200887e-02	-1.672534e-02	-2.151142e-02	-2.626727e-02	-3.100232e-02	-3.583005e-02	-4.098091e-02	-4.641679e-02	-5.198780e-02	-5.757465e-02	-6.313989e-02	-6.867251e-02	-7.416898e-02	-7.960456e-02	-8.495302e-02	-9.014233e-02	-9.513747e-02	-9.986993e-02	-1.043149e-01	-1.083993e-01	-1.120861e-01	-1.153186e-01	-1.180525e-01	-1.202478e-01	-1.218706e-01	-1.229235e-01	-1.234326e-01	-1.234705e-01	-1.231819e-01	-1.227396e-01	-1.223185e-01	-1.219890e-01	-1.215904e-01	-1.206004e-01	-1.181414e-01	-1.131191e-01	-1.046688e-01	-9.260678e-02	-7.784122e-02	-6.249702e-02	-4.960131e-02	-4.232837e-02	-4.282330e-02	-5.116710e-02	-6.516856e-02	-8.111028e-02	-9.535733e-02	-1.052529e-01	-1.098910e-01	-1.102936e-01	-1.061843e-01	-1.003469e-01	2.555551e-03	
SCALARS Conservative_4 float 1
LOOKUP_TABLE default
3.446047e+00	3.400227e+00	3.374685e+00	3.358875e+00	3.347440e+00	3.336336e+00	3.319120e+00	3.291973e+00	3.251846e+00	3.198989e+00	3.136419e+00	3.070497e+00	3.012089e+00	2.971146e+00	2.950424e+00	2.945271e+00	2.947893e+00	2.951303e+00	2.951191e+00	2.946063e+00	2.936467e+00	2.923773e+00	2.909425e+00	2.894596e+00	2.879975e+00	2.865847e+00	2.852195e+00	2.838911e+00	2.825832e+00	2.812882e+00	2.800029e+00	2.787155e+00	2.774173e+00	2.761126e+00	2.748137e+00	2.735326e+00	2.722745e+00	2.710395e+00	2.698307e+00	2.686525e+00	2.675039e+00	2.663884e+00	2.653001e+00	2.642438e+00	2.632224e+00	2.622510e+00	2.613264e+00	2.604330e+00	2.595305e+00	2.586182e+00	2.577521e+00	2.570316e+00	2.564852e+00	2.560262e+00	2.554566e+00	2.545614e+00	2.532121e+00	2.514853e+00	2.496676e+00	2.481177e+00	2.470499e+00	2.464787e+00	2.463070e+00	2.464097e+00	2.467075e+00	2.471508e+00	2.477325e+00	2.484315e+00	2.492274e+00	2.500888e+00	2.510193e+00	2.520574e+00	2.532671e+00	2.546664e+00	2.562384e+00	2.579421e+00	2.597950e+00	2.618412e+00	2.640910e+00	2.665529e+00	2.692574e+00	2.722155e+00	2.754647e+00	2.790310e+00	2.829585e+00	2.873115e+00	2.921405e+00	2.975327e+00	3.036018e+00	3.104134e+00	3.180948e+00	3.267549e+00	3.363391e+00	3.467403e+00	3.575362e+00	3.680660e+00	3.762126e+00	3.809749e+00	3.781217e+00	3.702607e+00	3.649098e+00	3.498547e+00	3.188601e+00	2.940613e+00	2.746116e+00	2.603006e+00	2.505192e+00	2.440538e+00	2.396623e+00	2.366540e+00	2.346029e+00	2.332051e+00	2.323284e+00	2.317807e+00	2.314650e+00	2.313862e+00	2.315099e+00	2.317763e+00	2.321044e+00	2.324041e+00	2.326765e+00	2.330090e+00	2.334747e+00	2.340378e+00	2.345961e+00	2.350843e+00	2.355237e+00	2.359512e+00	2.363974e+00	2.368855e+00	2.374368e+00	2.380522e+00	2.387169e+00	2.394066e+00	2.401065e+00	2.408049e+00	2.415172e+00	2.423220e+00	2.434150e+00	2.450382e+00	2.472419e+00	2.495917e+00	2.513573e+00	2.520805e+00	2.518063e+00	2.509193e+00	2.498801e+00	2.490971e+00	2.488992e+00	2.495650e+00	2.511450e+00	2.533706e+00	2.557219e+00	2.577947e+00	2.595231e+00	2.610700e+00	2.626262e+00	2.643074e+00	2.661571e+00	2.681360e+00	2.701993e+00	2.723216e+00	2.744972e+00	2.767235e+00	2.789875e+00	2.812832e+00	2.835964e+00	2.859239e+00	2.882436e+00	2.905585e+00	2.928458e+00	2.950839e+00	2.972585e+00	2.993487e+00	3.013431e+00	3.032373e+00	3.050426e+00	3.068050e+00	3.085871e+00	3.104860e+00	3.125729e+00	3.148725e+00	3.172908e+00	3.196200e+00	3.215579e+00	3.227806e+00	3.230207e+00	3.221855e+00	3.204570e+00	3.183632e+00	3.166537e+00	3.160565e+00	3.170244e+00	3.195443e+00	3.231191e+00	3.273271e+00	3.318329e+00	3.367438e+00	3.426753e+00	3.383557e+00	
SCALARS Pressure float 1
LOOKUP_TABLE default
1.290329e+00	1.263864e+00	1.247846e+00	1.237771e+00	1.230697e+00	1.223804e+00	1.213649e+00	1.197759e+00	1.174392e+00	1.143688e+00	1.107519e+00	1.069782e+00	1.036609e+00	1.013383e+00	1.001585e+00	9.986673e-01	1.000230e+00	1.002284e+00	1.002367e+00	9.996458e-01	9.944188e-01	9.874704e-01	9.796252e-01	9.715400e-01	9.636035e-01	9.559679e-01	9.486234e-01	9.415010e-01	9.345186e-01	9.276296e-01	9.208048e-01	9.139930e-01	9.071472e-01	9.002880e-01	8.934820e-01	8.867923e-01	8.802384e-01	8.738301e-01	8.675789e-01	8.615000e-01	8.555988e-01	8.498768e-01	8.443182e-01	8.389312e-01	8.337464e-01	8.288209e-01	8.241517e-01	8.196376e-01	8.150927e-01	8.104961e-01	8.061579e-01	8.025651e-01	7.998708e-01	7.976112e-01	7.947805e-01	7.902809e-01	7.835005e-01	7.748593e-01	7.658595e-01	7.582616e-01	7.530781e-01	7.503477e-01	7.495507e-01	7.500880e-01	7.515545e-01	7.537401e-01	7.565903e-01	7.600287e-01	7.639381e-01	7.681856e-01	7.727754e-01	7.779198e-01	7.839285e-01	7.909159e-01	7.987841e-01	8.073738e-01	8.167364e-01	8.271072e-01	8.386071e-01	8.513018e-01	8.653232e-01	8.807862e-01	8.978996e-01	9.168586e-01	9.379550e-01	9.616171e-01	9.882243e-01	1.018307e+00	1.052620e+00	1.091756e+00	1.136553e+00	1.187827e+00	1.245662e+00	1.309490e+00	1.376944e+00	1.443080e+00	1.495069e+00	1.523662e+00	1.507262e+00	1.462062e+00	1.420292e+00	1.320281e+00	1.148727e+00	1.011822e+00	9.070622e-01	8.311964e-01	7.796860e-01	7.457675e-01	7.229899e-01	7.075461e-01	6.970699e-01	6.900360e-01	6.856051e-01	6.828155e-01	6.811800e-01	6.806661e-01	6.811524e-01	6.823480e-01	6.838241e-01	6.851647e-01	6.863603e-01	6.878185e-01	6.899198e-01	6.925365e-01	6.951449e-01	6.974223e-01	6.994556e-01	7.014375e-01	7.035036e-01	7.057771e-01	7.083520e-01	7.112424e-01	7.143740e-01	7.176361e-01	7.209519e-01	7.242634e-01	7.276291e-01	7.314205e-01	7.365876e-01	7.443686e-01	7.550963e-01	7.667303e-01	7.755883e-01	7.792686e-01	7.779402e-01	7.735007e-01	7.682611e-01	7.642487e-01	7.631357e-01	7.662788e-01	7.739880e-01	7.849964e-01	7.967691e-01	8.072040e-01	8.159032e-01	8.236799e-01	8.315092e-01	8.400274e-01	8.494543e-01	8.596093e-01	8.702565e-01	8.812731e-01	8.926299e-01	9.043171e-01	9.162732e-01	9.284664e-01	9.408301e-01	9.533300e-01	9.658889e-01	9.784756e-01	9.909819e-01	1.003301e+00	1.015323e+00	1.026932e+00	1.038059e+00	1.048670e+00	1.058837e+00	1.068807e+00	1.078964e+00	1.089849e+00	1.101905e+00	1.115256e+00	1.129356e+00	1.142938e+00	1.154171e+00	1.161113e+00	1.162228e+00	1.157074e+00	1.146843e+00	1.134680e+00	1.124989e+00	1.121929e+00	1.128000e+00	1.142892e+00	1.164081e+00	1.189089e+00	1.216328e+00	1.246357e+00	1.281800e+00	1.279117e+00	
SCALARS Temperature float 1
LOOKUP_TABLE default
1.075558e+00	1.069825e+00	1.065763e+00	1.063111e+00	1.061309e+00	1.059530e+00	1.057083e+00	1.053243e+00	1.047509e+00	1.039752e+00	1.030295e+00	1.020106e+00	1.010832e+00	1.004098e+00	1.000574e+00	9.997011e-01	1.000204e+00	1.000873e+00	1.000963e+00	1.000232e+00	9.987538e-01	9.967557e-01	9.944796e-01	9.921174e-01	9.897878e-01	9.875365e-01	9.853631e-01	9.832436e-01	9.811584e-01	9.790911e-01	9.770276e-01	9.749581e-01	9.728674e-01	9.707607e-01	9.686588e-01	9.665821e-01	9.645340e-01	9.625233e-01	9.605523e-01	9.586237e-01	9.567456e-01	9.549119e-01	9.531263e-01	9.513839e-01	9.497047e-01	9.480989e-01	9.465742e-01	9.450869e-01	9.435861e-01	9.420546e-01	9.406119e-01	9.394178e-01	9.385341e-01	9.377919e-01	9.368427e-01	9.352951e-01	9.329402e-01	9.299174e-01	9.267729e-01	9.241211e-01	9.223197e-01	9.213887e-01	9.211302e-01	9.213420e-01	9.218686e-01	9.226520e-01	9.236589e-01	9.248742e-01	9.262431e-01	9.277287e-01	9.293218e-01	9.311051e-01	9.331747e-01	9.355740e-01	9.382501e-01	9.411641e-01	9.443014e-01	9.477343e-01	9.515225e-01	9.556780e-01	9.602062e-01	9.651457e-01	9.705359e-01	9.764266e-01	9.828873e-01	9.900263e-01	9.979285e-01	1.006676e+00	1.016418e+00	1.027262e+00	1.039290e+00	1.052564e+00	1.067009e+00	1.082271e+00	1.097712e+00	1.111944e+00	1.122759e+00	1.127881e+00	1.125220e+00	1.117642e+00	1.106118e+00	1.081694e+00	1.045621e+00	1.010692e+00	9.802700e-01	9.555585e-01	9.370871e-01	9.240503e-01	9.149787e-01	9.086953e-01	9.043567e-01	9.014554e-01	8.995956e-01	8.984036e-01	8.976855e-01	8.973984e-01	8.975229e-01	8.979416e-01	8.984595e-01	8.989232e-01	8.993204e-01	8.998026e-01	9.005351e-01	9.014923e-01	9.024503e-01	9.032804e-01	9.040078e-01	9.047160e-01	9.054499e-01	9.062623e-01	9.071823e-01	9.082194e-01	9.093421e-01	9.105123e-01	9.116971e-01	9.128744e-01	9.140557e-01	9.153702e-01	9.171569e-01	9.198788e-01	9.236629e-01	9.277950e-01	9.309484e-01	9.322727e-01	9.318332e-01	9.302719e-01	9.283911e-01	9.269023e-01	9.264323e-01	9.274529e-01	9.300803e-01	9.338538e-01	9.378870e-01	9.414230e-01	9.443203e-01	9.468686e-01	9.494023e-01	9.521533e-01	9.551807e-01	9.584257e-01	9.618006e-01	9.652645e-01	9.688037e-01	9.724125e-01	9.760717e-01	9.797683e-01	9.834842e-01	9.871997e-01	9.909117e-01	9.945888e-01	9.982083e-01	1.001748e+00	1.005168e+00	1.008440e+00	1.011549e+00	1.014489e+00	1.017290e+00	1.020019e+00	1.022795e+00	1.025756e+00	1.029026e+00	1.032616e+00	1.036366e+00	1.039917e+00	1.042781e+00	1.044471e+00	1.044637e+00	1.043212e+00	1.040527e+00	1.037383e+00	1.034942e+00	1.034304e+00	1.036090e+00	1.040067e+00	1.045627e+00	1.052033e+00	1.058975e+00	1.066507e+00	1.074762e+00	1.083065e+00	
SCALARS Pressure_Coefficient float 1
LOOKUP_TABLE default
6.480566e-01	5.889821e-01	5.532267e-01	5.307388e-01	5.149479e-01	4.995630e-01	4.768961e-01	4.414258e-01	3.892673e-01	3.207329e-01	2.399986e-01	1.557630e-01	8.171689e-02	2.987191e-02	3.537156e-03	-2.974818e-03	5.132038e-04	5.098175e-03	5.283712e-03	-7.905749e-04	-1.245796e-02	-2.796795e-02	-4.547950e-02	-6.352683e-02	-8.124212e-02	-9.828584e-02	-1.146798e-01	-1.305781e-01	-1.461638e-01	-1.615411e-01	-1.767751e-01	-1.919799e-01	-2.072606e-01	-2.225715e-01	-2.377634e-01	-2.526957e-01	-2.673250e-01	-2.816291e-01	-2.955827e-01	-3.091517e-01	-3.223241e-01	-3.350964e-01	-3.475040e-01	-3.595286e-01	-3.711019e-01	-3.820963e-01	-3.925186e-01	-4.025945e-01	-4.127395e-01	-4.229999e-01	-4.326834e-01	-4.407028e-01	-4.467171e-01	-4.517607e-01	-4.580792e-01	-4.681230e-01	-4.832578e-01	-5.025463e-01	-5.226350e-01	-5.395946e-01	-5.511649e-01	-5.572597e-01	-5.590385e-01	-5.578393e-01	-5.545658e-01	-5.496873e-01	-5.433253e-01	-5.356501e-01	-5.269239e-01	-5.174429e-01	-5.071977e-01	-4.957148e-01	-4.823024e-01	-4.667057e-01	-4.491427e-01	-4.299691e-01	-4.090705e-01	-3.859214e-01	-3.602520e-01	-3.319157e-01	-3.006179e-01	-2.661022e-01	-2.279026e-01	-1.855834e-01	-1.384933e-01	-8.567609e-02	-2.628510e-02	4.086273e-02	1.174545e-01	2.048135e-01	3.048050e-01	4.192566e-01	5.483533e-01	6.908258e-01	8.413931e-01	9.890182e-01	1.105065e+00	1.168889e+00	1.132282e+00	1.031388e+00	9.381529e-01	7.149122e-01	3.319799e-01	2.638824e-02	-2.074504e-01	-3.767938e-01	-4.917723e-01	-5.674834e-01	-6.183261e-01	-6.527989e-01	-6.761833e-01	-6.918839e-01	-7.017744e-01	-7.080012e-01	-7.116518e-01	-7.127989e-01	-7.117134e-01	-7.090446e-01	-7.057498e-01	-7.027573e-01	-7.000887e-01	-6.968338e-01	-6.921433e-01	-6.863025e-01	-6.804801e-01	-6.753967e-01	-6.708580e-01	-6.664342e-01	-6.618224e-01	-6.567476e-01	-6.510000e-01	-6.445481e-01	-6.375580e-01	-6.302765e-01	-6.228753e-01	-6.154834e-01	-6.079707e-01	-5.995079e-01	-5.879740e-01	-5.706058e-01	-5.466599e-01	-5.206914e-01	-5.009190e-01	-4.927041e-01	-4.956692e-01	-5.055788e-01	-5.172743e-01	-5.262306e-01	-5.287149e-01	-5.216991e-01	-5.044910e-01	-4.799187e-01	-4.536404e-01	-4.303481e-01	-4.109304e-01	-3.935716e-01	-3.760956e-01	-3.570817e-01	-3.360395e-01	-3.133721e-01	-2.896061e-01	-2.650155e-01	-2.396655e-01	-2.135780e-01	-1.868901e-01	-1.596731e-01	-1.320757e-01	-1.041740e-01	-7.614075e-02	-4.804550e-02	-2.012977e-02	7.367351e-03	3.420267e-02	6.011654e-02	8.495237e-02	1.086395e-01	1.313337e-01	1.535879e-01	1.762585e-01	2.005563e-01	2.274662e-01	2.572672e-01	2.887403e-01	3.190575e-01	3.441307e-01	3.596273e-01	3.621165e-01	3.506108e-01	3.277753e-01	3.006250e-01	2.789926e-01	2.721623e-01	2.857151e-01	3.189545e-01	3.662521e-01	4.220730e-01	4.828756e-01	5.499048e-01	6.290175e-01	6.230282e-01	
SCALARS Mach float 1
LOOKUP_TABLE default
4.937793e-01	5.214571e-01	5.403825e-01	5.524601e-01	5.605556e-01	5.684572e-01	5.791939e-01	5.957520e-01	6.198638e-01	6.514614e-01	6.886132e-01	7.272337e-01	7.613085e-01	7.855020e-01	7.979939e-01	8.010724e-01	7.992990e-01	7.969380e-01	7.966198e-01	7.992023e-01	8.044055e-01	8.114115e-01	8.193526e-01	8.275519e-01	8.355968e-01	8.433342e-01	8.507701e-01	8.579906e-01	8.650656e-01	8.720529e-01	8.790006e-01	8.859433e-01	8.929319e-01	8.999493e-01	9.069264e-01	9.137969e-01	9.205517e-01	9.271627e-01	9.336240e-01	9.399292e-01	9.460530e-01	9.520170e-01	9.578108e-01	9.634515e-01	9.688759e-01	9.740529e-01	9.789591e-01	9.837365e-01	9.885492e-01	9.934520e-01	9.980629e-01	1.001874e+00	1.004691e+00	1.007055e+00	1.010076e+00	1.014995e+00	1.022466e+00	1.032031e+00	1.041953e+00	1.050300e+00	1.055959e+00	1.058881e+00	1.059692e+00	1.059027e+00	1.057375e+00	1.054916e+00	1.051753e+00	1.047931e+00	1.043622e+00	1.038940e+00	1.033912e+00	1.028276e+00	1.021723e+00	1.014109e+00	1.005596e+00	9.962990e-01	9.862565e-01	9.752268e-01	9.630032e-01	9.495270e-01	9.347569e-01	9.185363e-01	9.006966e-01	8.810196e-01	8.592018e-01	8.347752e-01	8.073033e-01	7.762897e-01	7.408974e-01	7.002528e-01	6.533090e-01	5.986443e-01	5.346330e-01	4.596637e-01	3.714685e-01	2.687499e-01	1.528582e-01	2.357990e-02	1.112599e-01	2.153270e-01	3.145472e-01	4.626799e-01	6.276590e-01	7.618165e-01	8.680716e-01	9.499155e-01	1.009298e+00	1.050522e+00	1.078940e+00	1.098515e+00	1.111985e+00	1.120974e+00	1.126729e+00	1.130414e+00	1.132633e+00	1.133520e+00	1.133136e+00	1.131842e+00	1.130242e+00	1.128808e+00	1.127580e+00	1.126089e+00	1.123823e+00	1.120860e+00	1.117893e+00	1.115322e+00	1.113067e+00	1.110871e+00	1.108594e+00	1.106073e+00	1.103217e+00	1.099994e+00	1.096504e+00	1.092863e+00	1.089174e+00	1.085505e+00	1.081821e+00	1.077718e+00	1.072134e+00	1.063615e+00	1.051740e+00	1.038731e+00	1.028772e+00	1.024580e+00	1.025972e+00	1.030911e+00	1.036851e+00	1.041546e+00	1.043026e+00	1.039810e+00	1.031516e+00	1.019569e+00	1.006752e+00	9.954714e-01	9.861959e-01	9.780125e-01	9.698515e-01	9.609621e-01	9.511436e-01	9.405755e-01	9.295340e-01	9.181447e-01	9.064460e-01	8.944491e-01	8.822107e-01	8.697668e-01	8.571723e-01	8.444885e-01	8.317206e-01	8.189726e-01	8.063213e-01	7.938438e-01	7.816871e-01	7.699535e-01	7.587097e-01	7.479833e-01	7.376800e-01	7.275560e-01	7.171689e-01	7.059846e-01	6.935001e-01	6.796225e-01	6.649221e-01	6.507996e-01	6.392537e-01	6.323696e-01	6.316898e-01	6.375011e-01	6.483522e-01	6.609007e-01	6.705305e-01	6.730334e-01	6.660108e-01	6.501960e-01	6.276304e-01	6.008996e-01	5.709044e-01	5.369536e-01	4.976965e-01	4.554894e-01	