# vtk DataFile Version 3.0
vtk output
ASCII
DATASET UNSTRUCTURED_GRID
POINTS 5233 float
9.997500e-01	-3.633244e-05	0.0	9.990000e-01	-1.454729e-04	0.0	9.977600e-01	-3.275132e-04	0.0	9.960200e-01	-5.899586e-04	0.0	9.937800e-01	-9.472090e-04	0.0	9.910500e-01	-1.422413e-03	0.0	9.878400e-01	-2.046242e-03	0.0	9.841300e-01	-2.855109e-03	0.0	9.799500e-01	-3.861391e-03	0.0	9.752800e-01	-5.062271e-03	0.0	9.701500e-01	-6.410871e-03	0.0	9.645400e-01	-7.848614e-03	0.0	9.584700e-01	-9.300026e-03	0.0	9.519400e-01	-1.070964e-02	0.0	9.449600e-01	-1.204943e-02	0.0	9.375400e-01	-1.332378e-02	0.0	9.296900e-01	-1.456003e-02	0.0	9.214000e-01	-1.579650e-02	0.0	9.127000e-01	-1.706045e-02	0.0	9.035800e-01	-1.837292e-02	0.0	8.940600e-01	-1.973754e-02	0.0	8.841500e-01	-2.114968e-02	0.0	8.738500e-01	-2.260110e-02	0.0	8.631800e-01	-2.407968e-02	0.0	8.521600e-01	-2.557478e-02	0.0	8.407700e-01	-2.708322e-02	0.0	8.290500e-01	-2.859577e-02	0.0	8.170100e-01	-3.010860e-02	0.0	8.046400e-01	-3.162089e-02	0.0	7.919700e-01	-3.312700e-02	0.0	7.790100e-01	-3.462365e-02	0.0	7.657800e-01	-3.610624e-02	0.0	7.522800e-01	-3.757221e-02	0.0	7.385200e-01	-3.901770e-02	0.0	7.245300e-01	-4.043683e-02	0.0	7.103200e-01	-4.182599e-02	0.0	6.958900e-01	-4.318259e-02	0.0	6.812700e-01	-4.450145e-02	0.0	6.664700e-01	-4.577955e-02	0.0	6.515000e-01	-4.701414e-02	0.0	6.363800e-01	-4.820190e-02	0.0	6.211300e-01	-4.933993e-02	0.0	6.057600e-01	-5.042637e-02	0.0	5.902800e-01	-5.145961e-02	0.0	5.747100e-01	-5.243761e-02	0.0	5.590600e-01	-5.335921e-02	0.0	5.433600e-01	-5.422235e-02	0.0	5.276100e-01	-5.502684e-02	0.0	5.118400e-01	-5.577108e-02	0.0	4.960500e-01	-5.645501e-02	0.0	4.802700e-01	-5.707731e-02	0.0	4.645100e-01	-5.763763e-02	0.0	4.487800e-01	-5.813550e-02	0.0	4.331100e-01	-5.856987e-02	0.0	4.175000e-01	-5.894053e-02	0.0	4.019700e-01	-5.924660e-02	0.0	3.865400e-01	-5.948721e-02	0.0	3.712300e-01	-5.966149e-02	0.0	3.560400e-01	-5.976865e-02	0.0	3.409900e-01	-5.980755e-02	0.0	3.261100e-01	-5.977709e-02	0.0	3.114000e-01	-5.967612e-02	0.0	2.968700e-01	-5.950327e-02	0.0	2.825500e-01	-5.925744e-02	0.0	2.684500e-01	-5.893734e-02	0.0	2.545700e-01	-5.854129e-02	0.0	2.409400e-01	-5.806839e-02	0.0	2.275700e-01	-5.751734e-02	0.0	2.144700e-01	-5.688684e-02	0.0	2.016600e-01	-5.617618e-02	0.0	1.891400e-01	-5.538365e-02	0.0	1.769300e-01	-5.450880e-02	0.0	1.650400e-01	-5.355075e-02	0.0	1.534900e-01	-5.250970e-02	0.0	1.422900e-01	-5.138532e-02	0.0	1.314400e-01	-5.017632e-02	0.0	1.209500e-01	-4.888240e-02	0.0	1.108500e-01	-4.750632e-02	0.0	1.011300e-01	-4.604585e-02	0.0	9.181000e-02	-4.450307e-02	0.0	8.290000e-02	-4.287905e-02	0.0	7.440000e-02	-4.117311e-02	0.0	6.633000e-02	-3.938874e-02	0.0	5.869000e-02	-3.752561e-02	0.0	5.149000e-02	-3.558571e-02	0.0	4.474000e-02	-3.357151e-02	0.0	3.844000e-02	-3.148268e-02	0.0	3.260000e-02	-2.932205e-02	0.0	2.723000e-02	-2.709327e-02	0.0	2.232000e-02	-2.479130e-02	0.0	1.790000e-02	-2.243015e-02	0.0	1.395000e-02	-1.999900e-02	0.0	1.049000e-02	-1.750914e-02	0.0	7.520000e-03	-1.496154e-02	0.0	5.040000e-03	-1.235646e-02	0.0	3.050000e-03	-9.692484e-03	0.0	1.560000e-03	-6.985089e-03	0.0	5.600000e-04	-4.213428e-03	0.0	6.000000e-05	-1.385620e-03	0.0	0.000000e+00	0.000000e+00	0.0	6.000000e-05	1.265849e-03	0.0	5.600000e-04	3.634379e-03	0.0	1.560000e-03	5.806559e-03	0.0	3.050000e-03	7.833124e-03	0.0	5.040000e-03	9.758697e-03	0.0	7.520000e-03	1.159072e-02	0.0	1.049000e-02	1.334402e-02	0.0	1.395000e-02	1.502901e-02	0.0	1.790000e-02	1.665354e-02	0.0	2.232000e-02	1.821719e-02	0.0	2.723000e-02	1.973311e-02	0.0	3.260000e-02	2.119717e-02	0.0	3.844000e-02	2.261709e-02	0.0	4.474000e-02	2.399426e-02	0.0	5.149000e-02	2.533009e-02	0.0	5.869000e-02	2.662765e-02	0.0	6.633000e-02	2.788772e-02	0.0	7.440000e-02	2.911101e-02	0.0	8.290000e-02	3.029948e-02	0.0	9.181000e-02	3.145211e-02	0.0	1.011300e-01	3.257044e-02	0.0	1.108500e-01	3.365452e-02	0.0	1.209500e-01	3.470327e-02	0.0	1.314400e-01	3.571861e-02	0.0	1.422900e-01	3.669831e-02	0.0	1.534900e-01	3.764217e-02	0.0	1.650400e-01	3.855060e-02	0.0	1.769300e-01	3.942299e-02	0.0	1.891400e-01	4.025791e-02	0.0	2.016600e-01	4.105465e-02	0.0	2.144700e-01	4.181174e-02	0.0	2.275700e-01	4.252883e-02	0.0	2.409400e-01	4.320426e-02	0.0	2.545700e-01	4.383683e-02	0.0	2.684500e-01	4.442516e-02	0.0	2.825500e-01	4.496699e-02	0.0	2.968700e-01	4.546118e-02	0.0	3.114000e-01	4.590598e-02	0.0	3.261100e-01	4.629895e-02	0.0	3.409900e-01	4.663824e-02	0.0	3.560400e-01	4.692199e-02	0.0	3.712300e-01	4.714765e-02	0.0	3.865400e-01	4.731291e-02	0.0	4.019700e-01	4.741563e-02	0.0	4.175000e-01	4.745336e-02	0.0	4.331100e-01	4.742373e-02	0.0	4.487800e-01	4.732450e-02	0.0	4.645100e-01	4.715330e-02	0.0	4.802700e-01	4.690815e-02	0.0	4.960500e-01	4.658698e-02	0.0	5.118400e-01	4.618786e-02	0.0	5.276100e-01	4.570962e-02	0.0	5.433600e-01	4.515053e-02	0.0	5.590600e-01	4.451019e-02	0.0	5.747100e-01	4.378746e-02	0.0	5.902800e-01	4.298295e-02	0.0	6.057600e-01	4.209688e-02	0.0	6.211300e-01	4.113062e-02	0.0	6.363800e-01	4.008552e-02	0.0	6.515000e-01	3.896351e-02	0.0	6.664700e-01	3.776792e-02	0.0	6.812700e-01	3.650295e-02	0.0	6.958900e-01	3.517272e-02	0.0	7.103200e-01	3.378202e-02	0.0	7.245300e-01	3.233842e-02	0.0	7.385200e-01	3.084726e-02	0.0	7.522800e-01	2.931546e-02	0.0	7.657800e-01	2.775295e-02	0.0	7.790100e-01	2.616808e-02	0.0	7.919700e-01	2.456854e-02	0.0	8.046400e-01	2.296484e-02	0.0	8.170100e-01	2.136665e-02	0.0	8.290500e-01	1.978634e-02	0.0	8.407700e-01	1.823072e-02	0.0	8.521600e-01	1.670825e-02	0.0	8.631800e-01	1.522980e-02	0.0	8.738500e-01	1.379585e-02	0.0	8.841500e-01	1.240963e-02	0.0	8.940600e-01	1.107231e-02	0.0	9.035800e-01	9.782202e-03	0.0	9.127000e-01	8.541984e-03	0.0	9.214000e-01	7.362600e-03	0.0	9.296900e-01	6.260642e-03	0.0	9.375400e-01	5.267126e-03	0.0	9.449600e-01	4.411267e-03	0.0	9.519400e-01	3.718034e-03	0.0	9.584700e-01	3.193540e-03	0.0	9.645400e-01	2.817524e-03	0.0	9.701500e-01	2.544975e-03	0.0	9.752800e-01	2.319903e-03	0.0	9.799500e-01	2.089920e-03	0.0	9.841300e-01	1.825217e-03	0.0	9.878400e-01	1.518982e-03	0.0	9.910500e-01	1.189798e-03	0.0	9.937800e-01	8.628760e-04	0.0	9.960200e-01	5.665860e-04	0.0	9.977600e-01	3.231808e-04	0.0	9.990000e-01	1.450776e-04	0.0	9.997500e-01	3.632617e-05	0.0	1.000000e+00	0.000000e+00	0.0	1.984229e+01	2.506660e+00	0.0	1.937166e+01	4.973800e+00	0.0	1.859553e+01	7.362490e+00	0.0	1.752613e+01	9.635070e+00	0.0	1.618034e+01	1.175571e+01	0.0	1.457937e+01	1.369094e+01	0.0	1.274848e+01	1.541027e+01	0.0	1.071654e+01	1.688656e+01	0.0	8.515590e+00	1.809654e+01	0.0	6.180340e+00	1.902113e+01	0.0	3.747630e+00	1.964575e+01	0.0	1.255810e+00	1.996053e+01	0.0	-1.255810e+00	1.996053e+01	0.0	-3.747630e+00	1.964574e+01	0.0	-6.180340e+00	1.902113e+01	0.0	-8.515590e+00	1.809654e+01	0.0	-1.071654e+01	1.688656e+01	0.0	-1.274848e+01	1.541026e+01	0.0	-1.457937e+01	1.369094e+01	0.0	-1.618034e+01	1.175570e+01	0.0	-1.752613e+01	9.635070e+00	0.0	-1.859553e+01	7.362490e+00	0.0	-1.937166e+01	4.973800e+00	0.0	-1.984229e+01	2.506660e+00	0.0	-2.000000e+01	0.000000e+00	0.0	-1.984229e+01	-2.506670e+00	0.0	-1.937166e+01	-4.973800e+00	0.0	-1.859553e+01	-7.362490e+00	0.0	-1.752613e+01	-9.635080e+00	0.0	-1.618034e+01	-1.175571e+01	0.0	-1.457937e+01	-1.369094e+01	0.0	-1.274848e+01	-1.541027e+01	0.0	-1.071653e+01	-1.688656e+01	0.0	-8.515580e+00	-1.809654e+01	0.0	-6.180340e+00	-1.902113e+01	0.0	-3.747620e+00	-1.964575e+01	0.0	-1.255810e+00	-1.996053e+01	0.0	1.255810e+00	-1.996053e+01	0.0	3.747630e+00	-1.964574e+01	0.0	6.180340e+00	-1.902113e+01	0.0	8.515590e+00	-1.809654e+01	0.0	1.071654e+01	-1.688656e+01	0.0	1.274848e+01	-1.541026e+01	0.0	1.457937e+01	-1.369094e+01	0.0	1.618034e+01	-1.175570e+01	0.0	1.752614e+01	-9.635070e+00	0.0	1.859553e+01	-7.362490e+00	0.0	1.937166e+01	-4.973790e+00	0.0	1.984229e+01	-2.506660e+00	0.0	2.000000e+01	0.000000e+00	0.0	6.074048e-02	-4.538863e-02	0.0	6.601886e-01	-6.005797e-02	0.0	4.255550e-01	6.166428e-02	0.0	6.897632e-01	4.905953e-02	0.0	3.791238e-01	-7.363428e-02	0.0	9.994675e-01	-7.276010e-04	0.0	9.985545e-01	-1.331470e-03	0.0	7.738140e-01	-4.743476e-02	0.0	6.898604e-01	-5.718444e-02	0.0	-1.132430e-03	5.530319e-03	0.0	7.467807e-01	-5.084310e-02	0.0	5.833308e-01	5.747688e-02	0.0	9.928162e-01	-3.736677e-03	0.0	9.899362e-01	-4.744995e-03	0.0	5.989067e-01	5.654337e-02	0.0	7.187652e-01	-5.409976e-02	0.0	-1.471653e-03	6.014048e-04	0.0	9.865729e-01	-5.907882e-03	0.0	9.827333e-01	-7.228648e-03	0.0	-1.306711e-03	-6.484024e-03	0.0	6.451053e-01	-6.140828e-02	0.0	8.244830e-01	-4.032961e-02	0.0	7.997431e-01	-4.392759e-02	0.0	3.484838e-01	6.056196e-02	0.0	8.479032e-01	-3.669714e-02	0.0	2.473696e-01	5.608449e-02	0.0	8.699433e-01	-3.305438e-02	0.0	1.045881e-02	1.739401e-02	0.0	8.904971e-01	-2.945747e-02	0.0	7.702027e-02	-4.976664e-02	0.0	9.094923e-01	-2.596130e-02	0.0	-1.770797e-03	-3.211954e-03	0.0	9.424839e-01	-1.918242e-02	0.0	9.268488e-01	-2.256788e-02	0.0	1.794374e-02	-2.754812e-02	0.0	4.257420e-01	-7.306492e-02	0.0	8.591049e-01	-3.487160e-02	0.0	9.563367e-01	-1.567732e-02	0.0	9.784094e-01	-8.728783e-03	0.0	9.683310e-01	-1.208727e-02	0.0	1.582641e-01	-6.362869e-02	0.0	9.001965e-01	-2.769482e-02	0.0	7.604302e-01	-4.915479e-02	0.0	9.971360e-01	-2.087396e-03	0.0	5.990501e-01	-6.507956e-02	0.0	4.414444e-01	-7.271530e-02	0.0	5.363197e-01	-6.901200e-02	0.0	4.730159e-01	-7.178364e-02	0.0	5.046767e-01	-7.054734e-02	0.0	4.888344e-01	-7.120239e-02	0.0	1.249495e-01	-5.912661e-02	0.0	2.784061e-02	-3.303520e-02	0.0	3.945694e-01	-7.352607e-02	0.0	4.621643e-02	-4.068866e-02	0.0	4.101102e-01	-7.333662e-02	0.0	3.187156e-01	-7.324498e-02	0.0	3.486133e-01	-7.360996e-02	0.0	3.350448e-02	-3.565137e-02	0.0	2.895116e-01	-7.254209e-02	0.0	9.348863e-01	-2.088204e-02	0.0	1.468052e-01	-6.221881e-02	0.0	1.946446e-01	-6.728156e-02	0.0	8.579480e-02	-5.182374e-02	0.0	1.045867e-01	-5.566875e-02	0.0	5.678224e-01	-6.719359e-02	0.0	1.700668e-01	-6.494468e-02	0.0	6.145276e-01	-6.391839e-02	0.0	8.804145e-01	-3.124753e-02	0.0	2.266431e-02	-3.033245e-02	0.0	9.952219e-01	-2.870368e-03	0.0	6.731774e-03	-1.885761e-02	0.0	1.848759e-02	2.157310e-02	0.0	9.183790e-01	-2.425513e-02	0.0	9.49641
[...]
POINT_DATA 5233

SCALARS Conservative_1 float 1
LOOKUP_TABLE default
1.199828e+00	1.181614e+00	1.171205e+00	1.164783e+00	1.160227e+00	1.155777e+00	1.148903e+00	1.137987e+00	1.121798e+00	1.100424e+00	1.075104e+00	1.048452e+00	1.024837e+00	1.008260e+00	9.998581e-01	9.977842e-01	9.988856e-01	1.000323e+00	1.000343e+00	9.983449e-01	9.945502e-01	9.895172e-01	9.838322e-01	9.779678e-01	9.722018e-01	9.666449e-01	9.612877e-01	9.560832e-01	9.509662e-01	9.459053e-01	9.408842e-01	9.358589e-01	9.307955e-01	9.257105e-01	9.206555e-01	9.156794e-01	9.108009e-01	9.060248e-01	9.013626e-01	8.968312e-01	8.924304e-01	8.881709e-01	8.840352e-01	8.800406e-01	8.762021e-01	8.725713e-01	8.691366e-01	8.658330e-01	8.625130e-01	8.591686e-01	8.560057e-01	8.533821e-01	8.514154e-01	8.498145e-01	8.479024e-01	8.449130e-01	8.403239e-01	8.342626e-01	8.276080e-01	8.216448e-01	8.172906e-01	8.147508e-01	8.137490e-01	8.138425e-01	8.147146e-01	8.161627e-01	8.181363e-01	8.205510e-01	8.233202e-01	8.263323e-01	8.296101e-01	8.333210e-01	8.377137e-01	8.428538e-01	8.486615e-01	8.549894e-01	8.619047e-01	8.695879e-01	8.780964e-01	8.874697e-01	8.978198e-01	9.092060e-01	9.217809e-01	9.356628e-01	9.510429e-01	9.681999e-01	9.873630e-01	1.008892e+00	1.033273e+00	1.060822e+00	1.092067e+00	1.127471e+00	1.166871e+00	1.209794e+00	1.254519e+00	1.298017e+00	1.331704e+00	1.350880e+00	1.339653e+00	1.308626e+00	1.284842e+00	1.222121e+00	1.101130e+00	1.003887e+00	9.277288e-01	8.716103e-01	8.331590e-01	8.077301e-01	7.905240e-01	7.787994e-01	7.708570e-01	7.655218e-01	7.622301e-01	7.602378e-01	7.591655e-01	7.590085e-01	7.596386e-01	7.608192e-01	7.622277e-01	7.635280e-01	7.647241e-01	7.661401e-01	7.680482e-01	7.703116e-01	7.725289e-01	7.744571e-01	7.761788e-01	7.778412e-01	7.795544e-01	7.813969e-01	7.834312e-01	7.856457e-01	7.879719e-01	7.903175e-01	7.926486e-01	7.949468e-01	7.972023e-01	7.993823e-01	8.015528e-01	8.039754e-01	8.070846e-01	8.111342e-01	8.159017e-01	8.206216e-01	8.244414e-01	8.269967e-01	8.285622e-01	8.299276e-01	8.319870e-01	8.354330e-01	8.403315e-01	8.462461e-01	8.525786e-01	8.589908e-01	8.653770e-01	8.717603e-01	8.782407e-01	8.849754e-01	8.921245e-01	8.996766e-01	9.075510e-01	9.156652e-01	9.239805e-01	9.324846e-01	9.411414e-01	9.499352e-01	9.588158e-01	9.677668e-01	9.767137e-01	9.856589e-01	9.945189e-01	1.003213e+00	1.011678e+00	1.019829e+00	1.027620e+00	1.035030e+00	1.042104e+00	1.049022e+00	1.056045e+00	1.063564e+00	1.071875e+00	1.081077e+00	1.090786e+00	1.100139e+00	1.107883e+00	1.112677e+00	1.113430e+00	1.109776e+00	1.102478e+00	1.093709e+00	1.086557e+00	1.084005e+00	1.087900e+00	1.098131e+00	1.112735e+00	1.129932e+00	1.148422e+00	1.168601e+00	1.192693e+00	1.181116e+00	9.999766e-01	9.999701e-01	9.999539e-01	9.999304e-01	9.999068e-01	9.998792e-01	9.998402e-01	9.997857e-01	9.997238e-01	9.996722e-01	9.996381e-01	9.996494e-01	9.997033e-01	9.998129e-01	9.999069e-01	9.999828e-01	1.000025e+00	1.000050e+00	1.000064e+00	1.000070e+00	1.000073e+00	1.000074e+00	1.000074e+00	1.000076e+00	1.000077e+00	1.000080e+00	1.000085e+00	1.000091e+00	1.000101e+00	1.000114e+00	1.000128e+00	1.000149e+00	1.000168e+00	1.000194e+00	1.000211e+00	1.000221e+00	1.000221e+00	1.000208e+00	1.000197e+00	1.000184e+00	1.000178e+00	1.000164e+00	1.000147e+00	1.000127e+00	1.000104e+00	1.000076e+00	1.000059e+00	1.000045e+00	1.000013e+00	9.999796e-01	9.435974e-01	9.017836e-01	8.297813e-01	9.233747e-01	8.407516e-01	1.183066e+00	1.173585e+00	9.405573e-01	9.109948e-01	1.217764e+00	9.305737e-01	8.727695e-01	1.151773e+00	1.145052e+00	8.791387e-01	9.206215e-01	1.307961e+00	1.136085e+00	1.123715e+00	1.337678e+00	8.973655e-01	9.606743e-01	9.505051e-01	8.088605e-01	9.712549e-01	7.928684e-01	9.823756e-01	8.792210e-01	9.930058e-01	9.163673e-01	1.000455e+00	1.344713e+00	1.005963e+00	1.002855e+00	1.100037e+00	8.522393e-01	9.767711e-01	1.025286e+00	1.107452e+00	1.065595e+00	8.477917e-01	9.973253e-01	9.355855e-01	1.164175e+00	8.848568e-01	8.537259e-01	8.703927e-01	8.575021e-01	8.637474e-01	8.604313e-01	8.676028e-01	1.042495e+00	8.462372e-01	9.768828e-01	8.499888e-01	8.195055e-01	8.277402e-01	1.018149e+00	8.179174e-01	1.003474e+00	8.537910e-01	8.342664e-01	9.046269e-01	8.842403e-01	8.772340e-01	8.425516e-01	8.889067e-01	9.878913e-01	1.069699e+00	1.157692e+00	1.209104e+00	8.236095e-01	1.002202e+00	1.012665e+00	1.087670e+00	1.134985e+00	9.658963e-01	8.221128e-01	8.737333e-01	9.255628e-01	9.455143e-01	8.754867e-01	8.275385e-01	8.809575e-01	9.063349e-01	9.593878e-01	1.248693e+00	1.133585e+00	8.341617e-01	8.381166e-01	1.211155e+00	8.246217e-01	8.939507e-01	8.180528e-01	8.201186e-01	8.552965e-01	9.157587e-01	1.280220e+00	1.318460e+00	8.534471e-01	1.324786e+00	7.946356e-01	7.732808e-01	7.801905e-01	7.737197e-01	8.264331e-01	1.140153e+00	8.471539e-01	8.346816e-01	1.097193e+00	1.105909e+00	1.052388e+00	8.373579e-01	8.318345e-01	8.169187e-01	1.083742e+00	1.067146e+00	7.714172e-01	1.092398e+00	1.106679e+00	1.099151e+00	7.722207e-01	7.717463e-01	7.996397e-01	7.951351e-01	7.817710e-01	8.039776e-01	8.331530e-01	8.218991e-01	7.788642e-01	7.752844e-01	8.925145e-01	7.847240e-01	7.884543e-01	9.074252e-01	8.663795e-01	9.570804e-01	9.399906e-01	9.916029e-01	9.743780e-01	1.024039e+00	1.008335e+00	1.059547e+00	1.038544e+00	1.104311e+00	1.075281e+00	1.102350e+00	1.031433e+00	1.045471e+00	1.000061e+00	1.016335e+00	9.657246e-01	9.830327e-01	9.316054e-01	9.484885e-01	8.997900e-01	9.153024e-01	8.599298e-01	8.856485e-01	7.864757e-01	7.906192e-01	7.803808e-01	7.831860e-01	7.760254e-01	7.771374e-01	8.469413e-01	7.861538e-01	8.307775e-01	9.827864e-01	1.043690e+00	9.555511e-01	8.226809e-01	8.671068e-01	1.054754e+00	8.067024e-01	9.237332e-01	7.718299e-01	7.712411e-01	7.973940e-01	7.727343e-01	1.090189e+00	1.092247e+00	8.018379e-01	1.099246e+00	1.110312e+00	8.061931e-01	8.124017e-01	1.091982e+00	1.206454e+00	1.157910e+00	1.174428e+00	8.930694e-01	9.963803e-01	1.124331e+00	8.415885e-01	1.286653e+00	1.170236e+00	9.293056e-01	8.604179e-01	8.186784e-01	7.836090e-01	1.200269e+00	1.260023e+00	8.235459e-01	9.162448e-01	1.003169e+00	1.199538e+00	8.741561e-01	9.115929e-01	9.454457e-01	1.133405e+00	8.256080e-01	9.760891e-01	9.655564e-01	9.119154e-01	1.317265e+00	8.359020e-01	1.132602e+00	1.041580e+00	8.597289e-01	9.209788e-01	9.026157e-01	8.578898e-01	9.238681e-01	8.472145e-01	9.963806e-01	9.503432e-01	9.573860e-01	8.549552e-01	9.154553e-01	1.020644e+00	7.812344e-01	9.232744e-01	7.864467e-01	1.041959e+00	1.100506e+00	8.114460e-01	8.489846e-01	1.099704e+00	1.048771e+00	1.108259e+00	1.100967e+00	1.094514e+00	7.959607e-01	8.089919e-01	7.939125e-01	7.811681e-01	9.070583e-01	8.397056e-01	9.146252e-01	7.841291e-01	7.929202e-01	1.098081e+00	1.118948e+00	1.055643e+00	8.536055e-01	1.215352e+00	1.145771e+00	1.131549e+00	1.010076e+00	1.134396e+00	1.234042e+00	1.331132e+00	1.315284e+00	1.101965e+00	1.217650e+00	9.513140e-01	1.163066e+00	1.148616e+00	8.321612e-01	8.752887e-01	1.123083e+00	9.867617e-01	8.805105e-01	1.141709e+00	1.332425e+00	8.563990e-01	8.282360e-01	9.707706e-01	8.024656e-01	9.814547e-01	9.918201e-01	9.369527e-01	1.000199e+00	1.005484e+00	1.017335e+00	1.048203e+00	1.027389e+00	1.058802e+00	1.110064e+00	8.740744e-01	9.356695e-01	9.405760e-01	1.155416e+00	8.597797e-01	8.623936e-01	8.654988e-01	1.073972e+00	8.516956e-01	8.546117e-01	8.295144e-01	1.003714e+00	1.007770e+00	1.011211e+00	8.665961e-01	9.010092e-01	8.786919e-01	8.900560e-01	1.077049e+00	1.094546e+00	9.257866e-01	9.307234e-01	8.911558e-01	8.822108e-01	8.823110e-01	8.860972e-01	9.845957e-01	9.671812e-01	1.165190e+00	8.350338e-01	8.413404e-01	8.483896e-01	8.438233e-01	8.324708e-01	8.294347e-01	8.229719e-01	8.235431e-01	8.269042e-01	1.298682e+00	1.267545e+00	7.992774e-01	1.095806e+00	8.548791e-01	8.440323e-01	8.404595e-01	8.381906e-01	1.095699e+00	1.100217e+00	1.077400e+00	8.366562e-01	8.348890e-01	8.235028e-01	1.069994e+00	1.096320e+00	7.854148e-01	7.883855e-01	7.980917e-01	8.002598e-01	7.852784e-01	7.830386e-01	7.819646e-01	9.890517e-01	9.558128e-01	9.475273e-01	9.808190e-01	1.013081e+00	1.062685e+00	1.035046e+00	1.027952e+00	1.005310e+00	9.972739e-01	9.724769e-01	9.641332e-01	9.393320e-01	9.312315e-01	9.078372e-01	9.004707e-01	8.676737e-01	8.612001e-01	8.934836e-01	8.868579e-01	7.920038e-01	7.903309e-01	7.888889e-01	7.876406e-01	8.811855e-01	8.079482e-01	8.195605e-01	9.553284e-01	9.604106e-01	8.687643e-01	8.719952e-01	1.070707e+00	8.348483e-01	7.816796e-01	7.824795e-01	8.068241e-01	8.046627e-01	8.187356e-01	8.146120e-01	1.091118e+00	1.084611e+00	8.941156e-01	8.983150e-01	1.024800e+00	1.297441e+00	8.248962e-01	1.311677e+00	8.535141e-01	8.288771e-01	9.508412e-01	8.774710e-01	1.007307e+00	1.107245e+00	1.101179e+00	1.096632e+00	1.081969e+00	1.115905e+00	1.160528e+00	1.181434e+00	1.153164e+00	1.200917e+00	1.103643e+00	1.283546e+00	9.196179e-01	1.010724e+00	1.131596e+00	8.761504e-01	1.172924e+00	1.220822e+00	9.220127e-01	1.275992e+00	9.266851e-01	1.131154e+00	9.861789e-01	1.190625e+00	8.323353e-01	9.810430e-01	9.174029e-01	1.139487e+00	1.160601e+00	1.095945e+00	8.570417e-01	1.093309e+00	9.164354e-01	1.125909e+00	8.515431e-01	8.054791e-01	8.143382e-01	7.916526e-01	7.985139e-01	1.171548e+00	1.293350e+00	1.185471e+00	9.092302e-01	1.241177e+00	1.055090e+00	9.316695e-01	1.312325e+00	8.659141e-01	8.625849e-01	1.077700e+00	9.826694e-01	1.017841e+00	9.872760e-01	9.239840e-01	1.097456e+00	1.095688e+00	1.051833e+00	1.045209e+00	8.120334e-01	8.076688e-01	7.993671e-01	7.900666e-01	9.084456e-01	9.128745e-01	8.453111e-01	9.427430e-01	7.908003e-01	1.095943e+00	1.136194e+00	1.029757e+00	1.134937e+00	1.249574e+00	1.315117e+00	1.053302e+00	1.186188e+00	1.178452e+00	1.070318e+00	1.122762e+00	8.825484e-01	8.609944e-01	8.345201e-01	9.706718e-01	9.758479e-01	9.911746e-01	9.958719e-01	9.591913e-01	9.448551e-01	1.000129e+00	1.003918e+00	1.029551e+00	1.041113e+00	1.112246e+00	9.412055e-01	9.460362e-01	1.145999e+00	8.648281e-01	8.677785e-01	8.572282e-01	8.594765e-01	1.031172e+00	1.014920e+00	1.020905e+00	8.808980e-01	8.730557e-01	8.807994e-01	8.843076e-01	1.085526e+00	1.099650e+00	9.314683e-01	9.363845e-01	9.085893e-01	8.983760e-01	8.891952e-01	8.879883e-01	8.918473e-01	1.011042e+00	9.922661e-01	9.749232e-01	8.367353e-01	8.424410e-01	8.483881e-01	8.598961e-01	8.545821e-01	8.497633e-01	8.413178e-01	8.377348e-01	8.286245e-01	8.296246e-01	8.346616e-01	8.173636e-01	8.470878e-01	8.439743e-01	1.096479e+00	8.419926e-01	8.402415e-01	8.379023e-01	8.301831e-01	1.071847e+00	8.030548e-01	8.092198e-01	8.033356e-01	8.013044e-01	7.902451e-01	7.900998e-01	7.899765e-01	9.553736e-01	1.065196e+00	1.058454e+00	1.038547e+00	1.031835e+00	1.025007e+00	1.010439e+00	1.002916e+00	9.951623e-01	9.793970e-01	9.714052e-01	9.633881e-01	9.474187e-01	9.394994e-01	9.316972e-01	9.090652e-01	8.694973e-01	8.631831e-01	9.019989e-01	8.952623e-01	8.888244e-01	7.975911e-01	7.959878e-01	7.946578e-01	7.935269e-01	7.925743e-01	8.281840e-01	8.422318e-01	9.556956e-01	9.606559e-01	9.656125e-01	8.709715e-01	8.741957e-01	8.599719e-01	8.818733e-01	7.910276e-01	7.929256e-01	7.953363e-01	8.098666e-01	8.254544e-01	8.209965e-01	8.172122e-01	1.089455e+00	1.084351e+00	1.078367e+00	8.958197e-01	8.999174e-01	9.041205e-01	8.320788e-01	8.301340e-01	1.290025e+00	9.274852e-01	1.129312e+00	1.097631e+00	8.828572e-01	1.262196e+00	1.159468e+00	1.013060e+00	1.017996e+00	1.057076e+00	1.112637e+00	8.552257e-01	1.271322e+00	9.665187e-01	1.206315e+00	1.092437e+00	1.120578e+00	1.172539e+00	9.174096e-01	1.131194e+00	1.185393e+00	1.188060e+00	9.561802e-01	8.733543e-01	1.103876e+00	8.600116e-01	9.396514e-01	8.661374e-01	8.354603e-01	1.100978e+00	8.781848e-01	1.090369e+00	1.087346e+00	9.862592e-01	7.980108e-01	8.091088e-01	1.122146e+00	8.176412e-01	9.864140e-01	1.146655e+00	1.105941e+00	1.144075e+00	1.078629e+00	1.128206e+00	9.231508e-01	1.231576e+00	9.282666e-01	9.323631e-01	1.154271e+00	1.129976e+00	1.180608e+00	1.015242e+00	8.590085e-01	8.156055e-01	1.219822e+00	1.002969e+00	9.254701e-01	1.048503e+00	8.179001e-01	8.134220e-01	8.112076e-01	9.142202e-01	9.192245e-01	1.095670e+00	1.043163e+00	1.087201e+00	1.254748e+00	1.296891e+00	1.079766e+00	1.065682e+00	1.113117e+00	8.856024e-01	9.762965e-01	9.812891e-01	9.912953e-01	9.960377e-01	9.668464e-01	9.527058e-01	1.000467e+00	1.004740e+00	1.008877e+00	1.041454e+00	1.053051e+00	9.465815e-01	9.518139e-01	1.137261e+00	8.680285e-01	8.706968e-01	8.628522e-01	8.646538e-01	1.023933e+00	1.031605e+00	8.884936e-01	8.800206e-01	8.869435e-01	1.091110e+00	1.102764e+00	9.374892e-01	9.427684e-01	9.162854e-01	9.061480e-01	8.971736e-01	8.899154e-01	8.942985e-01	1.036967e+00	1.017492e+00	9.989277e-01	9.820496e-01	8.402026e-01	8.448450e-01	8.502626e-01	8.555182e-01	8.673678e-01	8.618241e-01	8.566163e-01	8.519443e-01	8.477528e-01	8.370708e-01	8.355251e-01	8.441052e-01	8.509263e-01	1.094585e+00	1.093697e+00	8.482106e-01	8.461273e-01	8.438899e-01	8.409408e-01	8.370922e-01	8.259435e-01	8.364136e-01	8.070939e-01	8.053183e-01	7.978333e-01	7.981846e-01	7.990040e-01	7.998209e-01	1.067104e+00	1.060994e+00	1.054821e+00	1.042145e+00	1.035814e+00	1.029460e+00	1.021991e+00	1.009001e+00	1.000939e+00	9.934999e-01	9.782870e-01	9.710335e-01	9.628651e-01	9.556949e-01	9.474386e-01	9.404375e-01	9.322250e-01	8.656541e-01	8.710896e-01	9.110343e-01	9.033896e-01	8.976251e-01	8.905673e-01	8.036282e-01	8.021896e-01	8.008076e-01	7.997489e-01	7.988274e-01	7.982287e-01	8.487422e-01	8.644529e-01	9.613928e-01	9.665630e-01	9.713237e-01	8.738636e-01	8.761920e-01	8.801047e-01	8.841095e-01	9.072721e-01	9.342922e-01	8.010117e-01	8.034133e-01	8.073394e-01	8.119149e-01	8.326353e-01	8.281592e-01	8.240626e-01	8.204916e-01	1.072998e+00	1.083297e+00	1.078532e+00	8.975511e-01	9.021695e-01	9.056648e-01	9.104905e-01	8.409314e-01	8.383688e-01	8.364635e-01	1.147947e+00	1.125301e+00	1.073690e+00	1.177446e+00	1.171197e+00	9.361492e-01	9.357299e-01	1.193469e+00	1.096484e+00	1.235404e+00	1.080817e+00	8.821296e-01	8.058846e-01	1.019164e+00	1.127652e+00	1.235295e+00	1.292537e+00	1.294571e+00	1.281751e+00	1.250912e+00	1.138740e+00	8.219608e-01	1.084566e+00	1.121549e+00	1.026457e+00	9.593686e-01	8.664184e-01	1.115882e+00	1.068691e+00	1.082041e+00	8.764192e-01	8.656204e-01	9.227594e-01	9.814057e-01	8.592087e-01	8.872559e-01	8.236592e-01	1.109628e+00	9.478354e-01	1.165173e+00	1.099760e+00	1.292754e+00	1.182388e+00	1.173233e+00	1.019617e+00	1.060934e+00	1.266864e+00	9.862731e-01	1.215161e+00	1.088048e+00	1.162467e+00	1.177056e+00	1.178072e+00	1.125322e+00	8.421005e-01	8.427824e-01	1.104075e+00	8.876837e-01	1.085418e+00	1.113495e+00	9.273124e-01	1.200560e+00	8.189538e-01	8.174507e-01	8.146124e-01	9.185224e-01	1.053782e+00	1.090506e+00	1.275433e+00	1.103498e+00	9.823871e-01	9.865104e-01	9.918981e-01	9.963328e-01	9.606719e-01	9.749602e-01	1.001469e+00	1.005469e+00	1.010423e+00	1.015503e+00	1.051997e+00	1.062679e+00	9.505821e-01	1.128591e+00	8.711258e-01	8.739684e-01	8.679147e-01	8.701726e-01	1.033904e+00	1.042129e+00	8.958634e-01	8.867887e-01	1.095039e+00	1.104743e+00	9.441350e-01	9.241920e-01	9.133154e-01	9.066202e-01	8.944506e-01	1.041983e+00	1.023344e+00	1.005499e+00	9.899641e-01	8.449913e-01	8.474331e-01	8.526621e-01	8.570284e-01	8.622971e-01	8.743677e-01	8.699523e-01	8.629172e-01	8.594179e-01	8.537360e-01	1.094039e+00	1.092103e+00	1.090222e+00	8.546478e-01	8.529660e-01	8.497715e-01	8.475721e-01	8.433904e-01	8.435130e-01	8.558314e-01	8.134334e-01	8.109399e-01	8.053124e-01	8.081798e-01	8.102418e-01	1.062801e+00	1.057373e+00	1.051301e+00	1.045469e+00	1.039256e+00	1.033314e+00	1.026476e+00	1.016584e+00	1.007179e+00	9.954889e-01	9.667323e-01	9.519490e-01	9.372453e-01	9.089358e-01	8.968567e-01	8.102415e-01	8.080678e-01	8.077961e-01	8.058240e-01	8.061681e-01	8.054298e-01	8.054271e-01	8.702661e-01	8.866048e-01	9.675490e-01	9.720329e-01	9.770862e-01	8.770518e-01	8.808878e-01	9.066973e-01	9.307206e-01	9.568111e-01	8.123156e-01	8.154196e-01	8.204390e-01	8.276176e-01	8.348807e-01	8.398762e-01	8.348738e-01	8.317384e-01	8.274277e-01	1.078252e+00	1.073000e+00	9.020619e-01	9.100867e-01	8.512076e-01	8.467353e-01	8.453659e-01	8.424480e-01	1.166087e+00	1.154341e+00	1.181118e+00	1.255245e+00	1.180675e+00	1.088606e+00	1.106519e+00	1.183756e+00	1.086414e+00	1.141057e+00	1.105948e+00	1.255468e+00	1.081602e+00	1.161474e+00	8.290155e-01	1.177713e+00	1.061381e+00	1.152732e+00	1.141326e+00	1.079410e+00	8.885735e-01	1.101683e+00	8.493794e-01	1.035095e+00	1.024705e+00	9.103644e-01	9.436904e-01	8.859646e-01	1.231292e+00	8.725539e-01	9.696899e-01	9.568145e-01	8.156108e-01	1.094227e+00	1.066085e+00	1.213207e+00	1.031401e+00	1.070034e+00	1.170710e+00	1.097555e+00	1.291558e+00	1.245097e+00	1.113753e+00	9.439242e-01	8.683914e-01	8.609418e-01	1.112094e+00	1.173858e+00	1.129485e+00	1.275421e+00	1.176731e+00	1.064003e+00	1.217010e+00	1.199810e+00	8.876249e-01	1.101373e+00	1.083966e+00	1.080367e+00	8.769668e-01	8.241767e-01	8.199850e-01	9.356382e-01	1.092267e+00	1.123186e+00	1.122050e+00	9.899676e-01	9.993483e-01	9.825655e-01	1.008936e+00	1.017405e+00	1.060585e+00	1.121006e+00	8.759006e-01	1.043306e+00	1.051454e+00	8.990998e-01	1.097459e+00	9.511483e-01	9.585467e-01	9.274991e-01	9.140518e-01	8.952006e-01	1.046359e+00	1.027759e+00	1.010948e+00	9.993687e-01	8.532802e-01	8.611799e-01	8.687732e-01	8.735516e-01	8.632228e-01	1.091446e+00	1.088962e+00	8.550582e-01	8.480989e-01	8.755523e-01	8.167688e-01	8.210199e-01	1.003283e+00	1.056134e+00	1.044912e+00	1.033377e+00	1.022793e+00	1.013403e+00	9.909397e-01	9.772616e-01	9.631786e-01	9.490347e-01	9.348516e-01	9.209745e-01	9.085624e-01	8.981022e-01	8.145090e-01	8.130972e-01	8.132804e-01	8.120198e-01	8.141510e-01	8.919118e-01	9.089085e-01	9.670553e-01	9.751471e-01	9.830913e-01	8.798609e-01	8.835679e-01	9.281849e-01	9.513750e-01	9.765995e-01	1.002772e+00	8.249453e-01	8.286634e-01	8.343669e-01	8.430254e-01	8.540541e-01	8.601703e-01	8.403922e-01	8.348803e-01	1.077836e+00	1.073336e+00	9.026035e-01	9.184825e-01	9.269743e-01	8.553808e-01	8.504381e-01	1.117354e+00	1.166023e+00	1.161186e+00	1.136218e+00	1.025161e+00	1.108340e+00	1.173785e+00	1.135631e+00	1.185618e+00	1.135114e+00	1.147614e+00	1.126786e+00	1.092852e+00	1.193900e+00	1.235759e+00	1.088361e+00	9.513828e-01	8.373327e-01	1.125008e+00	1.017026e+00	1.099309e+00	8.872261e-01	1.066997e+00	1.169554e+00	8.756118e-01	1.043515e+00	9.187608e-01	8.964122e-01	1.083521e+00	1.091445e+00	1.082006e+00	1.066803e+00	1.171371e+00	1.098712e+00	1.103046e+00	1.082841e+00	8.275943e-01	8.986666e-01	9.353639e-01	9.893618e-01	1.150486e+00	1.157230e+00	1.272207e+00	1.075347e+00	1.085454e+00	1.175636e+00	1.099196e+00	1.169353e+00	1.152227e+00	8.906414e-01	1.225009e+00	9.795698e-01	9.642461e-01	1.094830e+00	1.233856e+00	1.067187e+00	1.106566e+00	9.436891e-01	1.254475e+00	1.176112e+00	1.004904e+00	1.213170e+00	1.200197e+00	8.785662e-01	1.117493e+00	1.079369e+00	8.881424e-01	8.320313e-01	9.091426e-01	1.118674e+00	1.143765e+00	9.978938e-01	1.007459e+00	1.025311e+00	1.034235e+00	1.114276e+00	8.792497e-01	1.051202e+00	1.058968e+00	8.697942e-01	9.746949e-01	9.826386e-01	9.586400e-01	9.495883e-01	9.342974e-01	9.194811e-01	1.048807e+00	8.578700e-01	8.626799e-01	9.050686e-01	8.911551e-01	9.269378e-01	1.091438e+00	8.705108e-01	8.637735e-01	8.318076e-01	1.059537e+00	1.049603e+00	1.009888e+00	1.038945e+00	1.028645e+00	1.019223e+00	9.992008e-01	9.868630e-01	9.736589e-01	9.601908e-01	9.465665e-01	9.329307e-01	9.202168e-01	8.242284e-01	8.221305e-01	8.211066e-01	8.210988e-01	8.213254e-01	8.258388e-01	9.121100e-01	9.304633e-01	9.664227e-01	9.898705e-01	8.824383e-01	8.861348e-01	9.485288e-01	9.695272e-01	9.931367e-01	1.016699e+00	1.041310e+00	8.390305e-01	8.449663e-01	8.504490e-01	8.588213e-01	8.710950e-01	8.571276e-01	8.499161e-01	8.432510e-01	1.074589e+00	1.067858e+00	9.033541e-01	9.109051e-01	8.786920e-01	8.686148e-01	8.613565e-01	8.574727e-01	1.152300e+00	1.152990e+00	1.149692e+00	1.121092e+00	1.156352e+00	1.140347e+00	1.113882e+00	1.050439e+00	1.172794e+00	1.120692e+00	1.117936e+00	1.071707e+00	1.165984e+00	1.084784e+00	8.321295e-01	1.137615e+00	1.141605e+00	1.128236e+00	1.169425e+00	1.071221e+00	9.256095e-01	1.026765e+00	1.024861e+00	9.592857e-01	1.132814e+00	1.131965e+00	1.128155e+00	1.171838e+00	1.172217e+00	8.998651e-01	9.