# vtk DataFile Version 3.0
vtk output
ASCII
DATASET UNSTRUCTURED_GRID
POINTS 200 float
9.997500e-01	-3.633244e-05	0.0	9.990000e-01	-1.454729e-04	0.0	9.977600e-01	-3.275132e-04	0.0	9.960200e-01	-5.899586e-04	0.0	9.937800e-01	-9.472090e-04	0.0	9.910500e-01	-1.422413e-03	0.0	9.878400e-01	-2.046242e-03	0.0	9.841300e-01	-2.855109e-03	0.0	9.799500e-01	-3.861391e-03	0.0	9.752800e-01	-5.062271e-03	0.0	9.701500e-01	-6.410871e-03	0.0	9.645400e-01	-7.848614e-03	0.0	9.584700e-01	-9.300026e-03	0.0	9.519400e-01	-1.070964e-02	0.0	9.449600e-01	-1.204943e-02	0.0	9.375400e-01	-1.332378e-02	0.0	9.296900e-01	-1.456003e-02	0.0	9.214000e-01	-1.579650e-02	0.0	9.127000e-01	-1.706045e-02	0.0	9.035800e-01	-1.837292e-02	0.0	8.940600e-01	-1.973754e-02	0.0	8.841500e-01	-2.114968e-02	0.0	8.738500e-01	-2.260110e-02	0.0	8.631800e-01	-2.407968e-02	0.0	8.521600e-01	-2.557478e-02	0.0	8.407700e-01	-2.708322e-02	0.0	8.290500e-01	-2.859577e-02	0.0	8.170100e-01	-3.010860e-02	0.0	8.046400e-01	-3.162089e-02	0.0	7.919700e-01	-3.312700e-02	0.0	7.790100e-01	-3.462365e-02	0.0	7.657800e-01	-3.610624e-02	0.0	7.522800e-01	-3.757221e-02	0.0	7.385200e-01	-3.901770e-02	0.0	7.245300e-01	-4.043683e-02	0.0	7.103200e-01	-4.182599e-02	0.0	6.958900e-01	-4.318259e-02	0.0	6.812700e-01	-4.450145e-02	0.0	6.664700e-01	-4.577955e-02	0.0	6.515000e-01	-4.701414e-02	0.0	6.363800e-01	-4.820190e-02	0.0	6.211300e-01	-4.933993e-02	0.0	6.057600e-01	-5.042637e-02	0.0	5.902800e-01	-5.145961e-02	0.0	5.747100e-01	-5.243761e-02	0.0	5.590600e-01	-5.335921e-02	0.0	5.433600e-01	-5.422235e-02	0.0	5.276100e-01	-5.502684e-02	0.0	5.118400e-01	-5.577108e-02	0.0	4.960500e-01	-5.645501e-02	0.0	4.802700e-01	-5.707731e-02	0.0	4.645100e-01	-5.763763e-02	0.0	4.487800e-01	-5.813550e-02	0.0	4.331100e-01	-5.856987e-02	0.0	4.175000e-01	-5.894053e-02	0.0	4.019700e-01	-5.924660e-02	0.0	3.865400e-01	-5.948721e-02	0.0	3.712300e-01	-5.966149e-02	0.0	3.560400e-01	-5.976865e-02	0.0	3.409900e-01	-5.980755e-02	0.0	3.261100e-01	-5.977709e-02	0.0	3.114000e-01	-5.967612e-02	0.0	2.968700e-01	-5.950327e-02	0.0	2.825500e-01	-5.925744e-02	0.0	2.684500e-01	-5.893734e-02	0.0	2.545700e-01	-5.854129e-02	0.0	2.409400e-01	-5.806839e-02	0.0	2.275700e-01	-5.751734e-02	0.0	2.144700e-01	-5.688684e-02	0.0	2.016600e-01	-5.617618e-02	0.0	1.891400e-01	-5.538365e-02	0.0	1.769300e-01	-5.450880e-02	0.0	1.650400e-01	-5.355075e-02	0.0	1.534900e-01	-5.250970e-02	0.0	1.422900e-01	-5.138532e-02	0.0	1.314400e-01	-5.017632e-02	0.0	1.209500e-01	-4.888240e-02	0.0	1.108500e-01	-4.750632e-02	0.0	1.011300e-01	-4.604585e-02	0.0	9.181000e-02	-4.450307e-02	0.0	8.290000e-02	-4.287905e-02	0.0	7.440000e-02	-4.117311e-02	0.0	6.633000e-02	-3.938874e-02	0.0	5.869000e-02	-3.752561e-02	0.0	5.149000e-02	-3.558571e-02	0.0	4.474000e-02	-3.357151e-02	0.0	3.844000e-02	-3.148268e-02	0.0	3.260000e-02	-2.932205e-02	0.0	2.723000e-02	-2.709327e-02	0.0	2.232000e-02	-2.479130e-02	0.0	1.790000e-02	-2.243015e-02	0.0	1.395000e-02	-1.999900e-02	0.0	1.049000e-02	-1.750914e-02	0.0	7.520000e-03	-1.496154e-02	0.0	5.040000e-03	-1.235646e-02	0.0	3.050000e-03	-9.692484e-03	0.0	1.560000e-03	-6.985089e-03	0.0	5.600000e-04	-4.213428e-03	0.0	6.000000e-05	-1.385620e-03	0.0	0.000000e+00	0.000000e+00	0.0	6.000000e-05	1.265849e-03	0.0	5.600000e-04	3.634379e-03	0.0	1.560000e-03	5.806559e-03	0.0	3.050000e-03	7.833124e-03	0.0	5.040000e-03	9.758697e-03	0.0	7.520000e-03	1.159072e-02	0.0	1.049000e-02	1.334402e-02	0.0	1.395000e-02	1.502901e-02	0.0	1.790000e-02	1.665354e-02	0.0	2.232000e-02	1.821719e-02	0.0	2.723000e-02	1.973311e-02	0.0	3.260000e-02	2.119717e-02	0.0	3.844000e-02	2.261709e-02	0.0	4.474000e-02	2.399426e-02	0.0	5.149000e-02	2.533009e-02	0.0	5.869000e-02	2.662765e-02	0.0	6.633000e-02	2.788772e-02	0.0	7.440000e-02	2.911101e-02	0.0	8.290000e-02	3.029948e-02	0.0	9.181000e-02	3.145211e-02	0.0	1.011300e-01	3.257044e-02	0.0	1.108500e-01	3.365452e-02	0.0	1.209500e-01	3.470327e-02	0.0	1.314400e-01	3.571861e-02	0.0	1.422900e-01	3.669831e-02	0.0	1.534900e-01	3.764217e-02	0.0	1.650400e-01	3.855060e-02	0.0	1.769300e-01	3.942299e-02	0.0	1.891400e-01	4.025791e-02	0.0	2.016600e-01	4.105465e-02	0.0	2.144700e-01	4.181174e-02	0.0	2.275700e-01	4.252883e-02	0.0	2.409400e-01	4.320426e-02	0.0	2.545700e-01	4.383683e-02	0.0	2.684500e-01	4.442516e-02	0.0	2.825500e-01	4.496699e-02	0.0	2.968700e-01	4.546118e-02	0.0	3.114000e-01	4.590598e-02	0.0	3.261100e-01	4.629895e-02	0.0	3.409900e-01	4.663824e-02	0.0	3.560400e-01	4.692199e-02	0.0	3.712300e-01	4.714765e-02	0.0	3.865400e-01	4.731291e-02	0.0	4.019700e-01	4.741563e-02	0.0	4.175000e-01	4.745336e-02	0.0	4.331100e-01	4.742373e-02	0.0	4.487800e-01	4.732450e-02	0.0	4.645100e-01	4.715330e-02	0.0	4.802700e-01	4.690815e-02	0.0	4.960500e-01	4.658698e-02	0.0	5.118400e-01	4.618786e-02	0.0	5.276100e-01	4.570962e-02	0.0	5.433600e-01	4.515053e-02	0.0	5.590600e-01	4.451019e-02	0.0	5.747100e-01	4.378746e-02	0.0	5.902800e-01	4.298295e-02	0.0	6.057600e-01	4.209688e-02	0.0	6.211300e-01	4.113062e-02	0.0	6.363800e-01	4.008552e-02	0.0	6.515000e-01	3.896351e-02	0.0	6.664700e-01	3.776792e-02	0.0	6.812700e-01	3.650295e-02	0.0	6.958900e-01	3.517272e-02	0.0	7.103200e-01	3.378202e-02	0.0	7.245300e-01	3.233842e-02	0.0	7.385200e-01	3.084726e-02	0.0	7.522800e-01	2.931546e-02	0.0	7.657800e-01	2.775295e-02	0.0	7.790100e-01	2.616808e-02	0.0	7.919700e-01	2.456854e-02	0.0	8.046400e-01	2.296484e-02	0.0	8.170100e-01	2.136665e-02	0.0	8.290500e-01	1.978634e-02	0.0	8.407700e-01	1.823072e-02	0.0	8.521600e-01	1.670825e-02	0.0	8.631800e-01	1.522980e-02	0.0	8.738500e-01	1.379585e-02	0.0	8.841500e-01	1.240963e-02	0.0	8.940600e-01	1.107231e-02	0.0	9.035800e-01	9.782202e-03	0.0	9.127000e-01	8.541984e-03	0.0	9.214000e-01	7.362600e-03	0.0	9.296900e-01	6.260642e-03	0.0	9.375400e-01	5.267126e-03	0.0	9.449600e-01	4.411267e-03	0.0	9.519400e-01	3.718034e-03	0.0	9.584700e-01	3.193540e-03	0.0	9.645400e-01	2.817524e-03	0.0	9.701500e-01	2.544975e-03	0.0	9.752800e-01	2.319903e-03	0.0	9.799500e-01	2.089920e-03	0.0	9.841300e-01	1.825217e-03	0.0	9.878400e-01	1.518982e-03	0.0	9.910500e-01	1.189798e-03	0.0	9.937800e-01	8.628760e-04	0.0	9.960200e-01	5.665860e-04	0.0	9.977600e-01	3.231808e-04	0.0	9.990000e-01	1.450776e-04	0.0	9.997500e-01	3.632617e-05	0.0	1.000000e+00	0.000000e+00	0.0	
CELLS 200	600
2	149	150	2	150	151	2	151	152	2	152	153	2	153	154	2	154	155	2	155	156	2	156	157	2	157	158	2	158	159	2	159	160	2	160	161	2	161	162	2	162	163	2	163	164	2	164	165	2	165	166	2	166	167	2	167	168	2	168	169	2	169	170	2	170	171	2	171	172	2	172	173	2	173	174	2	174	175	2	175	176	2	176	177	2	177	178	2	178	179	2	179	180	2	180	181	2	181	182	2	31	32	2	32	33	2	33	34	2	34	35	2	35	36	2	36	37	2	37	38	2	38	39	2	39	40	2	40	41	2	41	42	2	42	43	2	43	44	2	44	45	2	45	46	2	46	47	2	47	48	2	48	49	2	49	50	2	50	51	2	51	52	2	52	53	2	53	54	2	54	55	2	55	56	2	56	57	2	57	58	2	58	59	2	59	60	2	60	61	2	61	62	2	62	63	2	63	64	2	64	65	2	65	66	2	66	67	2	67	68	2	68	69	2	69	70	2	70	71	2	71	72	2	72	73	2	73	74	2	74	75	2	75	76	2	76	77	2	77	78	2	78	79	2	79	80	2	80	81	2	81	82	2	82	83	2	83	84	2	113	114	2	114	115	2	115	116	2	116	117	2	117	118	2	118	119	2	119	120	2	120	121	2	121	122	2	122	123	2	123	124	2	124	125	2	125	126	2	126	127	2	127	128	2	128	129	2	129	130	2	130	131	2	131	132	2	132	133	2	133	134	2	134	135	2	135	136	2	136	137	2	137	138	2	138	139	2	139	140	2	140	141	2	141	142	2	142	143	2	143	144	2	144	145	2	145	146	2	146	147	2	147	148	2	148	149	2	84	85	2	85	86	2	86	87	2	87	88	2	88	89	2	89	90	2	90	91	2	91	92	2	92	93	2	93	94	2	94	95	2	95	96	2	96	97	2	97	98	2	98	99	2	99	100	2	100	101	2	101	102	2	102	103	2	103	104	2	104	105	2	105	106	2	106	107	2	107	108	2	108	109	2	109	110	2	110	111	2	111	112	2	112	113	2	199	0	2	0	1	2	1	2	2	2	3	2	3	4	2	4	5	2	5	6	2	6	7	2	182	183	2	183	184	2	184	185	2	185	186	2	186	187	2	187	188	2	188	189	2	189	190	2	190	191	2	191	192	2	192	193	2	193	194	2	194	195	2	195	196	2	196	197	2	197	198	2	198	199	2	7	8	2	8	9	2	9	10	2	10	11	2	11	12	2	12	13	2	13	14	2	14	15	2	15	16	2	16	17	2	17	18	2	18	19	2	19	20	2	20	21	2	21	22	2	22	23	2	23	24	2	24	25	2	25	26	2	26	27	2	27	28	2	28	29	2	29	30	2	30	31	
CELL_TYPES 200
3	3	3	3	3	3	3	3	3	3	3	3	3	3	3	3	3	3	3	3	3	3	3	3	3	3	3	3	3	3	3	3	3	3	3	3	3	3	3	3	3	3	3	3	3	3	3	3	3	3	3	3	3	3	3	3	3	3	3	3	3	3	3	3	3	3	3	3	3	3	3	3	3	3	3	3	3	3	3	3	3	3	3	3	3	3	3	3	3	3	3	3	3	3	3	3	3	3	3	3	3	3	3	3	3	3	3	3	3	3	3	3	3	3	3	3	3	3	3	3	3	3	3	3	3	3	3	3	3	3	3	3	3	3	3	3	3	3	3	3	3	3	3	3	3	3	3	3	3	3	3	3	3	3	3	3	3	3	3	3	3	3	3	3	3	3	3	3	3	3	3	3	3	3	3	3	3	3	3	3	3	3	3	3	3	3	3	3	3	3	3	3	3	3	3	3	3	3	3	3	
POINT_DATA 200

SCALARS Conservative_1 float 1
LOOKUP_TABLE default
1.199828e+00	1.181614e+00	1.171205e+00	1.164783e+00	1.160227e+00	1.155777e+00	1.148903e+00	1.137987e+00	1.121798e+00	1.100424e+00	1.075104e+00	1.048452e+00	1.024837e+00	1.008260e+00	9.998581e-01	9.977842e-01	9.988856e-01	1.000323e+00	1.000343e+00	9.983449e-01	9.945502e-01	9.895172e-01	9.838322e-01	9.779678e-01	9.722018e-01	9.666449e-01	9.612877e-01	9.560832e-01	9.509662e-01	9.459053e-01	9.408842e-01	9.358589e-01	9.307955e-01	9.257105e-01	9.206555e-01	9.156794e-01	9.108009e-01	9.060248e-01	9.013626e-01	8.968312e-01	8.924304e-01	8.881709e-01	8.840352e-01	8.800406e-01	8.762021e-01	8.725713e-01	8.691366e-01	8.658330e-01	8.625130e-01	8.591686e-01	8.560057e-01	8.533821e-01	8.514154e-01	8.498145e-01	8.479024e-01	8.449130e-01	8.403239e-01	8.342626e-01	8.276080e-01	8.216448e-01	8.172906e-01	8.147508e-01	8.137490e-01	8.138425e-01	8.147146e-01	8.161627e-01	8.181363e-01	8.205510e-01	8.233202e-01	8.263323e-01	8.296101e-01	8.333210e-01	8.377137e-01	8.428538e-01	8.486615e-01	8.549894e-01	8.619047e-01	8.695879e-01	8.780964e-01	8.874697e-01	8.978198e-01	9.092060e-01	9.217809e-01	9.356628e-01	9.510429e-01	9.681999e-01	9.873630e-01	1.008892e+00	1.033273e+00	1.060822e+00	1.092067e+00	1.127471e+00	1.166871e+00	1.209794e+00	1.254519e+00	1.298017e+00	1.331704e+00	1.350880e+00	1.339653e+00	1.308626e+00	1.284842e+00	1.222121e+00	1.101130e+00	1.003887e+00	9.277288e-01	8.716103e-01	8.331590e-01	8.077301e-01	7.905240e-01	7.787994e-01	7.708570e-01	7.655218e-01	7.622301e-01	7.602378e-01	7.591655e-01	7.590085e-01	7.596386e-01	7.608192e-01	7.622277e-01	7.635280e-01	7.647241e-01	7.661401e-01	7.680482e-01	7.703116e-01	7.725289e-01	7.744571e-01	7.761788e-01	7.778412e-01	7.795544e-01	7.813969e-01	7.834312e-01	7.856457e-01	7.879719e-01	7.903175e-01	7.926486e-01	7.949468e-01	7.972023e-01	7.993823e-01	8.015528e-01	8.039754e-01	8.070846e-01	8.111342e-01	8.159017e-01	8.206216e-01	8.244414e-01	8.269967e-01	8.285622e-01	8.299276e-01	8.319870e-01	8.354330e-01	8.403315e-01	8.462461e-01	8.525786e-01	8.589908e-01	8.653770e-01	8.717603e-01	8.782407e-01	8.849754e-01	8.921245e-01	8.996766e-01	9.075510e-01	9.156652e-01	9.239805e-01	9.324846e-01	9.411414e-01	9.499352e-01	9.588158e-01	9.677668e-01	9.767137e-01	9.856589e-01	9.945189e-01	1.003213e+00	1.011678e+00	1.019829e+00	1.027620e+00	1.035030e+00	1.042104e+00	1.049022e+00	1.056045e+00	1.063564e+00	1.071875e+00	1.081077e+00	1.090786e+00	1.100139e+00	1.107883e+00	1.112677e+00	1.113430e+00	1.109776e+00	1.102478e+00	1.093709e+00	1.086557e+00	1.084005e+00	1.087900e+00	1.098131e+00	1.112735e+00	1.129932e+00	1.148422e+00	1.168601e+00	1.192693e+00	1.181116e+00	
SCALARS Conservative_2 float 1
LOOKUP_TABLE default
7.195648e-01	7.459212e-01	7.639894e-01	7.747728e-01	7.806369e-01	7.853845e-01	7.911701e-01	8.008241e-01	8.158353e-01	8.362584e-01	8.603765e-01	8.848577e-01	9.060507e-01	9.215685e-01	9.308193e-01	9.347982e-01	9.355620e-01	9.352079e-01	9.351969e-01	9.361413e-01	9.380949e-01	9.407560e-01	9.437486e-01	9.467821e-01	9.496701e-01	9.523471e-01	9.548084e-01	9.570963e-01	9.592214e-01	9.612162e-01	9.631157e-01	9.649121e-01	9.666198e-01	9.682363e-01	9.697491e-01	9.711459e-01	9.724412e-01	9.736164e-01	9.746813e-01	9.756515e-01	9.765078e-01	9.772853e-01	9.779576e-01	9.785619e-01	9.790654e-01	9.795095e-01	9.798715e-01	9.802036e-01	9.804738e-01	9.807211e-01	9.808864e-01	9.809969e-01	9.810375e-01	9.810650e-01	9.810989e-01	9.811728e-01	9.812147e-01	9.811419e-01	9.808186e-01	9.803167e-01	9.798030e-01	9.793808e-01	9.791252e-01	9.789703e-01	9.789161e-01	9.788715e-01	9.788591e-01	9.788071e-01	9.787291e-01	9.785579e-01	9.783073e-01	9.779240e-01	9.774107e-01	9.766873e-01	9.757410e-01	9.744314e-01	9.727782e-01	9.706871e-01	9.679262e-01	9.643412e-01	9.598412e-01	9.541330e-01	9.469526e-01	9.378809e-01	9.264002e-01	9.117795e-01	8.930831e-01	8.692315e-01	8.386476e-01	7.991765e-01	7.483294e-01	6.830628e-01	5.997275e-01	4.961548e-01	3.724176e-01	2.363298e-01	1.073878e-01	1.096308e-02	-2.140214e-02	5.239293e-03	7.262199e-02	2.093096e-01	4.116682e-01	5.884567e-01	7.139011e-01	7.959253e-01	8.478579e-01	8.809880e-01	9.023809e-01	9.167709e-01	9.268284e-01	9.339884e-01	9.394387e-01	9.436901e-01	9.470928e-01	9.500078e-01	9.524999e-01	9.546559e-01	9.565727e-01	9.582252e-01	9.596967e-01	9.611052e-01	9.624708e-01	9.637062e-01	9.648126e-01	9.657833e-01	9.666740e-01	9.674917e-01	9.682813e-01	9.690410e-01	9.698037e-01	9.705498e-01	9.712823e-01	9.719714e-01	9.726304e-01	9.732445e-01	9.738266e-01	9.743726e-01	9.749126e-01	9.754779e-01	9.761320e-01	9.768163e-01	9.774471e-01	9.779146e-01	9.782027e-01	9.783886e-01	9.785461e-01	9.787581e-01	9.789781e-01	9.792361e-01	9.794398e-01	9.795296e-01	9.794427e-01	9.792034e-01	9.788075e-01	9.782506e-01	9.775514e-01	9.766287e-01	9.754741e-01	9.740329e-01	9.723101e-01	9.702830e-01	9.679531e-01	9.653050e-01	9.623330e-01	9.590328e-01	9.554022e-01	9.514816e-01	9.472045e-01	9.426824e-01	9.379222e-01	9.329424e-01	9.278592e-01	9.227281e-01	9.176039e-01	9.125134e-01	9.074007e-01	9.021430e-01	8.964470e-01	8.900154e-01	8.825113e-01	8.739271e-01	8.646893e-01	8.558834e-01	8.490537e-01	8.457707e-01	8.470475e-01	8.527891e-01	8.615330e-01	8.706057e-01	8.766899e-01	8.771332e-01	8.706247e-01	8.579011e-01	8.397007e-01	8.175785e-01	7.912524e-01	7.596891e-01	7.213420e-01	6.623581e-01	
SCALARS Conservative_3 float 1
LOOKUP_TABLE default
1.010195e-01	1.066660e-01	1.128631e-01	1.197671e-01	1.301974e-01	1.448406e-01	1.633496e-01	1.838081e-01	2.030633e-01	2.171865e-01	2.229885e-01	2.188877e-01	2.058474e-01	1.876655e-01	1.690754e-01	1.537522e-01	1.433380e-01	1.375924e-01	1.351623e-01	1.344136e-01	1.340488e-01	1.333040e-01	1.318939e-01	1.298469e-01	1.273319e-01	1.245490e-01	1.216319e-01	1.186698e-01	1.156882e-01	1.126745e-01	1.096173e-01	1.064957e-01	1.032983e-01	1.000176e-01	9.663940e-02	9.317870e-02	8.963198e-02	8.601781e-02	8.234264e-02	7.861855e-02	7.485884e-02	7.107058e-02	6.727236e-02	6.346577e-02	5.965835e-02	5.584162e-02	5.201948e-02	4.820436e-02	4.441991e-02	4.067046e-02	3.691962e-02	3.311037e-02	2.921994e-02	2.523463e-02	2.118583e-02	1.711806e-02	1.307845e-02	9.056802e-03	4.945520e-03	6.027590e-04	-4.010330e-03	-8.871129e-03	-1.396699e-02	-1.928584e-02	-2.486618e-02	-3.073646e-02	-3.695344e-02	-4.353411e-02	-5.051212e-02	-5.790778e-02	-6.576875e-02	-7.416005e-02	-8.315228e-02	-9.277805e-02	-1.030800e-01	-1.141110e-01	-1.259829e-01	-1.387632e-01	-1.525282e-01	-1.674031e-01	-1.835073e-01	-2.009537e-01	-2.198992e-01	-2.404790e-01	-2.628144e-01	-2.870236e-01	-3.131765e-01	-3.412163e-01	-3.707520e-01	-4.010438e-01	-4.306033e-01	-4.563046e-01	-4.730508e-01	-4.724112e-01	-4.414803e-01	-3.649088e-01	-2.311127e-01	-3.880346e-02	1.845681e-01	3.501906e-01	4.944389e-01	6.593286e-01	7.229833e-01	6.890323e-01	6.126011e-01	5.291429e-01	4.545610e-01	3.925633e-01	3.421077e-01	3.008408e-01	2.670417e-01	2.389264e-01	2.153177e-01	1.952593e-01	1.780106e-01	1.630537e-01	1.500012e-01	1.384990e-01	1.282917e-01	1.191061e-01	1.107390e-01	1.031192e-01	9.619834e-02	8.988593e-02	8.405294e-02	7.854932e-02	7.334593e-02	6.841776e-02	6.375651e-02	5.931294e-02	5.505484e-02	5.095055e-02	4.696685e-02	4.306628e-02	3.922388e-02	3.542136e-02	3.164248e-02	2.786095e-02	2.404182e-02	2.016347e-02	1.624909e-02	1.233872e-02	8.442412e-03	4.504410e-03	4.116333e-04	-3.895224e-03	-8.408440e-03	-1.306703e-02	-1.781839e-02	-2.262084e-02	-2.745391e-02	-3.237541e-02	-3.741906e-02	-4.262549e-02	-4.794336e-02	-5.334358e-02	-5.879701e-02	-6.427268e-02	-6.972908e-02	-7.513839e-02	-8.046467e-02	-8.569026e-02	-9.075296e-02	-9.562323e-02	-1.002323e-01	-1.045562e-01	-1.085238e-01	-1.120999e-01	-1.152288e-01	-1.178664e-01	-1.199715e-01	-1.215099e-01	-1.224828e-01	-1.229154e-01	-1.228804e-01	-1.225241e-01	-1.220217e-01	-1.215518e-01	-1.211867e-01	-1.207626e-01	-1.197465e-01	-1.172404e-01	-1.121244e-01	-1.035117e-01	-9.121173e-02	-7.614835e-02	-6.048966e-02	-4.733031e-02	-3.992500e-02	-4.048549e-02	-4.910890e-02	-6.355388e-02	-8.000022e-02	-9.470569e-02	-1.049402e-01	-1.097815e-01	-1.102805e-01	-1.062004e-01	-1.003429e-01	2.581540e-03	
SCALARS Conservative_4 float 1
LOOKUP_TABLE default
3.446398e+00	3.400814e+00	3.375563e+00	3.360086e+00	3.348980e+00	3.338145e+00	3.321073e+00	3.293890e+00	3.253499e+00	3.200123e+00	3.136781e+00	3.069863e+00	3.010395e+00	2.968633e+00	2.947492e+00	2.942264e+00	2.944990e+00	2.948533e+00	2.948490e+00	2.943335e+00	2.933634e+00	2.920790e+00	2.906276e+00	2.891289e+00	2.876530e+00	2.862283e+00	2.848527e+00	2.835146e+00	2.821971e+00	2.808924e+00	2.795971e+00	2.782992e+00	2.769899e+00	2.756735e+00	2.743635e+00	2.730723e+00	2.718055e+00	2.705635e+00	2.693497e+00	2.681691e+00	2.670208e+00	2.659088e+00	2.648276e+00	2.637827e+00	2.627770e+00	2.618254e+00	2.609240e+00	2.600572e+00	2.591851e+00	2.583068e+00	2.574746e+00	2.567834e+00	2.562633e+00	2.558395e+00	2.553348e+00	2.545490e+00	2.533431e+00	2.517488e+00	2.499928e+00	2.484141e+00	2.472579e+00	2.465806e+00	2.463120e+00	2.463343e+00	2.465646e+00	2.469474e+00	2.474704e+00	2.481094e+00	2.488429e+00	2.496396e+00	2.505066e+00	2.514866e+00	2.526459e+00	2.540001e+00	2.555291e+00	2.571910e+00	2.590060e+00	2.610206e+00	2.632451e+00	2.656885e+00	2.683816e+00	2.713360e+00	2.745904e+00	2.781714e+00	2.821245e+00	2.865158e+00	2.913970e+00	2.968563e+00	3.030091e+00	3.099203e+00	3.177156e+00	3.264984e+00	3.362023e+00	3.467058e+00	3.575752e+00	3.681230e+00	3.762394e+00	3.809674e+00	3.781524e+00	3.703735e+00	3.651042e+00	3.502336e+00	3.195003e+00	2.947815e+00	2.752477e+00	2.607676e+00	2.508210e+00	2.442337e+00	2.397592e+00	2.366997e+00	2.346238e+00	2.332226e+00	2.323596e+00	2.318391e+00	2.315613e+00	2.315287e+00	2.317042e+00	2.320249e+00	2.324074e+00	2.327611e+00	2.330879e+00	2.334750e+00	2.339930e+00	2.346025e+00	2.351987e+00	2.357173e+00	2.361815e+00	2.366296e+00	2.370914e+00	2.375873e+00	2.381343e+00	2.387287e+00	2.393527e+00	2.399811e+00	2.406056e+00	2.412207e+00	2.418243e+00	2.424076e+00	2.429890e+00	2.436376e+00	2.444693e+00	2.455486e+00	2.468150e+00	2.480649e+00	2.490743e+00	2.497502e+00	2.501667e+00	2.505335e+00	2.510833e+00	2.519992e+00	2.532958e+00	2.548576e+00	2.565260e+00	2.582132e+00	2.598914e+00	2.615665e+00	2.632656e+00	2.650279e+00	2.668956e+00	2.688646e+00	2.709140e+00	2.730215e+00	2.751772e+00	2.773776e+00	2.796130e+00	2.818793e+00	2.841630e+00	2.864611e+00	2.887516e+00	2.910384e+00	2.932990e+00	2.955120e+00	2.976634e+00	2.997318e+00	3.017056e+00	3.035800e+00	3.053662e+00	3.071103e+00	3.088761e+00	3.107623e+00	3.128416e+00	3.151394e+00	3.175603e+00	3.198924e+00	3.218275e+00	3.230353e+00	3.232416e+00	3.223489e+00	3.205391e+00	3.183492e+00	3.165476e+00	3.158834e+00	3.168269e+00	3.193658e+00	3.229866e+00	3.272459e+00	3.317962e+00	3.367403e+00	3.426942e+00	3.383831e+00	
SCALARS Pressure float 1
LOOKUP_TABLE default
1.290550e+00	1.264224e+00	1.248378e+00	1.238501e+00	1.231623e+00	1.224889e+00	1.214819e+00	1.198907e+00	1.175384e+00	1.144374e+00	1.107755e+00	1.069448e+00	1.035682e+00	1.012001e+00	9.999692e-01	9.970096e-01	9.986318e-01	1.000762e+00	1.000885e+00	9.981520e-01	9.928714e-01	9.858449e-01	9.779145e-01	9.697493e-01	9.617443e-01	9.540516e-01	9.466581e-01	9.394906e-01	9.324640e-01	9.255303e-01	9.186598e-01	9.117995e-01	9.049021e-01	8.979897e-01	8.911330e-01	8.843986e-01	8.778071e-01	8.713705e-01	8.651017e-01	8.590181e-01	8.531262e-01	8.474297e-01	8.419147e-01	8.365927e-01	8.314947e-01	8.266762e-01	8.221303e-01	8.177557e-01	8.133692e-01	8.089481e-01	8.047828e-01	8.013375e-01	7.987737e-01	7.966909e-01	7.941893e-01	7.902451e-01	7.841861e-01	7.761992e-01	7.674867e-01	7.597302e-01	7.541018e-01	7.508479e-01	7.495781e-01	7.497252e-01	7.508644e-01	7.527544e-01	7.553164e-01	7.584587e-01	7.620571e-01	7.659817e-01	7.702525e-01	7.751027e-01	7.808523e-01	7.876037e-01	7.952426e-01	8.036063e-01	8.127582e-01	8.229458e-01	8.342925e-01	8.468644e-01	8.607956e-01	8.762050e-01	8.933073e-01	9.123033e-01	9.334933e-01	9.573162e-01	9.841600e-01	1.014564e+00	1.049294e+00	1.088945e+00	1.134348e+00	1.186294e+00	1.244807e+00	1.309233e+00	1.377117e+00	1.443369e+00	1.495204e+00	1.523629e+00	1.507455e+00	1.462748e+00	1.421541e+00	1.322624e+00	1.152280e+00	1.015553e+00	9.102164e-01	8.334607e-01	7.811201e-01	7.465990e-01	7.234137e-01	7.077196e-01	6.971218e-01	6.900705e-01	6.857046e-01	6.830441e-01	6.815889e-01	6.812950e-01	6.820276e-01	6.834817e-01	6.852171e-01	6.868144e-01	6.882684e-01	6.899873e-01	6.923405e-01	6.951815e-01	6.979744e-01	7.004007e-01	7.025555e-01	7.046383e-01	7.067832e-01	7.090994e-01	7.116607e-01	7.144595e-01	7.174034e-01	7.203795e-01	7.233382e-01	7.262606e-01	7.291293e-01	7.319024e-01	7.346583e-01	7.377363e-01	7.416944e-01	7.468889e-01	7.530471e-01	7.591832e-01	7.641691e-01	7.674984e-01	7.695140e-01	7.712372e-01	7.738693e-01	7.783158e-01	7.846887e-01	7.924218e-01	8.007387e-01	8.091820e-01	8.176132e-01	8.260633e-01	8.346569e-01	8.436231e-01	8.531703e-01	8.632965e-01	8.738911e-01	8.848506e-01	8.961225e-01	9.076932e-01	9.195167e-01	9.315719e-01	9.437953e-01	9.561533e-01	9.685704e-01	9.810187e-01	9.933922e-01	1.005586e+00	1.017491e+00	1.028990e+00	1.040011e+00	1.050519e+00	1.060585e+00	1.070459e+00	1.080529e+00	1.091350e+00	1.103371e+00	1.116721e+00	1.130845e+00	1.144450e+00	1.155669e+00	1.162521e+00	1.163430e+00	1.157929e+00	1.147218e+00	1.134495e+00	1.124275e+00	1.120840e+00	1.126782e+00	1.141785e+00	1.163235e+00	1.188536e+00	1.216034e+00	1.246258e+00	1.281835e+00	1.279242e+00	
SCALARS Temperature float 1
LOOKUP_TABLE default
1.075612e+00	1.069913e+00	1.065893e+00	1.063289e+00	1.061536e+00	1.059797e+00	1.057374e+00	1.053533e+00	1.047768e+00	1.039940e+00	1.030370e+00	1.020026e+00	1.010583e+00	1.003710e+00	1.000111e+00	9.992236e-01	9.997459e-01	1.000439e+00	1.000542e+00	9.998068e-01	9.983120e-01	9.962889e-01	9.939851e-01	9.915963e-01	9.892435e-01	9.869722e-01	9.847812e-01	9.826453e-01	9.805438e-01	9.784599e-01	9.763793e-01	9.742916e-01	9.721814e-01	9.700546e-01	9.679332e-01	9.658387e-01	9.637749e-01	9.617513e-01	9.597710e-01	9.578370e-01	9.559582e-01	9.541291e-01	9.523542e-01	9.506297e-01	9.489759e-01	9.474025e-01	9.459161e-01	9.444727e-01	9.430226e-01	9.415476e-01	9.401606e-01	9.390137e-01	9.381716e-01	9.374880e-01	9.366518e-01	9.352976e-01	9.331950e-01	9.304016e-01	9.273553e-01	9.246456e-01	9.226850e-01	9.215675e-01	9.211417e-01	9.212166e-01	9.216288e-01	9.223092e-01	9.232158e-01	9.243286e-01	9.255902e-01	9.269656e-01	9.284511e-01	9.301371e-01	9.321231e-01	9.344488e-01	9.370551e-01	9.399021e-01	9.429793e-01	9.463630e-01	9.501148e-01	9.542460e-01	9.587622e-01	9.637035e-01	9.691102e-01	9.750343e-01	9.815470e-01	9.887588e-01	9.967561e-01	1.005622e+00	1.015505e+00	1.026511e+00	1.038716e+00	1.052173e+00	1.066791e+00	1.082195e+00	1.097725e+00	1.111980e+00	1.122775e+00	1.127879e+00	1.125258e+00	1.117774e+00	1.106394e+00	1.082236e+00	1.046453e+00	1.011620e+00	9.811233e-01	9.562309e-01	9.375403e-01	9.243174e-01	9.151065e-01	9.087316e-01	9.043465e-01	9.014380e-01	8.996031e-01	8.984612e-01	8.978134e-01	8.976119e-01	8.978317e-01	8.983497e-01	8.989665e-01	8.995275e-01	9.000219e-01	9.006021e-01	9.014285e-01	9.024679e-01	9.034929e-01	9.043763e-01	9.051465e-01	9.058896e-01	9.066503e-01	9.074766e-01	9.083895e-01	9.093914e-01	9.104429e-01	9.115064e-01	9.125584e-01	9.135964e-01	9.146101e-01	9.155849e-01	9.165438e-01	9.176105e-01	9.189797e-01	9.207957e-01	9.229631e-01	9.251318e-01	9.268932e-01	9.280549e-01	9.287341e-01	9.292825e-01	9.301459e-01	9.316317e-01	9.337847e-01	9.363963e-01	9.391963e-01	9.420147e-01	9.448057e-01	9.475809e-01	9.503737e-01	9.532730e-01	9.563355e-01	9.595631e-01	9.629113e-01	9.663473e-01	9.698501e-01	9.734136e-01	9.770229e-01	9.806689e-01	9.843343e-01	9.879997e-01	9.916625e-01	9.952923e-01	9.988671e-01	1.002365e+00	1.005746e+00	1.008983e+00	1.012057e+00	1.014965e+00	1.017735e+00	1.020435e+00	1.023184e+00	1.026125e+00	1.029383e+00	1.032971e+00	1.036724e+00	1.040277e+00	1.043133e+00	1.044796e+00	1.044906e+00	1.043391e+00	1.040581e+00	1.037291e+00	1.034713e+00	1.033981e+00	1.035741e+00	1.039753e+00	1.045384e+00	1.051865e+00	1.058873e+00	1.066454e+00	1.074740e+00	1.083079e+00	
SCALARS Pressure_Coefficient float 1
LOOKUP_TABLE default
6.485500e-01	5.897849e-01	5.544155e-01	5.323684e-01	5.170146e-01	5.019852e-01	4.795076e-01	4.439891e-01	3.914811e-01	3.222642e-01	2.405246e-01	1.550171e-01	7.964818e-02	2.678778e-02	-6.880494e-05	-6.675078e-03	-3.053983e-03	1.700635e-03	1.975035e-03	-4.124914e-03	-1.591199e-02	-3.159612e-02	-4.929793e-02	-6.752396e-02	-8.539216e-02	-1.025633e-01	-1.190668e-01	-1.350656e-01	-1.507499e-01	-1.662270e-01	-1.815629e-01	-1.968760e-01	-2.122721e-01	-2.277016e-01	-2.430066e-01	-2.580389e-01	-2.727521e-01	-2.871194e-01	-3.011123e-01	-3.146917e-01	-3.278433e-01	-3.405587e-01	-3.528690e-01	-3.647485e-01	-3.761279e-01	-3.868835e-01	-3.970306e-01	-4.067954e-01	-4.165866e-01	-4.264551e-01	-4.357526e-01	-4.434431e-01	-4.491659e-01	-4.538150e-01	-4.593988e-01	-4.682029e-01	-4.817275e-01	-4.995553e-01	-5.190029e-01	-5.363165e-01	-5.488799e-01	-5.561432e-01	-5.589774e-01	-5.586491e-01	-5.561062e-01	-5.518875e-01	-5.461687e-01	-5.391547e-01	-5.311226e-01	-5.223624e-01	-5.128293e-01	-5.020028e-01	-4.891689e-01	-4.740988e-01	-4.570479e-01	-4.383788e-01	-4.179504e-01	-3.952103e-01	-3.698829e-01	-3.418206e-01	-3.107240e-01	-2.763280e-01	-2.381533e-01	-1.957516e-01	-1.484525e-01	-9.527638e-02	-3.535711e-02	3.250870e-02	1.100312e-01	1.985385e-01	2.998829e-01	4.158352e-01	5.464439e-01	6.902520e-01	8.417794e-01	9.896633e-01	1.105366e+00	1.168814e+00	1.132713e+00	1.032919e+00	9.409407e-01	7.201427e-01	3.399115e-01	3.471541e-02	-2.004098e-01	-3.717395e-01	-4.885712e-01	-5.656273e-01	-6.173801e-01	-6.524116e-01	-6.760674e-01	-6.918070e-01	-7.015522e-01	-7.074909e-01	-7.107390e-01	-7.113950e-01	-7.097598e-01	-7.065140e-01	-7.026403e-01	-6.990749e-01	-6.958294e-01	-6.919925e-01	-6.867399e-01	-6.803985e-01	-6.741643e-01	-6.687485e-01	-6.639387e-01	-6.592896e-01	-6.545018e-01	-6.493316e-01	-6.436144e-01	-6.373673e-01	-6.307960e-01	-6.241530e-01	-6.175487e-01	-6.110255e-01	-6.046222e-01	-5.984321e-01	-5.922807e-01	-5.854101e-01	-5.765750e-01	-5.649800e-01	-5.512342e-01	-5.375375e-01	-5.264082e-01	-5.189768e-01	-5.144777e-01	-5.106313e-01	-5.047561e-01	-4.948307e-01	-4.806056e-01	-4.633443e-01	-4.447798e-01	-4.259330e-01	-4.071135e-01	-3.882515e-01	-3.690694e-01	-3.490556e-01	-3.277448e-01	-3.051418e-01	-2.814931e-01	-2.570298e-01	-2.318693e-01	-2.060420e-01	-1.796503e-01	-1.527413e-01	-1.254570e-01	-9.787212e-02	-7.015539e-02	-4.236908e-02	-1.474962e-02	1.246818e-02	3.904225e-02	6.470958e-02	8.930953e-02	1.127662e-01	1.352350e-01	1.572736e-01	1.797530e-01	2.039055e-01	2.307380e-01	2.605376e-01	2.920641e-01	3.224332e-01	3.474763e-01	3.627699e-01	3.647989e-01	3.525212e-01	3.286114e-01	3.002114e-01	2.773989e-01	2.697323e-01	2.829961e-01	3.164841e-01	3.643630e-01	4.208397e-01	4.822181e-01	5.496840e-01	6.290949e-01	6.233090e-01	
SCALARS Mach float 1
LOOKUP_TABLE default
4.935112e-01	5.210444e-01	5.397863e-01	5.516552e-01	5.595418e-01	5.672772e-01	5.779271e-01	5.945113e-01	6.187909e-01	6.507082e-01	6.883265e-01	7.275325e-01	7.622132e-01	7.868823e-01	7.996275e-01	8.027534e-01	8.009147e-01	7.984705e-01	7.981080e-01	8.007002e-01	8.059575e-01	8.130435e-01	8.210728e-01	8.293548e-01	8.374711e-01	8.452680e-01	8.527554e-01	8.600238e-01	8.671458e-01	8.741810e-01	8.811784e-01	8.881738e-01	8.952195e-01	9.022958e-01	9.093296e-01	9.162513e-01	9.230498e-01	9.296956e-01	9.361805e-01	9.424962e-01	9.486156e-01	9.545587e-01	9.603118e-01	9.658893e-01	9.712266e-01	9.762950e-01	9.810742e-01	9.857073e-01	9.903542e-01	9.950733e-01	9.995038e-01	1.003163e+00	1.005846e+00	1.008023e+00	1.010683e+00	1.014987e+00	1.021658e+00	1.030501e+00	1.040118e+00	1.048650e+00	1.054812e+00	1.058320e+00	1.059656e+00	1.059421e+00	1.058128e+00	1.055992e+00	1.053145e+00	1.049647e+00	1.045678e+00	1.041346e+00	1.036661e+00	1.031337e+00	1.025054e+00	1.017682e+00	1.009401e+00	1.000329e+00	9.904929e-01	9.796382e-01	9.675521e-01	9.541793e-01	9.394772e-01	9.232847e-01	9.054298e-01	8.856883e-01	8.637495e-01	8.391380e-01	8.114101e-01	7.800640e-01	7.442567e-01	7.031147e-01	6.555982e-01	6.003037e-01	5.356431e-01	4.600622e-01	3.713853e-01	2.684415e-01	1.526355e-01	2.375389e-02	1.105031e-01	2.139422e-01	3.125206e-01	4.598465e-01	6.242316e-01	7.584489e-01	8.651846e-01	9.477286e-01	1.007856e+00	1.049683e+00	1.078541e+00	1.098402e+00	1.112017e+00	1.121028e+00	1.126706e+00	1.130236e+00	1.132238e+00	1.132861e+00	1.132182e+00	1.130581e+00	1.128674e+00	1.126940e+00	1.125410e+00	1.123615e+00	1.121058e+00	1.117839e+00	1.114663e+00	1.111925e+00	1.109536e+00	1.107230e+00	1.104869e+00	1.102302e+00	1.099465e+00	1.096350e+00	1.093079e+00	1.089768e+00	1.086490e+00	1.083254e+00	1.080091e+00	1.077047e+00	1.074051e+00	1.070716e+00	1.066431e+00	1.060741e+00	1.053939e+00	1.047121e+00	1.041574e+00	1.037911e+00	1.035768e+00	1.034037e+00	1.031309e+00	1.026610e+00	1.019789e+00	1.011496e+00	1.002580e+00	9.935795e-01	9.846390e-01	9.757209e-01	9.667161e-01	9.573353e-01	9.473879e-01	9.368602e-01	9.258885e-01	9.145725e-01	9.029749e-01	8.911086e-01	8.790167e-01	8.667224e-01	8.542787e-01	8.417452e-01	8.291260e-01	8.165220e-01	8.040073e-01	7.916576e-01	7.796201e-01	7.679975e-01	7.568601e-01	7.462371e-01	7.360351e-01	7.260071e-01	7.157042e-01	7.045815e-01	6.921258e-01	6.782407e-01	6.635071e-01	6.493540e-01	6.378215e-01	6.310398e-01	6.305895e-01	6.367762e-01	6.481354e-01	6.612633e-01	6.714285e-01	6.742969e-01	6.673879e-01	6.514549e-01	6.286317e-01	6.016078e-01	5.713538e-01	5.372017e-01	4.978044e-01	4.554171e-01	