# vtk DataFile Version 3.0
vtk output
ASCII
DATASET UNSTRUCTURED_GRID
POINTS 5233 float
9.997500e-01	-3.633248e-05	0.0	9.990000e-01	-1.454755e-04	0.0	9.977600e-01	-3.275417e-04	0.0	9.960200e-01	-5.901127e-04	0.0	9.937800e-01	-9.477667e-04	0.0	9.910500e-01	-1.423960e-03	0.0	9.878400e-01	-2.049773e-03	0.0	9.841300e-01	-2.862075e-03	0.0	9.799500e-01	-3.873537e-03	0.0	9.752800e-01	-5.081417e-03	0.0	9.701500e-01	-6.438505e-03	0.0	9.645400e-01	-7.885690e-03	0.0	9.584700e-01	-9.346788e-03	0.0	9.519400e-01	-1.076576e-02	0.0	9.449600e-01	-1.211425e-02	0.0	9.375400e-01	-1.339661e-02	0.0	9.296900e-01	-1.464032e-02	0.0	9.214000e-01	-1.588392e-02	0.0	9.127000e-01	-1.715482e-02	0.0	9.035800e-01	-1.847412e-02	0.0	8.940600e-01	-1.984539e-02	0.0	8.841500e-01	-2.126390e-02	0.0	8.738500e-01	-2.272130e-02	0.0	8.631800e-01	-2.420540e-02	0.0	8.521600e-01	-2.570550e-02	0.0	8.407700e-01	-2.721845e-02	0.0	8.290500e-01	-2.873503e-02	0.0	8.170100e-01	-3.025143e-02	0.0	8.046400e-01	-3.176688e-02	0.0	7.919700e-01	-3.327573e-02	0.0	7.790100e-01	-3.477473e-02	0.0	7.657800e-01	-3.625926e-02	0.0	7.522800e-01	-3.772675e-02	0.0	7.385200e-01	-3.917333e-02	0.0	7.245300e-01	-4.059311e-02	0.0	7.103200e-01	-4.198243e-02	0.0	6.958900e-01	-4.333873e-02	0.0	6.812700e-01	-4.465679e-02	0.0	6.664700e-01	-4.593362e-02	0.0	6.515000e-01	-4.716645e-02	0.0	6.363800e-01	-4.835199e-02	0.0	6.211300e-01	-4.948737e-02	0.0	6.057600e-01	-5.057079e-02	0.0	5.902800e-01	-5.160066e-02	0.0	5.747100e-01	-5.257500e-02	0.0	5.590600e-01	-5.349274e-02	0.0	5.433600e-01	-5.435187e-02	0.0	5.276100e-01	-5.515231e-02	0.0	5.118400e-01	-5.589252e-02	0.0	4.960500e-01	-5.657255e-02	0.0	4.802700e-01	-5.719118e-02	0.0	4.645100e-01	-5.774812e-02	0.0	4.487800e-01	-5.824303e-02	0.0	4.331100e-01	-5.867494e-02	0.0	4.175000e-01	-5.904371e-02	0.0	4.019700e-01	-5.934856e-02	0.0	3.865400e-01	-5.958867e-02	0.0	3.712300e-01	-5.976323e-02	0.0	3.560400e-01	-5.987151e-02	0.0	3.409900e-01	-5.991239e-02	0.0	3.261100e-01	-5.988480e-02	0.0	3.114000e-01	-5.978759e-02	0.0	2.968700e-01	-5.961940e-02	0.0	2.825500e-01	-5.937909e-02	0.0	2.684500e-01	-5.906535e-02	0.0	2.545700e-01	-5.867642e-02	0.0	2.409400e-01	-5.821137e-02	0.0	2.275700e-01	-5.766880e-02	0.0	2.144700e-01	-5.704732e-02	0.0	2.016600e-01	-5.634610e-02	0.0	1.891400e-01	-5.556332e-02	0.0	1.769300e-01	-5.469841e-02	0.0	1.650400e-01	-5.375034e-02	0.0	1.534900e-01	-5.271915e-02	0.0	1.422900e-01	-5.160436e-02	0.0	1.314400e-01	-5.040451e-02	0.0	1.209500e-01	-4.911915e-02	0.0	1.108500e-01	-4.775083e-02	0.0	1.011300e-01	-4.629718e-02	0.0	9.181000e-02	-4.476007e-02	0.0	8.290000e-02	-4.314041e-02	0.0	7.440000e-02	-4.143734e-02	0.0	6.633000e-02	-3.965419e-02	0.0	5.869000e-02	-3.779046e-02	0.0	5.149000e-02	-3.584796e-02	0.0	4.474000e-02	-3.382906e-02	0.0	3.844000e-02	-3.173328e-02	0.0	3.260000e-02	-2.956334e-02	0.0	2.723000e-02	-2.732283e-02	0.0	2.232000e-02	-2.500660e-02	0.0	1.790000e-02	-2.262875e-02	0.0	1.395000e-02	-2.017839e-02	0.0	1.049000e-02	-1.766701e-02	0.0	7.520000e-03	-1.509577e-02	0.0	5.040000e-03	-1.246524e-02	0.0	3.050000e-03	-9.774499e-03	0.0	1.560000e-03	-7.040004e-03	0.0	5.600000e-04	-4.242112e-03	0.0	6.000000e-05	-1.392042e-03	0.0	0.000000e+00	0.000000e+00	0.0	6.000000e-05	1.271949e-03	0.0	5.600000e-04	3.660798e-03	0.0	1.560000e-03	5.856021e-03	0.0	3.050000e-03	7.905629e-03	0.0	5.040000e-03	9.853293e-03	0.0	7.520000e-03	1.170576e-02	0.0	1.049000e-02	1.347760e-02	0.0	1.395000e-02	1.517913e-02	0.0	1.790000e-02	1.681819e-02	0.0	2.232000e-02	1.839437e-02	0.0	2.723000e-02	1.992099e-02	0.0	3.260000e-02	2.139400e-02	0.0	3.844000e-02	2.282131e-02	0.0	4.474000e-02	2.420445e-02	0.0	5.149000e-02	2.554500e-02	0.0	5.869000e-02	2.684618e-02	0.0	6.633000e-02	2.810890e-02	0.0	7.440000e-02	2.933402e-02	0.0	8.290000e-02	3.052361e-02	0.0	9.181000e-02	3.167673e-02	0.0	1.011300e-01	3.279503e-02	0.0	1.108500e-01	3.387860e-02	0.0	1.209500e-01	3.492643e-02	0.0	1.314400e-01	3.594044e-02	0.0	1.422900e-01	3.691844e-02	0.0	1.534900e-01	3.786022e-02	0.0	1.650400e-01	3.876619e-02	0.0	1.769300e-01	3.963567e-02	0.0	1.891400e-01	4.046724e-02	0.0	2.016600e-01	4.126012e-02	0.0	2.144700e-01	4.201281e-02	0.0	2.275700e-01	4.272489e-02	0.0	2.409400e-01	4.339465e-02	0.0	2.545700e-01	4.402083e-02	0.0	2.684500e-01	4.460202e-02	0.0	2.825500e-01	4.513592e-02	0.0	2.968700e-01	4.562135e-02	0.0	3.114000e-01	4.605654e-02	0.0	3.261100e-01	4.643905e-02	0.0	3.409900e-01	4.676702e-02	0.0	3.560400e-01	4.703862e-02	0.0	3.712300e-01	4.725134e-02	0.0	3.865400e-01	4.740294e-02	0.0	4.019700e-01	4.749132e-02	0.0	4.175000e-01	4.751413e-02	0.0	4.331100e-01	4.746911e-02	0.0	4.487800e-01	4.735414e-02	0.0	4.645100e-01	4.716697e-02	0.0	4.802700e-01	4.690574e-02	0.0	4.960500e-01	4.656855e-02	0.0	5.118400e-01	4.615361e-02	0.0	5.276100e-01	4.565989e-02	0.0	5.433600e-01	4.508581e-02	0.0	5.590600e-01	4.443113e-02	0.0	5.747100e-01	4.369481e-02	0.0	5.902800e-01	4.287760e-02	0.0	6.057600e-01	4.197984e-02	0.0	6.211300e-01	4.100295e-02	0.0	6.363800e-01	3.994838e-02	0.0	6.515000e-01	3.881810e-02	0.0	6.664700e-01	3.761546e-02	0.0	6.812700e-01	3.634466e-02	0.0	6.958900e-01	3.500984e-02	0.0	7.103200e-01	3.361574e-02	0.0	7.245300e-01	3.216987e-02	0.0	7.385200e-01	3.067752e-02	0.0	7.522800e-01	2.914554e-02	0.0	7.657800e-01	2.758377e-02	0.0	7.790100e-01	2.600049e-02	0.0	7.919700e-01	2.440330e-02	0.0	8.046400e-01	2.280266e-02	0.0	8.170100e-01	2.120817e-02	0.0	8.290500e-01	1.963214e-02	0.0	8.407700e-01	1.808137e-02	0.0	8.521600e-01	1.656430e-02	0.0	8.631800e-01	1.509174e-02	0.0	8.738500e-01	1.366413e-02	0.0	8.841500e-01	1.228460e-02	0.0	8.940600e-01	1.095422e-02	0.0	9.035800e-01	9.671129e-03	0.0	9.127000e-01	8.437926e-03	0.0	9.214000e-01	7.265528e-03	0.0	9.296900e-01	6.170675e-03	0.0	9.375400e-01	5.184645e-03	0.0	9.449600e-01	4.337027e-03	0.0	9.519400e-01	3.653059e-03	0.0	9.584700e-01	3.138861e-03	0.0	9.645400e-01	2.773797e-03	0.0	9.701500e-01	2.512150e-03	0.0	9.752800e-01	2.297029e-03	0.0	9.799500e-01	2.075344e-03	0.0	9.841300e-01	1.816828e-03	0.0	9.878400e-01	1.514719e-03	0.0	9.910500e-01	1.187928e-03	0.0	9.937800e-01	8.622004e-04	0.0	9.960200e-01	5.663993e-04	0.0	9.977600e-01	3.231462e-04	0.0	9.990000e-01	1.450745e-04	0.0	9.997500e-01	3.632613e-05	0.0	1.000000e+00	0.000000e+00	0.0	1.984229e+01	2.506660e+00	0.0	1.937166e+01	4.973800e+00	0.0	1.859553e+01	7.362490e+00	0.0	1.752613e+01	9.635070e+00	0.0	1.618034e+01	1.175571e+01	0.0	1.457937e+01	1.369094e+01	0.0	1.274848e+01	1.541027e+01	0.0	1.071654e+01	1.688656e+01	0.0	8.515590e+00	1.809654e+01	0.0	6.180340e+00	1.902113e+01	0.0	3.747630e+00	1.964575e+01	0.0	1.255810e+00	1.996053e+01	0.0	-1.255810e+00	1.996053e+01	0.0	-3.747630e+00	1.964574e+01	0.0	-6.180340e+00	1.902113e+01	0.0	-8.515590e+00	1.809654e+01	0.0	-1.071654e+01	1.688656e+01	0.0	-1.274848e+01	1.541026e+01	0.0	-1.457937e+01	1.369094e+01	0.0	-1.618034e+01	1.175570e+01	0.0	-1.752613e+01	9.635070e+00	0.0	-1.859553e+01	7.362490e+00	0.0	-1.937166e+01	4.973800e+00	0.0	-1.984229e+01	2.506660e+00	0.0	-2.000000e+01	0.000000e+00	0.0	-1.984229e+01	-2.506670e+00	0.0	-1.937166e+01	-4.973800e+00	0.0	-1.859553e+01	-7.362490e+00	0.0	-1.752613e+01	-9.635080e+00	0.0	-1.618034e+01	-1.175571e+01	0.0	-1.457937e+01	-1.369094e+01	0.0	-1.274848e+01	-1.541027e+01	0.0	-1.071653e+01	-1.688656e+01	0.0	-8.515580e+00	-1.809654e+01	0.0	-6.180340e+00	-1.902113e+01	0.0	-3.747620e+00	-1.964575e+01	0.0	-1.255810e+00	-1.996053e+01	0.0	1.255810e+00	-1.996053e+01	0.0	3.747630e+00	-1.964574e+01	0.0	6.180340e+00	-1.902113e+01	0.0	8.515590e+00	-1.809654e+01	0.0	1.071654e+01	-1.688656e+01	0.0	1.274848e+01	-1.541026e+01	0.0	1.457937e+01	-1.369094e+01	0.0	1.618034e+01	-1.175570e+01	0.0	1.752614e+01	-9.635070e+00	0.0	1.859553e+01	-7.362490e+00	0.0	1.937166e+01	-4.973790e+00	0.0	1.984229e+01	-2.506660e+00	0.0	2.000000e+01	0.000000e+00	0.0	6.073321e-02	-4.565210e-02	0.0	6.601894e-01	-6.021048e-02	0.0	4.255651e-01	6.171713e-02	0.0	6.897659e-01	4.890215e-02	0.0	3.791259e-01	-7.373996e-02	0.0	9.994677e-01	-7.276504e-04	0.0	9.985548e-01	-1.331681e-03	0.0	7.738175e-01	-4.758554e-02	0.0	6.898618e-01	-5.733935e-02	0.0	-1.148339e-03	5.569727e-03	0.0	7.467835e-01	-5.099707e-02	0.0	5.833387e-01	5.738064e-02	0.0	9.928170e-01	-3.738720e-03	0.0	9.899374e-01	-4.748776e-03	0.0	5.989140e-01	5.643512e-02	0.0	7.187673e-01	-5.425515e-02	0.0	-1.481570e-03	6.052444e-04	0.0	9.865746e-01	-5.914466e-03	0.0	9.827356e-01	-7.239346e-03	0.0	-1.323804e-03	-6.527493e-03	0.0	6.451058e-01	-6.155891e-02	0.0	8.244879e-01	-4.046880e-02	0.0	7.997473e-01	-4.407343e-02	0.0	3.484925e-01	6.068370e-02	0.0	8.479086e-01	-3.682791e-02	0.0	2.473749e-01	5.627167e-02	0.0	8.699492e-01	-3.317488e-02	0.0	1.044431e-02	1.753360e-02	0.0	8.905033e-01	-2.956593e-02	0.0	7.701567e-02	-5.002913e-02	0.0	9.094987e-01	-2.605636e-02	0.0	-1.784789e-03	-3.231869e-03	0.0	9.424898e-01	-1.924788e-02	0.0	9.268551e-01	-2.264867e-02	0.0	1.792782e-02	-2.775046e-02	0.0	4.257431e-01	-7.317231e-02	0.0	8.591105e-01	-3.499747e-02	0.0	9.563420e-01	-1.572593e-02	0.0	9.784124e-01	-8.745062e-03	0.0	9.683353e-01	-1.211846e-02	0.0	1.582677e-01	-6.383723e-02	0.0	9.002028e-01	-2.779671e-02	0.0	7.604334e-01	-4.930738e-02	0.0	9.971364e-01	-2.087906e-03	0.0	5.990500e-01	-6.522214e-02	0.0	4.414453e-01	-7.282453e-02	0.0	5.363194e-01	-6.914025e-02	0.0	4.730163e-01	-7.189800e-02	0.0	5.046767e-01	-7.066826e-02	0.0	4.888345e-01	-7.131989e-02	0.0	1.249507e-01	-5.936183e-02	0.0	2.782674e-02	-3.326631e-02	0.0	3.945712e-01	-7.363163e-02	0.0	4.620641e-02	-4.094565e-02	0.0	4.101116e-01	-7.344277e-02	0.0	3.187193e-01	-7.335933e-02	0.0	3.486162e-01	-7.371829e-02	0.0	3.349185e-02	-3.589337e-02	0.0	2.895160e-01	-7.266591e-02	0.0	9.348924e-01	-2.095534e-02	0.0	1.468081e-01	-6.243672e-02	0.0	1.946496e-01	-6.746106e-02	0.0	8.579148e-02	-5.208329e-02	0.0	1.045858e-01	-5.591831e-02	0.0	5.678220e-01	-6.732929e-02	0.0	1.700710e-01	-6.514359e-02	0.0	6.145276e-01	-6.406401e-02	0.0	8.804206e-01	-3.136221e-02	0.0	2.264935e-02	-3.055037e-02	0.0	9.952225e-01	-2.871417e-03	0.0	6.714009e-03	-1.900030e-02	0.0	1.847458e-02	2.174181e-02	0.0	9.183853e-01	-2.434316e-02	0.0	9.49647
[...]
POINT_DATA 5233

SCALARS Conservative_1 float 1
LOOKUP_TABLE default
1.199882e+00	1.181722e+00	1.171385e+00	1.165047e+00	1.160574e+00	1.156195e+00	1.149363e+00	1.138453e+00	1.122220e+00	1.100747e+00	1.075273e+00	1.048414e+00	1.024567e+00	1.007795e+00	9.992682e-01	9.971371e-01	9.982195e-01	9.996469e-01	9.996487e-01	9.976183e-01	9.937804e-01	9.887000e-01	9.829697e-01	9.770664e-01	9.712697e-01	9.656889e-01	9.603125e-01	9.550909e-01	9.499571e-01	9.448789e-01	9.398397e-01	9.347944e-01	9.297089e-01	9.246003e-01	9.195224e-01	9.145255e-01	9.096290e-01	9.048389e-01	9.001673e-01	8.956324e-01	8.912345e-01	8.869857e-01	8.828693e-01	8.789041e-01	8.751059e-01	8.715255e-01	8.681486e-01	8.649076e-01	8.616543e-01	8.583817e-01	8.552959e-01	8.527598e-01	8.509078e-01	8.494771e-01	8.478147e-01	8.451390e-01	8.408450e-01	8.349289e-01	8.281682e-01	8.218931e-01	8.171622e-01	8.142887e-01	8.130303e-01	8.129269e-01	8.136325e-01	8.149222e-01	8.167330e-01	8.189731e-01	8.215542e-01	8.243687e-01	8.274535e-01	8.309930e-01	8.352428e-01	8.402577e-01	8.459437e-01	8.521512e-01	8.589569e-01	8.665512e-01	8.749918e-01	8.843188e-01	8.946455e-01	9.060333e-01	9.186387e-01	9.325830e-01	9.480625e-01	9.653624e-01	9.847158e-01	1.006487e+00	1.031168e+00	1.059072e+00	1.090719e+00	1.126553e+00	1.166367e+00	1.209634e+00	1.254591e+00	1.298123e+00	1.331702e+00	1.350827e+00	1.339923e+00	1.309492e+00	1.286298e+00	1.224773e+00	1.105518e+00	1.008928e+00	9.324087e-01	8.753283e-01	8.358052e-01	8.094537e-01	7.914796e-01	7.791285e-01	7.706852e-01	7.649546e-01	7.613557e-01	7.591265e-01	7.578754e-01	7.575907e-01	7.581356e-01	7.592644e-01	7.606471e-01	7.619357e-01	7.631196e-01	7.645211e-01	7.664210e-01	7.686895e-01	7.709198e-01	7.728538e-01	7.745654e-01	7.761999e-01	7.778689e-01	7.796514e-01	7.816107e-01	7.837337e-01	7.859506e-01	7.881665e-01	7.903510e-01	7.924906e-01	7.945720e-01	7.965269e-01	7.983665e-01	8.003495e-01	8.030960e-01	8.073026e-01	8.132662e-01	8.203289e-01	8.269874e-01	8.318421e-01	8.345460e-01	8.358593e-01	8.370438e-01	8.392421e-01	8.429819e-01	8.481602e-01	8.542603e-01	8.607855e-01	8.673772e-01	8.739016e-01	8.804223e-01	8.871337e-01	8.942323e-01	9.017230e-01	9.095244e-01	9.175572e-01	9.257868e-01	9.342050e-01	9.427760e-01	9.514850e-01	9.602821e-01	9.691526e-01	9.780225e-01	9.868952e-01	9.956875e-01	1.004319e+00	1.012726e+00	1.020824e+00	1.028563e+00	1.035921e+00	1.042943e+00	1.049809e+00	1.056783e+00	1.064257e+00	1.072536e+00	1.081718e+00	1.091418e+00	1.100763e+00	1.108484e+00	1.113227e+00	1.113880e+00	1.110066e+00	1.102551e+00	1.093528e+00	1.086138e+00	1.083419e+00	1.087262e+00	1.097555e+00	1.112289e+00	1.129629e+00	1.148241e+00	1.168511e+00	1.192659e+00	1.181126e+00	9.999773e-01	9.999724e-01	9.999576e-01	9.999355e-01	9.999135e-01	9.998877e-01	9.998507e-01	9.997986e-01	9.997391e-01	9.996892e-01	9.996561e-01	9.996669e-01	9.997192e-01	9.998252e-01	9.999162e-01	9.999893e-01	1.000029e+00	1.000053e+00	1.000066e+00	1.000072e+00	1.000074e+00	1.000075e+00	1.000075e+00	1.000076e+00	1.000077e+00	1.000080e+00	1.000085e+00	1.000091e+00	1.000100e+00	1.000113e+00	1.000127e+00	1.000147e+00	1.000164e+00	1.000189e+00	1.000203e+00	1.000210e+00	1.000206e+00	1.000191e+00	1.000178e+00	1.000167e+00	1.000162e+00	1.000150e+00	1.000136e+00	1.000118e+00	1.000096e+00	1.000071e+00	1.000055e+00	1.000042e+00	1.000011e+00	9.999792e-01	9.407335e-01	9.006141e-01	8.336236e-01	9.251630e-01	8.413734e-01	1.183142e+00	1.173718e+00	9.395315e-01	9.098449e-01	1.219735e+00	9.295042e-01	8.747978e-01	1.152096e+00	1.145416e+00	8.812621e-01	9.195070e-01	1.308769e+00	1.136466e+00	1.124079e+00	1.337706e+00	8.961943e-01	9.597225e-01	9.495165e-01	8.050686e-01	9.703466e-01	7.908178e-01	9.815312e-01	8.817260e-01	9.922473e-01	9.133814e-01	9.997777e-01	1.344843e+00	1.005409e+00	1.002227e+00	1.098838e+00	8.519866e-01	9.758915e-01	1.024977e+00	1.107760e+00	1.065657e+00	8.452794e-01	9.966102e-01	9.345388e-01	1.164371e+00	8.837250e-01	8.532640e-01	8.694437e-01	8.568197e-01	8.629228e-01	8.596751e-01	8.647785e-01	1.040617e+00	8.466184e-01	9.742835e-01	8.500354e-01	8.191368e-01	8.281154e-01	1.015985e+00	8.170430e-01	1.002871e+00	8.511722e-01	8.321890e-01	9.016245e-01	8.812793e-01	8.761773e-01	8.401565e-01	8.877532e-01	9.870883e-01	1.068146e+00	1.157955e+00	1.208887e+00	8.246988e-01	1.001553e+00	1.012205e+00	1.087878e+00	1.137937e+00	9.649646e-01	8.207541e-01	8.727277e-01	9.244700e-01	9.445074e-01	8.725814e-01	8.258393e-01	8.798580e-01	9.051728e-01	9.566367e-01	1.248665e+00	1.132749e+00	8.347882e-01	8.358656e-01	1.211189e+00	8.230993e-01	8.909575e-01	8.173944e-01	8.189154e-01	8.547034e-01	9.146250e-01	1.281471e+00	1.318492e+00	8.550808e-01	1.325281e+00	7.945973e-01	7.720491e-01	7.794043e-01	7.721144e-01	8.274607e-01	1.139955e+00	8.492908e-01	8.403717e-01	1.097151e+00	1.106217e+00	1.053130e+00	8.418513e-01	8.375423e-01	8.134206e-01	1.084350e+00	1.067807e+00	7.698998e-01	1.092164e+00	1.107106e+00	1.099709e+00	7.706531e-01	7.703781e-01	7.971368e-01	7.929479e-01	7.801638e-01	8.010313e-01	8.394041e-01	8.201527e-01	7.772705e-01	7.736725e-01	8.945902e-01	7.830332e-01	7.866178e-01	9.093737e-01	8.682000e-01	9.585396e-01	9.416121e-01	9.927697e-01	9.756835e-01	1.024978e+00	1.009381e+00	1.060245e+00	1.039383e+00	1.104819e+00	1.075912e+00	1.102498e+00	1.032322e+00	1.046260e+00	1.001165e+00	1.017326e+00	9.671055e-01	9.842669e-01	9.333100e-01	9.500284e-01	9.018067e-01	9.171738e-01	8.615395e-01	8.877708e-01	7.847200e-01	7.886857e-01	7.787889e-01	7.815455e-01	7.749839e-01	7.755328e-01	8.487220e-01	7.856985e-01	8.288899e-01	9.864106e-01	1.043569e+00	9.545807e-01	8.226783e-01	8.662180e-01	1.058317e+00	8.071780e-01	9.269263e-01	7.702818e-01	7.697804e-01	7.950541e-01	7.711472e-01	1.089800e+00	1.091775e+00	7.991488e-01	1.098778e+00	1.109913e+00	8.028620e-01	8.083704e-01	1.092569e+00	1.206441e+00	1.157794e+00	1.174375e+00	8.919032e-01	9.939757e-01	1.124032e+00	8.447560e-01	1.286699e+00	1.169739e+00	9.263646e-01	8.576928e-01	8.176311e-01	7.822369e-01	1.202108e+00	1.261311e+00	8.225381e-01	9.151358e-01	1.002542e+00	1.199293e+00	8.760325e-01	9.104695e-01	9.444604e-01	1.133708e+00	8.253635e-01	9.752364e-01	9.646518e-01	9.091083e-01	1.317375e+00	8.340917e-01	1.131820e+00	1.041401e+00	8.572178e-01	9.198872e-01	9.014763e-01	8.573497e-01	9.210909e-01	8.476615e-01	9.956803e-01	9.493771e-01	9.599548e-01	8.560306e-01	9.172970e-01	1.021577e+00	7.796789e-01	9.250360e-01	7.848648e-01	1.042745e+00	1.100159e+00	8.079495e-01	8.515647e-01	1.100111e+00	1.049511e+00	1.107929e+00	1.101281e+00	1.094291e+00	7.940067e-01	8.059140e-01	7.920640e-01	7.796407e-01	9.059245e-01	8.377202e-01	9.167578e-01	7.825553e-01	7.920187e-01	1.098137e+00	1.118674e+00	1.056340e+00	8.511868e-01	1.215349e+00	1.145637e+00	1.131344e+00	1.012866e+00	1.136798e+00	1.233983e+00	1.331426e+00	1.315864e+00	1.100873e+00	1.217672e+00	9.486810e-01	1.163215e+00	1.148865e+00	8.346639e-01	8.743236e-01	1.123380e+00	9.859792e-01	8.825214e-01	1.141995e+00	1.332587e+00	8.560198e-01	8.279761e-01	9.698898e-01	8.000870e-01	9.806347e-01	9.910785e-01	9.342328e-01	9.995373e-01	1.004887e+00	1.016898e+00	1.046518e+00	1.027066e+00	1.058771e+00	1.110326e+00	8.713940e-01	9.346434e-01	9.395714e-01	1.155618e+00	8.591341e-01	8.616685e-01	8.647058e-01	1.072575e+00	8.518630e-01	8.544734e-01	8.296416e-01	1.001542e+00	1.007207e+00	1.010696e+00	8.639999e-01	8.981959e-01	8.776767e-01	8.889389e-01	1.077146e+00	1.094742e+00	9.247150e-01	9.296741e-01	8.883616e-01	8.794622e-01	8.812524e-01	8.850042e-01	9.822369e-01	9.646679e-01	1.164696e+00	8.354768e-01	8.419087e-01	8.460881e-01	8.416694e-01	8.308320e-01	8.279586e-01	8.221542e-01	8.229743e-01	8.255830e-01	1.299525e+00	1.267599e+00	7.986438e-01	1.095491e+00	8.567274e-01	8.477585e-01	8.454204e-01	8.440240e-01	1.095607e+00	1.100413e+00	1.077989e+00	8.425291e-01	8.396425e-01	8.209662e-01	1.070615e+00	1.096794e+00	7.841513e-01	7.872765e-01	7.960130e-01	7.980370e-01	7.837044e-01	7.814644e-01	7.803940e-01	9.902124e-01	9.572572e-01	9.490495e-01	9.820459e-01	1.014066e+00	1.063341e+00	1.035880e+00	1.028835e+00	1.006349e+00	9.983718e-01	9.737732e-01	9.655027e-01	9.409323e-01	9.329123e-01	9.097513e-01	9.024490e-01	8.693555e-01	8.627994e-01	8.955112e-01	8.889105e-01	7.902409e-01	7.886379e-01	7.872486e-01	7.860379e-01	8.827965e-01	8.076511e-01	8.196674e-01	9.543817e-01	9.594843e-01	8.679100e-01	8.710839e-01	1.073428e+00	8.354163e-01	7.801885e-01	7.810359e-01	8.040595e-01	8.021122e-01	8.150437e-01	8.107637e-01	1.091640e+00	1.085168e+00	8.929835e-01	8.971760e-01	1.022853e+00	1.297535e+00	8.237272e-01	1.311933e+00	8.537863e-01	8.279148e-01	9.499025e-01	8.765427e-01	1.006739e+00	1.106999e+00	1.100941e+00	1.096853e+00	1.084191e+00	1.115685e+00	1.160442e+00	1.181416e+00	1.153318e+00	1.200927e+00	1.102676e+00	1.284334e+00	9.170062e-01	1.010195e+00	1.131833e+00	8.778757e-01	1.173031e+00	1.220759e+00	9.209492e-01	1.276128e+00	9.256405e-01	1.130451e+00	9.854217e-01	1.190388e+00	8.322034e-01	9.802511e-01	9.163236e-01	1.139704e+00	1.160148e+00	1.095837e+00	8.592213e-01	1.093699e+00	9.182326e-01	1.125736e+00	8.546339e-01	8.032351e-01	8.111475e-01	7.901090e-01	7.973877e-01	1.171510e+00	1.293532e+00	1.187090e+00	9.107548e-01	1.242370e+00	1.055002e+00	9.291018e-01	1.312881e+00	8.635022e-01	8.619760e-01	1.076468e+00	9.848531e-01	1.018758e+00	9.884181e-01	9.257039e-01	1.097264e+00	1.096002e+00	1.052521e+00	1.045940e+00	8.091933e-01	8.052619e-01	7.975197e-01	7.885994e-01	9.073443e-01	9.117820e-01	8.434063e-01	9.446496e-01	7.892661e-01	1.095942e+00	1.136060e+00	1.032052e+00	1.136938e+00	1.249632e+00	1.315480e+00	1.051809e+00	1.186229e+00	1.178515e+00	1.070339e+00	1.123001e+00	8.844239e-01	8.605137e-01	8.356674e-01	9.698209e-01	9.750248e-01	9.904554e-01	9.951920e-01	9.567879e-01	9.423557e-01	9.994877e-01	1.003314e+00	1.029230e+00	1.040904e+00	1.112467e+00	9.402272e-01	9.450777e-01	1.146183e+00	8.641299e-01	8.670110e-01	8.572105e-01	8.591912e-01	1.029440e+00	1.014439e+00	1.020492e+00	8.783621e-01	8.705812e-01	8.798239e-01	8.832899e-01	1.085638e+00	1.099829e+00	9.304441e-01	9.353843e-01	9.059598e-01	8.957496e-01	8.865988e-01	8.869351e-01	8.907687e-01	1.009104e+00	9.901452e-01	9.726465e-01	8.369508e-01	8.428900e-01	8.488518e-01	8.575717e-01	8.523786e-01	8.477032e-01	8.395724e-01	8.361469e-01	8.278742e-01	8.291504e-01	8.332271e-01	8.169173e-01	8.513674e-01	8.492968e-01	1.096593e+00	8.477686e-01	8.454962e-01	8.415142e-01	8.288317e-01	1.072418e+00	8.021054e-01	8.084970e-01	8.012405e-01	7.993439e-01	7.887216e-01	7.885901e-01	7.884825e-01	9.567882e-01	1.065805e+00	1.059101e+00	1.039323e+00	1.032656e+00	1.025876e+00	1.011407e+00	1.003939e+00	9.962435e-01	9.806034e-01	9.726780e-01	9.647315e-01	9.489080e-01	9.410633e-01	9.333396e-01	9.109307e-01	8.710926e-01	8.648754e-01	9.039255e-01	8.972246e-01	8.907854e-01	7.958382e-01	7.943087e-01	7.930360e-01	7.919435e-01	7.910162e-01	8.280665e-01	8.424958e-01	9.547767e-01	9.597588e-01	9.647377e-01	8.701457e-01	8.733167e-01	8.606532e-01	8.829781e-01	7.896093e-01	7.915772e-01	7.940806e-01	8.072763e-01	8.224037e-01	8.173256e-01	8.136445e-01	1.089903e+00	1.084846e+00	1.078902e+00	8.947241e-01	8.988137e-01	9.030148e-01	8.307938e-01	8.290020e-01	1.290327e+00	9.250764e-01	1.129194e+00	1.097535e+00	8.819182e-01	1.263058e+00	1.159586e+00	1.012563e+00	1.017548e+00	1.055760e+00	1.112475e+00	8.587363e-01	1.271549e+00	9.681717e-01	1.206248e+00	1.092672e+00	1.120434e+00	1.173984e+00	9.191634e-01	1.132870e+00	1.185396e+00	1.188082e+00	9.552874e-01	8.710567e-01	1.103025e+00	8.600866e-01	9.372956e-01	8.655782e-01	8.345548e-01	1.100833e+00	8.797317e-01	1.090678e+00	1.087719e+00	9.873697e-01	7.965230e-01	8.070106e-01	1.122334e+00	8.168680e-01	9.856888e-01	1.146563e+00	1.105774e+00	1.144219e+00	1.078674e+00	1.127576e+00	9.221148e-01	1.231639e+00	9.272540e-01	9.313636e-01	1.153855e+00	1.130157e+00	1.180382e+00	1.016142e+00	8.615948e-01	8.129762e-01	1.220988e+00	1.004790e+00	9.271335e-01	1.049173e+00	8.149994e-01	8.110005e-01	8.089525e-01	9.131570e-01	9.181795e-01	1.095647e+00	1.045035e+00	1.089017e+00	1.254908e+00	1.297296e+00	1.078683e+00	1.065648e+00	1.113296e+00	8.872923e-01	9.755076e-01	9.805298e-01	9.906053e-01	9.953853e-01	9.646711e-01	9.504287e-01	9.998520e-01	1.004163e+00	1.008339e+00	1.041233e+00	1.052926e+00	9.456490e-01	9.509073e-01	1.137427e+00	8.673621e-01	8.699532e-01	8.626662e-01	8.642484e-01	1.023546e+00	1.031294e+00	8.861142e-01	8.776732e-01	8.859671e-01	1.091218e+00	1.102916e+00	9.365173e-01	9.418222e-01	9.138404e-01	9.036964e-01	8.947525e-01	8.888991e-01	8.932598e-01	1.035444e+00	1.015780e+00	9.970336e-01	9.799984e-01	8.401518e-01	8.450772e-01	8.506249e-01	8.558160e-01	8.651642e-01	8.597335e-01	8.546567e-01	8.501196e-01	8.460715e-01	8.366912e-01	8.348524e-01	8.425671e-01	8.555473e-01	1.094647e+00	1.093848e+00	8.535162e-01	8.514019e-01	8.481467e-01	8.432880e-01	8.371154e-01	8.254139e-01	8.361648e-01	8.051339e-01	8.034832e-01	7.963661e-01	7.967427e-01	7.975880e-01	7.984375e-01	1.067655e+00	1.061583e+00	1.055451e+00	1.042858e+00	1.036568e+00	1.030258e+00	1.022838e+00	1.009940e+00	1.001937e+00	9.945598e-01	9.794673e-01	9.722690e-01	9.641773e-01	9.570648e-01	9.488897e-01	9.419485e-01	9.338233e-01	8.675794e-01	8.726504e-01	9.128478e-01	9.052696e-01	8.994998e-01	8.924087e-01	8.018922e-01	8.005357e-01	7.992117e-01	7.981961e-01	7.972989e-01	7.967206e-01	8.487979e-01	8.648396e-01	9.605288e-01	9.657229e-01	9.705070e-01	8.730606e-01	8.753426e-01	8.792121e-01	8.848536e-01	9.083611e-01	9.356861e-01	7.996815e-01	8.021723e-01	8.062225e-01	8.109494e-01	8.306466e-01	8.250230e-01	8.206462e-01	8.172633e-01	1.073510e+00	1.083724e+00	1.079004e+00	8.964889e-01	9.011031e-01	9.045902e-01	9.094251e-01	8.395386e-01	8.371223e-01	8.353739e-01	1.147579e+00	1.125195e+00	1.073688e+00	1.177429e+00	1.170997e+00	9.351935e-01	9.335251e-01	1.193412e+00	1.096459e+00	1.235574e+00	1.079870e+00	8.799612e-01	8.044728e-01	1.020693e+00	1.129090e+00	1.236188e+00	1.293156e+00	1.295137e+00	1.282427e+00	1.251162e+00	1.138877e+00	8.193291e-01	1.084619e+00	1.121696e+00	1.026098e+00	9.585219e-01	8.663289e-01	1.115775e+00	1.069182e+00	1.082394e+00	8.779804e-01	8.682217e-01	9.244280e-01	9.825151e-01	8.632224e-01	8.863381e-01	8.207442e-01	1.109518e+00	9.456964e-01	1.165128e+00	1.099689e+00	1.293290e+00	1.182432e+00	1.173306e+00	1.019194e+00	1.059792e+00	1.267201e+00	9.876955e-01	1.215227e+00	1.088288e+00	1.163753e+00	1.177067e+00	1.178088e+00	1.124772e+00	8.414976e-01	8.419287e-01	1.103976e+00	8.891305e-01	1.085718e+00	1.113637e+00	9.263202e-01	1.201659e+00	8.165163e-01	8.152053e-01	8.125163e-01	9.175012e-01	1.055344e+00	1.092035e+00	1.275862e+00	1.102760e+00	9.816666e-01	9.858131e-01	9.912438e-01	9.957075e-01	9.586152e-01	9.730221e-01	1.000889e+00	1.004918e+00	1.009919e+00	1.015044e+00	1.051853e+00	1.062610e+00	9.496949e-01	1.128733e+00	8.704980e-01	8.732503e-01	8.676040e-01	8.696847e-01	1.033612e+00	1.041909e+00	8.936381e-01	8.845524e-01	1.095135e+00	1.104868e+00	9.432190e-01	9.219416e-01	9.110276e-01	9.043740e-01	8.934635e-01	1.040660e+00	1.021838e+00	1.003823e+00	9.881539e-01	8.446578e-01	8.474132e-01	8.528251e-01	8.572936e-01	8.624419e-01	8.722702e-01	8.679644e-01	8.610377e-01	8.576599e-01	8.521069e-01	1.094073e+00	1.092206e+00	1.090395e+00	8.595309e-01	8.579613e-01	8.543021e-01	8.505315e-01	8.444897e-01	8.431674e-01	8.557576e-01	8.114948e-01	8.091187e-01	8.039250e-01	8.068490e-01	8.089614e-01	1.063325e+00	1.057942e+00	1.051904e+00	1.046119e+00	1.039940e+00	1.034046e+00	1.027248e+00	1.017428e+00	1.008087e+00	9.964870e-01	9.679649e-01	9.533095e-01	9.387472e-01	9.107275e-01	8.985608e-01	8.085377e-01	8.064400e-01	8.062379e-01	8.043022e-01	8.046804e-01	8.039598e-01	8.039832e-01	8.704723e-01	8.870873e-01	9.667443e-01	9.712468e-01	9.763342e-01	8.762612e-01	8.800417e-01	9.074629e-01	9.317592e-01	9.580666e-01	8.111013e-01	8.143084e-01	8.194756e-01	8.268411e-01	8.343045e-01	8.390086e-01	8.324854e-01	8.287744e-01	8.243348e-01	1.078654e+00	1.073445e+00	9.010336e-01	9.090504e-01	8.497086e-01	8.453797e-01	8.441521e-01	8.414016e-01	1.166193e+00	1.154260e+00	1.181074e+00	1.255978e+00	1.180703e+00	1.088658e+00	1.106456e+00	1.184788e+00	1.086597e+00	1.141177e+00	1.106051e+00	1.255907e+00	1.080787e+00	1.161301e+00	8.263257e-01	1.177713e+00	1.062696e+00	1.153876e+00	1.141007e+00	1.079424e+00	8.877070e-01	1.101637e+00	8.486941e-01	1.034820e+00	1.024342e+00	9.093670e-01	9.416975e-01	8.839484e-01	1.231553e+00	8.722484e-01	9.678734e-01	9.549118e-01	8.143305e-01	1.094252e+00	1.066531e+00	1.214111e+00	1.032690e+00	1.070001e+00	1.170682e+00	1.097539e+00	1.292140e+00	1.245445e+00	1.113866e+00	9.430322e-01	8.717892e-01	8.655537e-01	1.112024e+00	1.173872e+00	1.129400e+00	1.275944e+00	1.176786e+00	1.063024e+00	1.217184e+00	1.199882e+00	8.889926e-01	1.100734e+00	1.084202e+00	1.080654e+00	8.789416e-01	8.218483e-01	8.179841e-01	9.347083e-01	1.093562e+00	1.124423e+00	1.121581e+00	9.893248e-01	9.987757e-01	9.808514e-01	1.008440e+00	1.016981e+00	1.060496e+00	1.121123e+00	8.752863e-01	1.043096e+00	1.051304e+00	8.970080e-01	1.097541e+00	9.502919e-01	9.577258e-01	9.254177e-01	9.119768e-01	8.942736e-01	1.045218e+00	1.026444e+00	1.009465e+00	9.977992e-01	8.530869e-01	8.612950e-01	8.687814e-01	8.717011e-01	8.615840e-01	1.091520e+00	1.089089e+00	8.588771e-01	8.489518e-01	8.756145e-01	8.150331e-01	8.198574e-01	1.004179e+00	1.056656e+00	1.045515e+00	1.034063e+00	1.023549e+00	1.014225e+00	9.919311e-01	9.783650e-01	9.643982e-01	9.503761e-01	9.363490e-01	9.226433e-01	9.102639e-01	8.995950e-01	8.129488e-01	8.116282e-01	8.118568e-01	8.106133e-01	8.127999e-01	8.922291e-01	9.094553e-01	9.662759e-01	9.744097e-01	9.824055e-01	8.790923e-01	8.827445e-01	9.289402e-01	9.523287e-01	9.777091e-01	1.003990e+00	8.238808e-01	8.277121e-01	8.335731e-01	8.424338e-01	8.536974e-01	8.599808e-01	8.385733e-01	8.321487e-01	1.078172e+00	1.073713e+00	9.016253e-01	9.174943e-01	9.260109e-01	8.539917e-01	8.493512e-01	1.117285e+00	1.166105e+00	1.161285e+00	1.136137e+00	1.023945e+00	1.108299e+00	1.173793e+00	1.135747e+00	1.185700e+00	1.134851e+00	1.147728e+00	1.126899e+00	1.093967e+00	1.194774e+00	1.236197e+00	1.088459e+00	9.505559e-01	8.348385e-01	1.124931e+00	1.016618e+00	1.098765e+00	8.873006e-01	1.068119e+00	1.169530e+00	8.754298e-01	1.043314e+00	9.178098e-01	8.955392e-01	1.083542e+00	1.091494e+00	1.081317e+00	1.065986e+00	1.171354e+00	1.098708e+00	1.103022e+00	1.083025e+00	8.255496e-01	9.000244e-01	9.344635e-01	9.878413e-01	1.150414e+00	1.157177e+00	1.272822e+00	1.075334e+00	1.085595e+00	1.175656e+00	1.099266e+00	1.170308e+00	1.152086e+00	8.898107e-01	1.225358e+00	9.779920e-01	9.625520e-01	1.094853e+00	1.234625e+00	1.067134e+00	1.106651e+00	9.428244e-01	1.255003e+00	1.176157e+00	1.003530e+00	1.213435e+00	1.200375e+00	8.811650e-01	1.117096e+00	1.079600e+00	8.897085e-01	8.296804e-01	9.106915e-01	1.119754e+00	1.144790e+00	9.973370e-01	1.006975e+00	1.024969e+00	1.033964e+00	1.114371e+00	8.787737e-01	1.051054e+00	1.058869e+00	8.697870e-01	9.739864e-01	9.819786e-01	9.578491e-01	9.477849e-01	9.324224e-01	9.175667e-01	1.047829e+00	8.573264e-01	8.625339e-01	9.031471e-01	8.893052e-01	9.260072e-01	1.091496e+00	8.744177e-01	8.678051e-01	8.307593e-01	1.059978e+00	1.050122e+00	1.010698e+00	1.039544e+00	1.029320e+00	1.019964e+00	1.000092e+00	9.878534e-01	9.747569e-01	9.613971e-01	9.478995e-01	9.344308e-01	9.218410e-01	8.224623e-01	8.205703e-01	8.196648e-01	8.197233e-01	8.200135e-01	8.246472e-01	9.124872e-01	9.310324e-01	9.656700e-01	9.892579e-01	8.817411e-01	8.853412e-01	9.492494e-01	9.703834e-01	9.941087e-01	1.017748e+00	1.042410e+00	8.381387e-01	8.442160e-01	8.498461e-01	8.584032e-01	8.709015e-01	8.593055e-01	8.495161e-01	8.412237e-01	1.074889e+00	1.068226e+00	9.024320e-01	9.099536e-01	8.769820e-01	8.670959e-01	8.600823e-01	8.565166e-01	1.152247e+00	1.153110e+00	1.149834e+00	1.121001e+00	1.157232e+00	1.140255e+00	1.114833e+00	1.050293e+00	1.172826e+00	1.120792e+00	1.118025e+00	1.071676e+00	1.165958e+00	1.084898e+00	8.303414e-01	1.137718e+00	1.141707e+00	1.128023e+00	1.169423e+00	1.072188e+00	9.238665e-01	1.025714e+00	1.024533e+00	9.585310e-01	1.132943e+00	1.131901e+00	1.128091e+00	1.171894e+00	1.172308e+00	9.012386e-01	9.