# vtk DataFile Version 3.0
vtk output
ASCII
DATASET UNSTRUCTURED_GRID
POINTS 200 float
9.997500e-01	-3.633248e-05	0.0	9.990000e-01	-1.454755e-04	0.0	9.977600e-01	-3.275417e-04	0.0	9.960200e-01	-5.901127e-04	0.0	9.937800e-01	-9.477667e-04	0.0	9.910500e-01	-1.423960e-03	0.0	9.878400e-01	-2.049773e-03	0.0	9.841300e-01	-2.862075e-03	0.0	9.799500e-01	-3.873537e-03	0.0	9.752800e-01	-5.081417e-03	0.0	9.701500e-01	-6.438505e-03	0.0	9.645400e-01	-7.885690e-03	0.0	9.584700e-01	-9.346788e-03	0.0	9.519400e-01	-1.076576e-02	0.0	9.449600e-01	-1.211425e-02	0.0	9.375400e-01	-1.339661e-02	0.0	9.296900e-01	-1.464032e-02	0.0	9.214000e-01	-1.588392e-02	0.0	9.127000e-01	-1.715482e-02	0.0	9.035800e-01	-1.847412e-02	0.0	8.940600e-01	-1.984539e-02	0.0	8.841500e-01	-2.126390e-02	0.0	8.738500e-01	-2.272130e-02	0.0	8.631800e-01	-2.420540e-02	0.0	8.521600e-01	-2.570550e-02	0.0	8.407700e-01	-2.721845e-02	0.0	8.290500e-01	-2.873503e-02	0.0	8.170100e-01	-3.025143e-02	0.0	8.046400e-01	-3.176688e-02	0.0	7.919700e-01	-3.327573e-02	0.0	7.790100e-01	-3.477473e-02	0.0	7.657800e-01	-3.625926e-02	0.0	7.522800e-01	-3.772675e-02	0.0	7.385200e-01	-3.917333e-02	0.0	7.245300e-01	-4.059311e-02	0.0	7.103200e-01	-4.198243e-02	0.0	6.958900e-01	-4.333873e-02	0.0	6.812700e-01	-4.465679e-02	0.0	6.664700e-01	-4.593362e-02	0.0	6.515000e-01	-4.716645e-02	0.0	6.363800e-01	-4.835199e-02	0.0	6.211300e-01	-4.948737e-02	0.0	6.057600e-01	-5.057079e-02	0.0	5.902800e-01	-5.160066e-02	0.0	5.747100e-01	-5.257500e-02	0.0	5.590600e-01	-5.349274e-02	0.0	5.433600e-01	-5.435187e-02	0.0	5.276100e-01	-5.515231e-02	0.0	5.118400e-01	-5.589252e-02	0.0	4.960500e-01	-5.657255e-02	0.0	4.802700e-01	-5.719118e-02	0.0	4.645100e-01	-5.774812e-02	0.0	4.487800e-01	-5.824303e-02	0.0	4.331100e-01	-5.867494e-02	0.0	4.175000e-01	-5.904371e-02	0.0	4.019700e-01	-5.934856e-02	0.0	3.865400e-01	-5.958867e-02	0.0	3.712300e-01	-5.976323e-02	0.0	3.560400e-01	-5.987151e-02	0.0	3.409900e-01	-5.991239e-02	0.0	3.261100e-01	-5.988480e-02	0.0	3.114000e-01	-5.978759e-02	0.0	2.968700e-01	-5.961940e-02	0.0	2.825500e-01	-5.937909e-02	0.0	2.684500e-01	-5.906535e-02	0.0	2.545700e-01	-5.867642e-02	0.0	2.409400e-01	-5.821137e-02	0.0	2.275700e-01	-5.766880e-02	0.0	2.144700e-01	-5.704732e-02	0.0	2.016600e-01	-5.634610e-02	0.0	1.891400e-01	-5.556332e-02	0.0	1.769300e-01	-5.469841e-02	0.0	1.650400e-01	-5.375034e-02	0.0	1.534900e-01	-5.271915e-02	0.0	1.422900e-01	-5.160436e-02	0.0	1.314400e-01	-5.040451e-02	0.0	1.209500e-01	-4.911915e-02	0.0	1.108500e-01	-4.775083e-02	0.0	1.011300e-01	-4.629718e-02	0.0	9.181000e-02	-4.476007e-02	0.0	8.290000e-02	-4.314041e-02	0.0	7.440000e-02	-4.143734e-02	0.0	6.633000e-02	-3.965419e-02	0.0	5.869000e-02	-3.779046e-02	0.0	5.149000e-02	-3.584796e-02	0.0	4.474000e-02	-3.382906e-02	0.0	3.844000e-02	-3.173328e-02	0.0	3.260000e-02	-2.956334e-02	0.0	2.723000e-02	-2.732283e-02	0.0	2.232000e-02	-2.500660e-02	0.0	1.790000e-02	-2.262875e-02	0.0	1.395000e-02	-2.017839e-02	0.0	1.049000e-02	-1.766701e-02	0.0	7.520000e-03	-1.509577e-02	0.0	5.040000e-03	-1.246524e-02	0.0	3.050000e-03	-9.774499e-03	0.0	1.560000e-03	-7.040004e-03	0.0	5.600000e-04	-4.242112e-03	0.0	6.000000e-05	-1.392042e-03	0.0	0.000000e+00	0.000000e+00	0.0	6.000000e-05	1.271949e-03	0.0	5.600000e-04	3.660798e-03	0.0	1.560000e-03	5.856021e-03	0.0	3.050000e-03	7.905629e-03	0.0	5.040000e-03	9.853293e-03	0.0	7.520000e-03	1.170576e-02	0.0	1.049000e-02	1.347760e-02	0.0	1.395000e-02	1.517913e-02	0.0	1.790000e-02	1.681819e-02	0.0	2.232000e-02	1.839437e-02	0.0	2.723000e-02	1.992099e-02	0.0	3.260000e-02	2.139400e-02	0.0	3.844000e-02	2.282131e-02	0.0	4.474000e-02	2.420445e-02	0.0	5.149000e-02	2.554500e-02	0.0	5.869000e-02	2.684618e-02	0.0	6.633000e-02	2.810890e-02	0.0	7.440000e-02	2.933402e-02	0.0	8.290000e-02	3.052361e-02	0.0	9.181000e-02	3.167673e-02	0.0	1.011300e-01	3.279503e-02	0.0	1.108500e-01	3.387860e-02	0.0	1.209500e-01	3.492643e-02	0.0	1.314400e-01	3.594044e-02	0.0	1.422900e-01	3.691844e-02	0.0	1.534900e-01	3.786022e-02	0.0	1.650400e-01	3.876619e-02	0.0	1.769300e-01	3.963567e-02	0.0	1.891400e-01	4.046724e-02	0.0	2.016600e-01	4.126012e-02	0.0	2.144700e-01	4.201281e-02	0.0	2.275700e-01	4.272489e-02	0.0	2.409400e-01	4.339465e-02	0.0	2.545700e-01	4.402083e-02	0.0	2.684500e-01	4.460202e-02	0.0	2.825500e-01	4.513592e-02	0.0	2.968700e-01	4.562135e-02	0.0	3.114000e-01	4.605654e-02	0.0	3.261100e-01	4.643905e-02	0.0	3.409900e-01	4.676702e-02	0.0	3.560400e-01	4.703862e-02	0.0	3.712300e-01	4.725134e-02	0.0	3.865400e-01	4.740294e-02	0.0	4.019700e-01	4.749132e-02	0.0	4.175000e-01	4.751413e-02	0.0	4.331100e-01	4.746911e-02	0.0	4.487800e-01	4.735414e-02	0.0	4.645100e-01	4.716697e-02	0.0	4.802700e-01	4.690574e-02	0.0	4.960500e-01	4.656855e-02	0.0	5.118400e-01	4.615361e-02	0.0	5.276100e-01	4.565989e-02	0.0	5.433600e-01	4.508581e-02	0.0	5.590600e-01	4.443113e-02	0.0	5.747100e-01	4.369481e-02	0.0	5.902800e-01	4.287760e-02	0.0	6.057600e-01	4.197984e-02	0.0	6.211300e-01	4.100295e-02	0.0	6.363800e-01	3.994838e-02	0.0	6.515000e-01	3.881810e-02	0.0	6.664700e-01	3.761546e-02	0.0	6.812700e-01	3.634466e-02	0.0	6.958900e-01	3.500984e-02	0.0	7.103200e-01	3.361574e-02	0.0	7.245300e-01	3.216987e-02	0.0	7.385200e-01	3.067752e-02	0.0	7.522800e-01	2.914554e-02	0.0	7.657800e-01	2.758377e-02	0.0	7.790100e-01	2.600049e-02	0.0	7.919700e-01	2.440330e-02	0.0	8.046400e-01	2.280266e-02	0.0	8.170100e-01	2.120817e-02	0.0	8.290500e-01	1.963214e-02	0.0	8.407700e-01	1.808137e-02	0.0	8.521600e-01	1.656430e-02	0.0	8.631800e-01	1.509174e-02	0.0	8.738500e-01	1.366413e-02	0.0	8.841500e-01	1.228460e-02	0.0	8.940600e-01	1.095422e-02	0.0	9.035800e-01	9.671129e-03	0.0	9.127000e-01	8.437926e-03	0.0	9.214000e-01	7.265528e-03	0.0	9.296900e-01	6.170675e-03	0.0	9.375400e-01	5.184645e-03	0.0	9.449600e-01	4.337027e-03	0.0	9.519400e-01	3.653059e-03	0.0	9.584700e-01	3.138861e-03	0.0	9.645400e-01	2.773797e-03	0.0	9.701500e-01	2.512150e-03	0.0	9.752800e-01	2.297029e-03	0.0	9.799500e-01	2.075344e-03	0.0	9.841300e-01	1.816828e-03	0.0	9.878400e-01	1.514719e-03	0.0	9.910500e-01	1.187928e-03	0.0	9.937800e-01	8.622004e-04	0.0	9.960200e-01	5.663993e-04	0.0	9.977600e-01	3.231462e-04	0.0	9.990000e-01	1.450745e-04	0.0	9.997500e-01	3.632613e-05	0.0	1.000000e+00	0.000000e+00	0.0	
CELLS 200	600
2	199	0	2	0	1	2	1	2	2	2	3	2	3	4	2	4	5	2	5	6	2	6	7	2	7	8	2	8	9	2	9	10	2	10	11	2	11	12	2	12	13	2	13	14	2	14	15	2	15	16	2	16	17	2	17	18	2	18	19	2	19	20	2	20	21	2	21	22	2	22	23	2	23	24	2	24	25	2	25	26	2	26	27	2	27	28	2	28	29	2	29	30	2	30	31	2	31	32	2	32	33	2	33	34	2	34	35	2	35	36	2	36	37	2	37	38	2	38	39	2	39	40	2	40	41	2	41	42	2	42	43	2	43	44	2	44	45	2	45	46	2	46	47	2	47	48	2	48	49	2	49	50	2	50	51	2	51	52	2	52	53	2	53	54	2	54	55	2	55	56	2	56	57	2	57	58	2	58	59	2	59	60	2	60	61	2	61	62	2	62	63	2	63	64	2	64	65	2	65	66	2	66	67	2	67	68	2	68	69	2	69	70	2	70	71	2	71	72	2	72	73	2	73	74	2	74	75	2	75	76	2	76	77	2	77	78	2	78	79	2	79	80	2	80	81	2	81	82	2	82	83	2	83	84	2	84	85	2	85	86	2	86	87	2	87	88	2	88	89	2	89	90	2	90	91	2	91	92	2	92	93	2	93	94	2	94	95	2	95	96	2	96	97	2	97	98	2	98	99	2	99	100	2	100	101	2	101	102	2	102	103	2	103	104	2	104	105	2	105	106	2	106	107	2	107	108	2	108	109	2	109	110	2	110	111	2	111	112	2	112	113	2	113	114	2	114	115	2	115	116	2	116	117	2	117	118	2	118	119	2	119	120	2	120	121	2	121	122	2	122	123	2	123	124	2	124	125	2	125	126	2	126	127	2	127	128	2	128	129	2	129	130	2	130	131	2	131	132	2	132	133	2	133	134	2	134	135	2	135	136	2	136	137	2	137	138	2	138	139	2	139	140	2	140	141	2	141	142	2	142	143	2	143	144	2	144	145	2	145	146	2	146	147	2	147	148	2	148	149	2	149	150	2	150	151	2	151	152	2	152	153	2	153	154	2	154	155	2	155	156	2	156	157	2	157	158	2	158	159	2	159	160	2	160	161	2	161	162	2	162	163	2	163	164	2	164	165	2	165	166	2	166	167	2	167	168	2	168	169	2	169	170	2	170	171	2	171	172	2	172	173	2	173	174	2	174	175	2	175	176	2	176	177	2	177	178	2	178	179	2	179	180	2	180	181	2	181	182	2	182	183	2	183	184	2	184	185	2	185	186	2	186	187	2	187	188	2	188	189	2	189	190	2	190	191	2	191	192	2	192	193	2	193	194	2	194	195	2	195	196	2	196	197	2	197	198	2	198	199	
CELL_TYPES 200
3	3	3	3	3	3	3	3	3	3	3	3	3	3	3	3	3	3	3	3	3	3	3	3	3	3	3	3	3	3	3	3	3	3	3	3	3	3	3	3	3	3	3	3	3	3	3	3	3	3	3	3	3	3	3	3	3	3	3	3	3	3	3	3	3	3	3	3	3	3	3	3	3	3	3	3	3	3	3	3	3	3	3	3	3	3	3	3	3	3	3	3	3	3	3	3	3	3	3	3	3	3	3	3	3	3	3	3	3	3	3	3	3	3	3	3	3	3	3	3	3	3	3	3	3	3	3	3	3	3	3	3	3	3	3	3	3	3	3	3	3	3	3	3	3	3	3	3	3	3	3	3	3	3	3	3	3	3	3	3	3	3	3	3	3	3	3	3	3	3	3	3	3	3	3	3	3	3	3	3	3	3	3	3	3	3	3	3	3	3	3	3	3	3	3	3	3	3	3	3	
POINT_DATA 200

SCALARS Conservative_1 float 1
LOOKUP_TABLE default
1.199882e+00	1.181722e+00	1.171385e+00	1.165047e+00	1.160574e+00	1.156195e+00	1.149363e+00	1.138453e+00	1.122220e+00	1.100747e+00	1.075273e+00	1.048414e+00	1.024567e+00	1.007795e+00	9.992682e-01	9.971371e-01	9.982195e-01	9.996469e-01	9.996487e-01	9.976183e-01	9.937804e-01	9.887000e-01	9.829697e-01	9.770664e-01	9.712697e-01	9.656889e-01	9.603125e-01	9.550909e-01	9.499571e-01	9.448789e-01	9.398397e-01	9.347944e-01	9.297089e-01	9.246003e-01	9.195224e-01	9.145255e-01	9.096290e-01	9.048389e-01	9.001673e-01	8.956324e-01	8.912345e-01	8.869857e-01	8.828693e-01	8.789041e-01	8.751059e-01	8.715255e-01	8.681486e-01	8.649076e-01	8.616543e-01	8.583817e-01	8.552959e-01	8.527598e-01	8.509078e-01	8.494771e-01	8.478147e-01	8.451390e-01	8.408450e-01	8.349289e-01	8.281682e-01	8.218931e-01	8.171622e-01	8.142887e-01	8.130303e-01	8.129269e-01	8.136325e-01	8.149222e-01	8.167330e-01	8.189731e-01	8.215542e-01	8.243687e-01	8.274535e-01	8.309930e-01	8.352428e-01	8.402577e-01	8.459437e-01	8.521512e-01	8.589569e-01	8.665512e-01	8.749918e-01	8.843188e-01	8.946455e-01	9.060333e-01	9.186387e-01	9.325830e-01	9.480625e-01	9.653624e-01	9.847158e-01	1.006487e+00	1.031168e+00	1.059072e+00	1.090719e+00	1.126553e+00	1.166367e+00	1.209634e+00	1.254591e+00	1.298123e+00	1.331702e+00	1.350827e+00	1.339923e+00	1.309492e+00	1.286298e+00	1.224773e+00	1.105518e+00	1.008928e+00	9.324087e-01	8.753283e-01	8.358052e-01	8.094537e-01	7.914796e-01	7.791285e-01	7.706852e-01	7.649546e-01	7.613557e-01	7.591265e-01	7.578754e-01	7.575907e-01	7.581356e-01	7.592644e-01	7.606471e-01	7.619357e-01	7.631196e-01	7.645211e-01	7.664210e-01	7.686895e-01	7.709198e-01	7.728538e-01	7.745654e-01	7.761999e-01	7.778689e-01	7.796514e-01	7.816107e-01	7.837337e-01	7.859506e-01	7.881665e-01	7.903510e-01	7.924906e-01	7.945720e-01	7.965269e-01	7.983665e-01	8.003495e-01	8.030960e-01	8.073026e-01	8.132662e-01	8.203289e-01	8.269874e-01	8.318421e-01	8.345460e-01	8.358593e-01	8.370438e-01	8.392421e-01	8.429819e-01	8.481602e-01	8.542603e-01	8.607855e-01	8.673772e-01	8.739016e-01	8.804223e-01	8.871337e-01	8.942323e-01	9.017230e-01	9.095244e-01	9.175572e-01	9.257868e-01	9.342050e-01	9.427760e-01	9.514850e-01	9.602821e-01	9.691526e-01	9.780225e-01	9.868952e-01	9.956875e-01	1.004319e+00	1.012726e+00	1.020824e+00	1.028563e+00	1.035921e+00	1.042943e+00	1.049809e+00	1.056783e+00	1.064257e+00	1.072536e+00	1.081718e+00	1.091418e+00	1.100763e+00	1.108484e+00	1.113227e+00	1.113880e+00	1.110066e+00	1.102551e+00	1.093528e+00	1.086138e+00	1.083419e+00	1.087262e+00	1.097555e+00	1.112289e+00	1.129629e+00	1.148241e+00	1.168511e+00	1.192659e+00	1.181126e+00	
SCALARS Conservative_2 float 1
LOOKUP_TABLE default
7.194327e-01	7.457031e-01	7.636675e-01	7.743314e-01	7.800666e-01	7.846961e-01	7.903911e-01	8.000006e-01	8.150321e-01	8.355460e-01	8.598193e-01	8.844956e-01	9.058814e-01	9.215583e-01	9.309224e-01	9.349691e-01	9.357687e-01	9.354347e-01	9.354401e-01	9.364017e-01	9.383730e-01	9.410499e-01	9.440540e-01	9.470933e-01	9.499821e-01	9.526555e-01	9.551104e-01	9.573904e-01	9.595064e-01	9.614916e-01	9.633813e-01	9.651674e-01	9.668650e-01	9.684707e-01	9.699716e-01	9.713557e-01	9.726371e-01	9.737977e-01	9.748469e-01	9.758008e-01	9.766399e-01	9.773999e-01	9.780541e-01	9.786402e-01	9.791257e-01	9.795528e-01	9.798989e-01	9.802170e-01	9.804743e-01	9.807105e-01	9.808668e-01	9.809707e-01	9.810064e-01	9.810277e-01	9.810532e-01	9.811221e-01	9.811735e-01	9.811271e-01	9.808317e-01	9.803269e-01	9.797839e-01	9.793231e-01	9.790336e-01	9.788533e-01	9.787830e-01	9.787282e-01	9.787112e-01	9.786591e-01	9.785860e-01	9.784237e-01	9.781878e-01	9.778270e-01	9.773467e-01	9.766670e-01	9.757751e-01	9.745289e-01	9.729479e-01	9.709391e-01	9.682656e-01	9.647745e-01	9.603724e-01	9.547607e-01	9.476722e-01	9.386786e-01	9.272527e-01	9.126524e-01	8.939243e-01	8.699697e-01	8.391907e-01	7.994091e-01	7.481232e-01	6.823021e-01	5.983543e-01	4.942553e-01	3.703437e-01	2.346643e-01	1.066574e-01	1.117740e-02	-2.095838e-02	5.242775e-03	7.146234e-02	2.060852e-01	4.066191e-01	5.834455e-01	7.100478e-01	7.932950e-01	8.461959e-01	8.799626e-01	9.017430e-01	9.163544e-01	9.265269e-01	9.337371e-01	9.392037e-01	9.434532e-01	9.468446e-01	9.497484e-01	9.522333e-01	9.543856e-01	9.563024e-01	9.579543e-01	9.594230e-01	9.608301e-01	9.621993e-01	9.634423e-01	9.645568e-01	9.655313e-01	9.664217e-01	9.672356e-01	9.680202e-01	9.687724e-01	9.695271e-01	9.702627e-01	9.709834e-01	9.716577e-01	9.723014e-01	9.728977e-01	9.734586e-01	9.739711e-01	9.744692e-01	9.750010e-01	9.756853e-01	9.765116e-01	9.774090e-01	9.781525e-01	9.785871e-01	9.787764e-01	9.788695e-01	9.790036e-01	9.791561e-01	9.793461e-01	9.795039e-01	9.795737e-01	9.794668e-01	9.791901e-01	9.787272e-01	9.781017e-01	9.773394e-01	9.763664e-01	9.751655e-01	9.736830e-01	9.719214e-01	9.698608e-01	9.675011e-01	9.648279e-01	9.618339e-01	9.585164e-01	9.548716e-01	9.509406e-01	9.466559e-01	9.421287e-01	9.373655e-01	9.323840e-01	9.273014e-01	9.221731e-01	9.170553e-01	9.119755e-01	9.068777e-01	9.016377e-01	8.959584e-01	8.895372e-01	8.820314e-01	8.734314e-01	8.641676e-01	8.553398e-01	8.485140e-01	8.452840e-01	8.466800e-01	8.526104e-01	8.615967e-01	8.709290e-01	8.772349e-01	8.778145e-01	8.713371e-01	8.585556e-01	8.402386e-01	8.179752e-01	7.915155e-01	7.598376e-01	7.213995e-01	6.623220e-01	
SCALARS Conservative_3 float 1
LOOKUP_TABLE default
1.010139e-01	1.066504e-01	1.128578e-01	1.198030e-01	1.303191e-01	1.451037e-01	1.638048e-01	1.844894e-01	2.039811e-01	2.183171e-01	2.242735e-01	2.202438e-01	2.071782e-01	1.888959e-01	1.701744e-01	1.547269e-01	1.442151e-01	1.384003e-01	1.359201e-01	1.351278e-01	1.347175e-01	1.339214e-01	1.324553e-01	1.303500e-01	1.277780e-01	1.249418e-01	1.219763e-01	1.189704e-01	1.159490e-01	1.128982e-01	1.098055e-01	1.066493e-01	1.034177e-01	1.001028e-01	9.669013e-02	9.319492e-02	8.961383e-02	8.596598e-02	8.225805e-02	7.850279e-02	7.471383e-02	7.089909e-02	6.707734e-02	6.325088e-02	5.942728e-02	5.559890e-02	5.176999e-02	4.795376e-02	4.417364e-02	4.043437e-02	3.670061e-02	3.291638e-02	2.905877e-02	2.511064e-02	2.109577e-02	1.705525e-02	1.304097e-02	9.059646e-03	5.018294e-03	7.559830e-04	-3.782843e-03	-8.577771e-03	-1.361217e-02	-1.887003e-02	-2.438900e-02	-3.019822e-02	-3.635613e-02	-4.288041e-02	-4.980533e-02	-5.715269e-02	-6.497344e-02	-7.333602e-02	-8.231224e-02	-9.193488e-02	-1.022469e-01	-1.133047e-01	-1.252236e-01	-1.380749e-01	-1.519362e-01	-1.669373e-01	-1.832002e-01	-2.008417e-01	-2.200224e-01	-2.408799e-01	-2.635382e-01	-2.881151e-01	-3.146760e-01	-3.431539e-01	-3.731369e-01	-4.038471e-01	-4.337383e-01	-4.595956e-01	-4.762179e-01	-4.750980e-01	-4.433630e-01	-3.659678e-01	-2.318542e-01	-4.018909e-02	1.817661e-01	3.460376e-01	4.894406e-01	6.546117e-01	7.211938e-01	6.906334e-01	6.162329e-01	5.333749e-01	4.585366e-01	3.959685e-01	3.448784e-01	3.030262e-01	2.687319e-01	2.402122e-01	2.162797e-01	1.959645e-01	1.785128e-01	1.633961e-01	1.502187e-01	1.386195e-01	1.283369e-01	1.190935e-01	1.106792e-01	1.030187e-01	9.606299e-02	8.972176e-02	8.386526e-02	7.833861e-02	7.310973e-02	6.815227e-02	6.345969e-02	5.898250e-02	5.468878e-02	5.054615e-02	4.652187e-02	4.257756e-02	3.868900e-02	3.483924e-02	3.101618e-02	2.719399e-02	2.332947e-02	1.938458e-02	1.537146e-02	1.134309e-02	7.371818e-03	3.472281e-03	-4.886124e-04	-4.695607e-03	-9.199025e-03	-1.392311e-02	-1.875266e-02	-2.361459e-02	-2.848279e-02	-3.340052e-02	-3.839363e-02	-4.351905e-02	-4.875385e-02	-5.408605e-02	-5.947869e-02	-6.489090e-02	-7.027525e-02	-7.560606e-02	-8.085102e-02	-8.599494e-02	-9.097632e-02	-9.576639e-02	-1.002974e-01	-1.045465e-01	-1.084433e-01	-1.119527e-01	-1.150190e-01	-1.175980e-01	-1.196473e-01	-1.211321e-01	-1.220523e-01	-1.224323e-01	-1.223451e-01	-1.219375e-01	-1.213871e-01	-1.208752e-01	-1.204766e-01	-1.200266e-01	-1.189869e-01	-1.164478e-01	-1.112735e-01	-1.025632e-01	-9.012127e-02	-7.488080e-02	-5.903676e-02	-4.572669e-02	-3.825675e-02	-3.888139e-02	-4.770717e-02	-6.245903e-02	-7.924853e-02	-9.426278e-02	-1.047240e-01	-1.097006e-01	-1.102634e-01	-1.062018e-01	-1.003367e-01	2.607086e-03	
SCALARS Conservative_4 float 1
LOOKUP_TABLE default
3.446523e+00	3.401072e+00	3.376002e+00	3.360731e+00	3.349830e+00	3.339169e+00	3.322205e+00	3.295035e+00	3.254536e+00	3.200914e+00	3.137188e+00	3.069754e+00	3.009701e+00	2.967440e+00	2.945985e+00	2.940612e+00	2.943289e+00	2.946807e+00	2.946716e+00	2.941477e+00	2.931664e+00	2.918697e+00	2.904065e+00	2.888975e+00	2.874134e+00	2.859824e+00	2.846015e+00	2.832587e+00	2.819366e+00	2.806271e+00	2.793268e+00	2.780234e+00	2.767081e+00	2.753853e+00	2.740690e+00	2.727721e+00	2.715002e+00	2.702543e+00	2.690377e+00	2.678558e+00	2.667080e+00	2.655984e+00	2.645219e+00	2.634844e+00	2.624890e+00	2.615504e+00	2.606638e+00	2.598133e+00	2.589585e+00	2.580989e+00	2.572869e+00	2.566186e+00	2.561286e+00	2.557495e+00	2.553101e+00	2.546066e+00	2.534785e+00	2.519230e+00	2.501400e+00	2.484794e+00	2.472237e+00	2.464578e+00	2.461209e+00	2.460907e+00	2.462769e+00	2.466176e+00	2.470976e+00	2.476906e+00	2.483746e+00	2.491194e+00	2.499358e+00	2.508710e+00	2.519932e+00	2.533151e+00	2.548130e+00	2.564443e+00	2.582318e+00	2.602245e+00	2.624328e+00	2.648659e+00	2.675549e+00	2.705118e+00	2.737764e+00	2.773760e+00	2.813573e+00	2.857881e+00	2.907208e+00	2.962448e+00	3.024764e+00	3.094799e+00	3.173791e+00	3.262717e+00	3.360800e+00	3.466694e+00	3.575968e+00	3.681527e+00	3.762406e+00	3.809538e+00	3.782173e+00	3.705855e+00	3.654553e+00	3.508815e+00	3.206153e+00	2.960929e+00	2.764834e+00	2.617576e+00	2.515309e+00	2.447002e+00	2.400220e+00	2.367955e+00	2.345857e+00	2.330783e+00	2.321326e+00	2.315480e+00	2.312217e+00	2.311544e+00	2.313067e+00	2.316131e+00	2.319885e+00	2.323387e+00	2.326620e+00	2.330451e+00	2.335609e+00	2.341718e+00	2.347714e+00	2.352915e+00	2.357529e+00	2.361935e+00	2.366435e+00	2.371233e+00	2.376504e+00	2.382205e+00	2.388154e+00	2.394094e+00	2.399950e+00	2.405679e+00	2.411252e+00	2.416486e+00	2.421420e+00	2.426746e+00	2.434123e+00	2.445370e+00	2.461244e+00	2.479962e+00	2.497543e+00	2.510335e+00	2.517469e+00	2.520978e+00	2.524165e+00	2.530034e+00	2.539950e+00	2.553634e+00	2.569706e+00	2.586869e+00	2.604176e+00	2.621284e+00	2.638368e+00	2.655920e+00	2.674456e+00	2.693976e+00	2.714271e+00	2.735126e+00	2.756452e+00	2.778226e+00	2.800350e+00	2.822786e+00	2.845402e+00	2.868169e+00	2.890870e+00	2.913546e+00	2.935974e+00	2.957939e+00	2.979302e+00	2.999844e+00	3.019447e+00	3.038057e+00	3.055785e+00	3.073092e+00	3.090621e+00	3.109370e+00	3.130077e+00	3.153002e+00	3.177184e+00	3.200481e+00	3.219778e+00	3.231727e+00	3.233545e+00	3.224226e+00	3.205585e+00	3.183056e+00	3.164443e+00	3.157378e+00	3.166678e+00	3.192222e+00	3.228757e+00	3.271707e+00	3.317516e+00	3.367181e+00	3.426859e+00	3.383852e+00	
SCALARS Pressure float 1
LOOKUP_TABLE default
1.290636e+00	1.264392e+00	1.248654e+00	1.238899e+00	1.232143e+00	1.225513e+00	1.215506e+00	1.199601e+00	1.176013e+00	1.144858e+00	1.108012e+00	1.069407e+00	1.035313e+00	1.011355e+00	9.991477e-01	9.961074e-01	9.977035e-01	9.998209e-01	9.999190e-01	9.971418e-01	9.918023e-01	9.847117e-01	9.767206e-01	9.685041e-01	9.604595e-01	9.527369e-01	9.453199e-01	9.381320e-01	9.310855e-01	9.241312e-01	9.172390e-01	9.103546e-01	9.034302e-01	8.964892e-01	8.896047e-01	8.828455e-01	8.762332e-01	8.697812e-01	8.635030e-01	8.574180e-01	8.515333e-01	8.458543e-01	8.403681e-01	8.350885e-01	8.300469e-01	8.252980e-01	8.208311e-01	8.165415e-01	8.122451e-01	8.079203e-01	8.038579e-01	8.005285e-01	7.981166e-01	7.962593e-01	7.940894e-01	7.905608e-01	7.848893e-01	7.770873e-01	7.682264e-01	7.600573e-01	7.539374e-01	7.502519e-01	7.486519e-01	7.485458e-01	7.494701e-01	7.511545e-01	7.535038e-01	7.564173e-01	7.597679e-01	7.634315e-01	7.674466e-01	7.720683e-01	7.776249e-01	7.842044e-01	7.916740e-01	7.998681e-01	8.088627e-01	8.189176e-01	8.301583e-01	8.426508e-01	8.565310e-01	8.719212e-01	8.890415e-01	9.080978e-01	9.293980e-01	9.533906e-01	9.804710e-01	1.011186e+00	1.046310e+00	1.086439e+00	1.132393e+00	1.184939e+00	1.244041e+00	1.308967e+00	1.377186e+00	1.443492e+00	1.495181e+00	1.523557e+00	1.507872e+00	1.464050e+00	1.423781e+00	1.326616e+00	1.158454e+00	1.022342e+00	9.163361e-01	8.382389e-01	7.844682e-01	7.487383e-01	7.245590e-01	7.080610e-01	6.968253e-01	6.892747e-01	6.845233e-01	6.815673e-01	6.798911e-01	6.794404e-01	6.800690e-01	6.814609e-01	6.831665e-01	6.847517e-01	6.861929e-01	6.878949e-01	6.902378e-01	6.930852e-01	6.958946e-01	6.983289e-01	7.004716e-01	7.025194e-01	7.046079e-01	7.068472e-01	7.093118e-01	7.119928e-01	7.147955e-01	7.176042e-01	7.203732e-01	7.230907e-01	7.257350e-01	7.282197e-01	7.305483e-01	7.330514e-01	7.365174e-01	7.418787e-01	7.495482e-01	7.587140e-01	7.674215e-01	7.737958e-01	7.773369e-01	7.790125e-01	7.805026e-01	7.833127e-01	7.881604e-01	7.949208e-01	8.029324e-01	8.115311e-01	8.202480e-01	8.288987e-01	8.375584e-01	8.465036e-01	8.559929e-01	8.660456e-01	8.765511e-01	8.874095e-01	8.985739e-01	9.100359e-01	9.217504e-01	9.336971e-01	9.458131e-01	9.580668e-01	9.703837e-01	9.827373e-01	9.950221e-01	1.007133e+00	1.018963e+00	1.030390e+00	1.041341e+00	1.051780e+00	1.061776e+00	1.071577e+00	1.081580e+00	1.092341e+00	1.104318e+00	1.117643e+00	1.131758e+00	1.145354e+00	1.156543e+00	1.163317e+00	1.164077e+00	1.158341e+00	1.147308e+00	1.134218e+00	1.123656e+00	1.119985e+00	1.125857e+00	1.140950e+00	1.162585e+00	1.188091e+00	1.215766e+00	1.246123e+00	1.281785e+00	1.279260e+00	
SCALARS Temperature float 1
LOOKUP_TABLE default
1.075636e+00	1.069957e+00	1.065963e+00	1.063390e+00	1.061666e+00	1.059954e+00	1.057547e+00	1.053712e+00	1.047934e+00	1.040074e+00	1.030448e+00	1.020024e+00	1.010488e+00	1.003533e+00	9.998793e-01	9.989673e-01	9.994831e-01	1.000174e+00	1.000270e+00	9.995224e-01	9.980095e-01	9.959661e-01	9.936426e-01	9.912368e-01	9.888700e-01	9.865878e-01	9.843878e-01	9.822437e-01	9.801342e-01	9.780420e-01	9.759526e-01	9.738554e-01	9.717345e-01	9.695964e-01	9.674639e-01	9.653591e-01	9.632863e-01	9.612552e-01	9.592695e-01	9.573325e-01	9.554537e-01	9.536279e-01	9.518602e-01	9.501474e-01	9.485103e-01	9.469580e-01	9.454961e-01	9.440794e-01	9.426578e-01	9.412133e-01	9.398594e-01	9.387503e-01	9.379590e-01	9.373523e-01	9.366308e-01	9.354210e-01	9.334530e-01	9.307228e-01	9.276212e-01	9.247642e-01	9.226289e-01	9.213585e-01	9.208167e-01	9.208034e-01	9.211409e-01	9.217500e-01	9.225829e-01	9.236167e-01	9.247934e-01	9.260802e-01	9.274800e-01	9.290913e-01	9.310166e-01	9.332904e-01	9.358471e-01	9.386457e-01	9.416802e-01	9.450308e-01	9.487612e-01	9.528813e-01	9.573971e-01	9.623501e-01	9.677815e-01	9.737447e-01	9.803130e-01	9.875986e-01	9.956893e-01	1.004669e+00	1.014684e+00	1.025840e+00	1.038207e+00	1.051827e+00	1.066595e+00	1.082118e+00	1.097717e+00	1.111984e+00	1.122760e+00	1.127870e+00	1.125342e+00	1.118028e+00	1.106882e+00	1.083152e+00	1.047884e+00	1.013295e+00	9.827623e-01	9.576280e-01	9.385778e-01	9.249922e-01	9.154487e-01	9.087859e-01	9.041634e-01	9.010661e-01	8.990847e-01	8.978311e-01	8.971015e-01	8.968436e-01	8.970282e-01	8.975278e-01	8.981385e-01	8.987000e-01	8.991944e-01	8.997723e-01	9.005988e-01	9.016452e-01	9.026809e-01	9.035717e-01	9.043415e-01	9.050753e-01	9.058183e-01	9.066195e-01	9.075001e-01	9.084627e-01	9.094662e-01	9.104729e-01	9.114598e-01	9.124281e-01	9.133660e-01	9.142437e-01	9.150538e-01	9.159141e-01	9.170976e-01	9.189598e-01	9.216517e-01	9.248900e-01	9.279725e-01	9.302195e-01	9.314488e-01	9.319900e-01	9.324513e-01	9.333572e-01	9.349672e-01	9.372296e-01	9.399153e-01	9.427797e-01	9.456647e-01	9.485035e-01	9.513145e-01	9.542007e-01	9.572378e-01	9.604341e-01	9.637467e-01	9.671434e-01	9.706057e-01	9.741287e-01	9.776982e-01	9.813051e-01	9.849325e-01	9.885614e-01	9.921896e-01	9.957869e-01	9.993317e-01	1.002802e+00	1.006158e+00	1.009371e+00	1.012423e+00	1.015310e+00	1.018057e+00	1.020735e+00	1.023465e+00	1.026388e+00	1.029633e+00	1.033212e+00	1.036961e+00	1.040509e+00	1.043355e+00	1.044995e+00	1.045065e+00	1.043488e+00	1.040595e+00	1.037209e+00	1.034542e+00	1.033751e+00	1.035497e+00	1.039537e+00	1.045218e+00	1.051754e+00	1.058807e+00	1.066420e+00	1.074729e+00	1.083085e+00	
SCALARS Pressure_Coefficient float 1
LOOKUP_TABLE default
6.487412e-01	5.901597e-01	5.550304e-01	5.332560e-01	5.181755e-01	5.033764e-01	4.810409e-01	4.455382e-01	3.928854e-01	3.233431e-01	2.410989e-01	1.549262e-01	7.882361e-02	2.534540e-02	-1.902549e-03	-8.688777e-03	-5.126017e-03	-3.997556e-04	-1.808217e-04	-6.379907e-03	-1.829853e-02	-3.412575e-02	-5.196290e-02	-7.030334e-02	-8.826009e-02	-1.054980e-01	-1.220538e-01	-1.380983e-01	-1.538271e-01	-1.693499e-01	-1.847344e-01	-2.001013e-01	-2.155575e-01	-2.310510e-01	-2.464182e-01	-2.615056e-01	-2.762652e-01	-2.906670e-01	-3.046807e-01	-3.182634e-01	-3.313988e-01	-3.440753e-01	-3.563212e-01	-3.681061e-01	-3.793595e-01	-3.899598e-01	-3.999306e-01	-4.095056e-01	-4.190957e-01	-4.287494e-01	-4.378172e-01	-4.452488e-01	-4.506325e-01	-4.547784e-01	-4.596219e-01	-4.674983e-01	-4.801578e-01	-4.975729e-01	-5.173518e-01	-5.355864e-01	-5.492469e-01	-5.574735e-01	-5.610449e-01	-5.612816e-01	-5.592184e-01	-5.554588e-01	-5.502147e-01	-5.437114e-01	-5.362324e-01	-5.280547e-01	-5.190925e-01	-5.087760e-01	-4.963729e-01	-4.816866e-01	-4.650135e-01	-4.467231e-01	-4.266458e-01	-4.042019e-01	-3.791110e-01	-3.512259e-01	-3.202432e-01	-2.858901e-01	-2.476752e-01	-2.051389e-01	-1.575937e-01	-1.040388e-01	-4.359160e-02	2.496890e-02	1.033711e-01	1.929431e-01	2.955192e-01	4.128106e-01	5.447336e-01	6.896586e-01	8.419339e-01	9.899376e-01	1.105314e+00	1.168655e+00	1.133643e+00	1.035825e+00	9.459387e-01	7.290536e-01	3.536927e-01	4.986982e-02	-1.867497e-01	-3.610739e-01	-4.810977e-01	-5.608520e-01	-6.148237e-01	-6.516495e-01	-6.767292e-01	-6.935833e-01	-7.041891e-01	-7.107872e-01	-7.145287e-01	-7.155349e-01	-7.141318e-01	-7.110248e-01	-7.072177e-01	-7.036793e-01	-7.004623e-01	-6.966632e-01	-6.914334e-01	-6.850777e-01	-6.788068e-01	-6.733731e-01	-6.685902e-01	-6.640192e-01	-6.593574e-01	-6.543589e-01	-6.488576e-01	-6.428732e-01	-6.366173e-01	-6.303477e-01	-6.241670e-01	-6.181011e-01	-6.121987e-01	-6.066524e-01	-6.014547e-01	-5.958675e-01	-5.881309e-01	-5.761637e-01	-5.590441e-01	-5.385848e-01	-5.191483e-01	-5.049202e-01	-4.970159e-01	-4.932757e-01	-4.899495e-01	-4.836770e-01	-4.728562e-01	-4.577661e-01	-4.398831e-01	-4.206895e-01	-4.012321e-01	-3.819225e-01	-3.625928e-01	-3.426258e-01	-3.214443e-01	-2.990054e-01	-2.755555e-01	-2.513181e-01	-2.263976e-01	-2.008127e-01	-1.746642e-01	-1.479975e-01	-1.209529e-01	-9.360086e-02	-6.610780e-02	-3.853275e-02	-1.111131e-02	1.592278e-02	4.232708e-02	6.783439e-02	9.227928e-02	1.155809e-01	1.378917e-01	1.597712e-01	1.820977e-01	2.061173e-01	2.328518e-01	2.625966e-01	2.941019e-01	3.244510e-01	3.494262e-01	3.645468e-01	3.662435e-01	3.534386e-01	3.288131e-01	2.995929e-01	2.760173e-01	2.678244e-01	2.809312e-01	3.146196e-01	3.629138e-01	4.198467e-01	4.816200e-01	5.493828e-01	6.289853e-01	6.233475e-01	
SCALARS Mach float 1
LOOKUP_TABLE default
4.933945e-01	5.208352e-01	5.394620e-01	5.512011e-01	5.589567e-01	5.665838e-01	5.771685e-01	5.937478e-01	6.180992e-01	6.501710e-01	6.880256e-01	7.275398e-01	7.625566e-01	7.875133e-01	8.004446e-01	8.036550e-01	8.018403e-01	7.994055e-01	7.990659e-01	8.017020e-01	8.070191e-01	8.141710e-01	8.222629e-01	8.305979e-01	8.387556e-01	8.465840e-01	8.540964e-01	8.613869e-01	8.685306e-01	8.755885e-01	8.826101e-01	8.896324e-01	8.967085e-01	9.038170e-01	9.108826e-01	9.178332e-01	9.246564e-01	9.313219e-01	9.378200e-01	9.441409e-01	9.502563e-01	9.561847e-01	9.619109e-01	9.674471e-01	9.727276e-01	9.777252e-01	9.824231e-01	9.869685e-01	9.915222e-01	9.961418e-01	1.000465e+00	1.004002e+00	1.006523e+00	1.008455e+00	1.010750e+00	1.014596e+00	1.020841e+00	1.029485e+00	1.039279e+00	1.048277e+00	1.054989e+00	1.058976e+00	1.060675e+00	1.060716e+00	1.059658e+00	1.057747e+00	1.055133e+00	1.051885e+00	1.048186e+00	1.044135e+00	1.039724e+00	1.034640e+00	1.028556e+00	1.021356e+00	1.013242e+00	1.004336e+00	9.946495e-01	9.839167e-01	9.719189e-01	9.586047e-01	9.439305e-01	9.277312e-01	9.098319e-01	8.900025e-01	8.679264e-01	8.431212e-01	8.151372e-01	7.834684e-01	7.472679e-01	7.056638e-01	6.576256e-01	6.017704e-01	5.365486e-01	4.604649e-01	3.714351e-01	2.684117e-01	1.528563e-01	2.457499e-02	1.087914e-01	2.112418e-01	3.089044e-01	4.550302e-01	6.183077e-01	7.523512e-01	8.596262e-01	9.431777e-01	1.004552e+00	1.047560e+00	1.077473e+00	1.098233e+00	1.112585e+00	1.122179e+00	1.128309e+00	1.132184e+00	1.134438e+00	1.135234e+00	1.134664e+00	1.133121e+00	1.131234e+00	1.129498e+00	1.127970e+00	1.126183e+00	1.123626e+00	1.120387e+00	1.117179e+00	1.114419e+00	1.112033e+00	1.109757e+00	1.107451e+00	1.104964e+00	1.102229e+00	1.099238e+00	1.096118e+00	1.092985e+00	1.089913e+00	1.086896e+00	1.083972e+00	1.081234e+00	1.078706e+00	1.076019e+00	1.072320e+00	1.066493e+00	1.058056e+00	1.047882e+00	1.038171e+00	1.031076e+00	1.027189e+00	1.025476e+00	1.024015e+00	1.021144e+00	1.016036e+00	1.008845e+00	1.000287e+00	9.911319e-01	9.818818e-01	9.727494e-01	9.636760e-01	9.543263e-01	9.444497e-01	9.340110e-01	9.231427e-01	9.119422e-01	9.004646e-01	8.887188e-01	8.767456e-01	8.645688e-01	8.522396e-01	8.398165e-01	8.273021e-01	8.147965e-01	8.023732e-01	7.901072e-01	7.781466e-01	7.665959e-01	7.555278e-01	7.449741e-01	7.348424e-01	7.248850e-01	7.146492e-01	7.035836e-01	6.911676e-01	6.773015e-01	6.625711e-01	6.484222e-01	6.369205e-01	6.302244e-01	6.299389e-01	6.363817e-01	6.480797e-01	6.615884e-01	6.721000e-01	6.751975e-01	6.683474e-01	6.523189e-01	6.293099e-01	6.020802e-01	5.716465e-01	5.373547e-01	4.978592e-01	4.553874e-01	