TITLE = "SU2 Simulation"
VARIABLES = "Iteration","CLift","CDrag","CSideForce","CMx","CMy","CMz","CFx","CFy","CFz","CL/CD","Res_Flow[0]","Res_Flow[1]","Res_Flow[2]","Res_Flow[3]","Res_Flow[4]","Linear_Solver_Iterations","CFL_Number","Time(min)"
ZONE T= "Convergence history"
        3273, 6.65075015e-02, 1.31966216e-03, 0.00000000e+00, 0.00000000e+00, 0.00000000e+00, -3.71743292e-02, -1.31505386e-04, 6.65204628e-02, 0.00000000e+00, 5.03973696e+01, -5.74800142e+00, -5.73433038e+00, -6.26700869e+00, -5.15162189e+00, 0.00000000e+00, 2.0000000000, 10.0000000000, 0.0002898177
        3274, 6.62402126e-02, 1.02784752e-03, 0.00000000e+00, 0.00000000e+00, 0.00000000e+00, -3.74098546e-02, -4.17419699e-04, 6.62468716e-02, 0.00000000e+00, 6.44455633e+01, -5.80593810e+00, -5.71598239e+00, -5.89120282e+00, -5.20260728e+00, 0.00000000e+00, 2.0000000000, 10.0000000000, 0.0005715330
        3275, 6.60521403e-02, 9.19882755e-04, 0.00000000e+00, 0.00000000e+00, 0.00000000e+00, -3.75759999e-02, -5.21255999e-04, 6.60564888e-02, 0.00000000e+00, 7.18049555e+01, -5.80858111e+00, -5.74796970e+00, -5.85110104e+00, -5.20862140e+00, 0.00000000e+00, 2.0000000000, 10.0000000000, 0.0008502324
        3276, 6.58284658e-02, 8.26526053e-04, 0.00000000e+00, 0.00000000e+00, 0.00000000e+00, -3.77391313e-02, -6.09711052e-04, 6.58308310e-02, 0.00000000e+00, 7.96447560e+01, -5.77660330e+00, -5.72776488e+00, -5.80219649e+00, -5.17300524e+00, 0.00000000e+00, 2.0000000000, 10.0000000000, 0.0011319002
        3277, 6.55736982e-02, 7.54578654e-04, 0.00000000e+00, 0.00000000e+00, 0.00000000e+00, -3.78985293e-02, -6.76083602e-04, 6.55745544e-02, 0.00000000e+00, 8.69010776e+01, -5.73412078e+00, -5.69246075e+00, -5.75630974e+00, -5.12867671e+00, 0.00000000e+00, 2.0000000000, 10.0000000000, 0.0014036655
        3278, 6.52869632e-02, 7.04661841e-04, 0.00000000e+00, 0.00000000e+00, 0.00000000e+00, -3.80392627e-02, -7.19733445e-04, 6.52867988e-02, 0.00000000e+00, 9.26500618e+01, -5.70116368e+00, -5.67204659e+00, -5.73737899e+00, -5.09780724e+00, 0.00000000e+00, 2.0000000000, 10.0000000000, 0.0016822815
        3279, 6.49977984e-02, 6.62973824e-04, 0.00000000e+00, 0.00000000e+00, 0.00000000e+00, -3.81635614e-02, -7.55103446e-04, 6.49967934e-02, 0.00000000e+00, 9.80397658e+01, -5.67190382e+00, -5.64892467e+00, -5.72546894e+00, -5.06964234e+00, 0.00000000e+00, 2.0000000000, 10.0000000000, 0.0019821843
        3280, 6.47259713e-02, 6.27997412e-04, 0.00000000e+00, 0.00000000e+00, 0.00000000e+00, -3.82678726e-02, -7.84141657e-04, 6.47242680e-02, 0.00000000e+00, 1.03067258e+02, -5.64480472e+00, -5.61591408e+00, -5.71087338e+00, -5.04165280e+00, 0.00000000e+00, 2.0000000000, 10.0000000000, 0.0022487998
        3281, 6.44787688e-02, 6.00101273e-04, 0.00000000e+00, 0.00000000e+00, 0.00000000e+00, -3.83490068e-02, -8.06638464e-04, 6.44765158e-02, 0.00000000e+00, 1.07446479e+02, -5.62671809e+00, -5.59170804e+00, -5.70233947e+00, -5.02298389e+00, 0.00000000e+00, 2.0000000000, 10.0000000000, 0.0025054177
        3282, 6.42591148e-02, 5.77472503e-04, 0.00000000e+00, 0.00000000e+00, 0.00000000e+00, -3.84092563e-02, -8.24470122e-04, 6.42564204e-02, 0.00000000e+00, 1.11276493e+02, -5.61613505e+00, -5.57610748e+00, -5.69842040e+00, -5.01211636e+00, 0.00000000e+00, 2.0000000000, 10.0000000000, 0.0027868152
        3283, 6.40644921e-02, 5.59268084e-04, 0.00000000e+00, 0.00000000e+00, 0.00000000e+00, -3.84536382e-02, -8.38424536e-04, 6.40614468e-02, 0.00000000e+00, 1.14550596e+02, -5.61189334e+00, -5.56973266e+00, -5.69749265e+00, -5.00774214e+00, 0.00000000e+00, 2.0000000000, 10.0000000000, 0.0031582832
        3284, 6.38904715e-02, 5.45419481e-04, 0.00000000e+00, 0.00000000e+00, 0.00000000e+00, -3.84866642e-02, -8.48473605e-04, 6.38871656e-02, 0.00000000e+00, 1.17140061e+02, -5.61250189e+00, -5.57199226e+00, -5.69908883e+00, -5.00827110e+00, 0.00000000e+00, 2.0000000000, 10.0000000000, 0.0034497341
        3285, 6.37328152e-02, 5.35510164e-04, 0.00000000e+00, 0.00000000e+00, 0.00000000e+00, -3.85116786e-02, -8.54941310e-04, 6.37293306e-02, 0.00000000e+00, 1.19013269e+02, -5.61620707e+00, -5.58060946e+00, -5.70270539e+00, -5.01193006e+00, 0.00000000e+00, 2.0000000000, 10.0000000000, 0.0037193974
        3286, 6.35888603e-02, 5.28500673e-04, 0.00000000e+00, 0.00000000e+00, 0.00000000e+00, -3.85307190e-02, -8.58808772e-04, 6.35852570e-02, 0.00000000e+00, 1.20319355e+02, -5.62160604e+00, -5.59248630e+00, -5.70765543e+00, -5.01736047e+00, 0.00000000e+00, 2.0000000000, 10.0000000000, 0.0039882660
        3287, 6.34574995e-02, 5.23399096e-04, 0.00000000e+00, 0.00000000e+00, 0.00000000e+00, -3.85449981e-02, -8.61043516e-04, 6.34538163e-02, 0.00000000e+00, 1.21241133e+02, -5.62788472e+00, -5.60438609e+00, -5.71324967e+00, -5.02376008e+00, 0.00000000e+00, 2.0000000000, 10.0000000000, 0.0042703827
        3288, 6.33380545e-02, 5.19592018e-04, 0.00000000e+00, 0.00000000e+00, 0.00000000e+00, -3.85554856e-02, -8.62244009e-04, 6.33343166e-02, 0.00000000e+00, 1.21899591e+02, -5.63453621e+00, -5.61317635e+00, -5.71905881e+00, -5.03052841e+00, 0.00000000e+00, 2.0000000000, 10.0000000000, 0.0045449495
        3289, 6.32296621e-02, 5.16722216e-04, 0.00000000e+00, 0.00000000e+00, 0.00000000e+00, -3.85631129e-02, -8.62748560e-04, 6.32258874e-02, 0.00000000e+00, 1.22366835e+02, -5.64105246e+00, -5.61619973e+00, -5.72502865e+00, -5.03696019e+00, 0.00000000e+00, 2.0000000000, 10.0000000000, 0.0048419833
        3290, 6.31311959e-02, 5.14547546e-04, 0.00000000e+00, 0.00000000e+00, 0.00000000e+00, -3.85687334e-02, -8.62774682e-04, 6.31273971e-02, 0.00000000e+00, 1.22692638e+02, -5.64689178e+00, -5.61204958e+00, -5.73135363e+00, -5.04228553e+00, 0.00000000e+00, 2.0000000000, 10.0000000000, 0.0051062306
        3291, 6.30413990e-02, 5.12891572e-04, 0.00000000e+00, 0.00000000e+00, 0.00000000e+00, -3.85730334e-02, -8.62471354e-04, 6.30375855e-02, 0.00000000e+00, 1.22913697e+02, -5.65168877e+00, -5.60120229e+00, -5.73825988e+00, -5.04599331e+00, 0.00000000e+00, 2.0000000000, 10.0000000000, 0.0053926667
        3292, 6.29591405e-02, 5.11588150e-04, 0.00000000e+00, 0.00000000e+00, 0.00000000e+00, -3.85765044e-02, -8.61980005e-04, 6.29553181e-02, 0.00000000e+00, 1.23066065e+02, -5.65541554e+00, -5.58576387e+00, -5.74591408e+00, -5.04807464e+00, 0.00000000e+00, 2.0000000000, 10.0000000000, 0.0056602160
        3293, 6.28836075e-02, 5.10476580e-04, 0.00000000e+00, 0.00000000e+00, 0.00000000e+00, -3.85794419e-02, -8.61443568e-04, 6.28797789e-02, 0.00000000e+00, 1.23186077e+02, -5.65846482e+00, -5.56850182e+00, -5.75444142e+00, -5.04908463e+00, 0.00000000e+00, 2.0000000000, 10.0000000000, 0.0059199810
        3294, 6.28143049e-02, 5.09391703e-04, 0.00000000e+00, 0.00000000e+00, 0.00000000e+00, -3.85819795e-02, -8.61016358e-04, 6.28104691e-02, 0.00000000e+00, 1.23312383e+02, -5.66147137e+00, -5.55190919e+00, -5.76388527e+00, -5.04987767e+00, 0.00000000e+00, 2.0000000000, 10.0000000000, 0.0061872641
        3295, 6.27508880e-02, 5.08142401e-04, 0.00000000e+00, 0.00000000e+00, 0.00000000e+00, -3.85841758e-02, -8.60881931e-04, 6.27470401e-02, 0.00000000e+00, 1.23490754e+02, -5.66521035e+00, -5.53790841e+00, -5.77424864e+00, -5.05142921e+00, 0.00000000e+00, 2.0000000000, 10.0000000000, 0.0064610481
        3296, 6.26930130e-02, 5.06510857e-04, 0.00000000e+00, 0.00000000e+00, 0.00000000e+00, -3.85860902e-02, -8.61250549e-04, 6.26891432e-02, 0.00000000e+00, 1.23774273e+02, -5.67055823e+00, -5.52802233e+00, -5.78563533e+00, -5.05477210e+00, 0.00000000e+00, 2.0000000000, 10.0000000000, 0.0067285140
        3297, 6.26401944e-02, 5.04255493e-04, 0.00000000e+00, 0.00000000e+00, 0.00000000e+00, -3.85878536e-02, -8.62353145e-04, 6.26362880e-02, 0.00000000e+00, 1.24223127e+02, -5.67858700e+00, -5.52368140e+00, -5.79843114e+00, -5.06110170e+00, 0.00000000e+00, 2.0000000000, 10.0000000000, 0.0069985509
        3298, 6.25916800e-02, 5.01127630e-04, 0.00000000e+00, 0.00000000e+00, 0.00000000e+00, -3.85897232e-02, -8.64421929e-04, 6.25877169e-02, 0.00000000e+00, 1.24901674e+02, -5.69069358e+00, -5.52649486e+00, -5.81352999e+00, -5.07193323e+00, 0.00000000e+00, 2.0000000000, 10.0000000000, 0.0072721322
        3299, 6.25464418e-02, 4.96909241e-04, 0.00000000e+00, 0.00000000e+00, 0.00000000e+00, -3.85921039e-02, -8.67652447e-04, 6.25423974e-02, 0.00000000e+00, 1.25870957e+02, -5.70869123e+00, -5.53839137e+00, -5.83253858e+00, -5.08921689e+00, 0.00000000e+00, 2.0000000000, 10.0000000000, 0.0076530655
        3300, 6.25032218e-02, 4.91439447e-04, 0.00000000e+00, 0.00000000e+00, 0.00000000e+00, -3.85955127e-02, -8.72178101e-04, 6.24990685e-02, 0.00000000e+00, 1.27183974e+02, -5.73497192e+00, -5.56175601e+00, -5.85808407e+00, -5.11552912e+00, 0.00000000e+00, 2.0000000000, 10.0000000000, 0.0080954313
        3301, 6.24607491e-02, 4.84661083e-04, 0.00000000e+00, 0.00000000e+00, 0.00000000e+00, -3.86004397e-02, -8.78028314e-04, 6.24564579e-02, 0.00000000e+00, 1.28875107e+02, -5.77293404e+00, -5.59978696e+00, -5.89455547e+00, -5.15454761e+00, 0.00000000e+00, 2.0000000000, 10.0000000000, 0.0085230827
        3302, 6.24181459e-02, 4.76717443e-04, 0.00000000e+00, 0.00000000e+00, 0.00000000e+00, -3.86068319e-02, -8.85040679e-04, 6.24136916e-02, 0.00000000e+00, 1.30933212e+02, -5.82706028e+00, -5.65630830e+00, -5.94877351e+00, -5.21118828e+00, 0.00000000e+00, 2.0000000000, 10.0000000000, 0.0088823001
        3303, 6.23733513e-02, 4.68659585e-04, 0.00000000e+00, 0.00000000e+00, 0.00000000e+00, -3.86151312e-02, -8.92119432e-04, 6.23687319e-02, 0.00000000e+00, 1.33088820e+02, -5.89724181e+00, -5.72935448e+00, -6.02505283e+00, -5.28561138e+00, 0.00000000e+00, 2.0000000000, 10.0000000000, 0.0091773152
        3304, 6.23188031e-02, 4.61657432e-04, 0.00000000e+00, 0.00000000e+00, 0.00000000e+00, -3.86289218e-02, -8.97929955e-04, 6.23140439e-02, 0.00000000e+00, 1.34989277e+02, -5.95819147e+00, -5.79066836e+00, -6.09939179e+00, -5.35063405e+00, 0.00000000e+00, 2.0000000000, 10.0000000000, 0.0094554822
        3305, 6.22527896e-02, 4.55819428e-04, 0.00000000e+00, 0.00000000e+00, 0.00000000e+00, -3.86488534e-02, -9.02326494e-04, 6.22479188e-02, 0.00000000e+00, 1.36573357e+02, -5.99189721e+00, -5.82493682e+00, -6.14747394e+00, -5.38674580e+00, 0.00000000e+00, 2.0000000000, 10.0000000000, 0.0097363989
        3306, 6.21816347e-02, 4.50452649e-04, 0.00000000e+00, 0.00000000e+00, 0.00000000e+00, -3.86713197e-02, -9.06139758e-04, 6.21766637e-02, 0.00000000e+00, 1.38042555e+02, -6.01342804e+00, -5.85043231e+00, -6.18313883e+00, -5.41065732e+00, 0.00000000e+00, 2.0000000000, 10.0000000000, 0.0100026329
        3307, 6.21083603e-02, 4.45932231e-04, 0.00000000e+00, 0.00000000e+00, 0.00000000e+00, -3.86943969e-02, -9.09060627e-04, 6.21033081e-02, 0.00000000e+00, 1.39277576e+02, -6.03189362e+00, -5.87708845e+00, -6.21490031e+00, -5.43219606e+00, 0.00000000e+00, 2.0000000000, 10.0000000000, 0.0102612336
        3308, 6.20351671e-02, 4.42481401e-04, 0.00000000e+00, 0.00000000e+00, 0.00000000e+00, -3.87163337e-02, -9.10913936e-04, 6.20300571e-02, 0.00000000e+00, 1.40198361e+02, -6.04667079e+00, -5.90315193e+00, -6.24126079e+00, -5.44999155e+00, 0.00000000e+00, 2.0000000000, 10.0000000000, 0.0105333487
        3309, 6.19633646e-02, 4.39522869e-04, 0.00000000e+00, 0.00000000e+00, 0.00000000e+00, -3.87360327e-02, -9.12305401e-04, 6.19582072e-02, 0.00000000e+00, 1.40978704e+02, -6.05455129e+00, -5.92321051e+00, -6.25765321e+00, -5.45995216e+00, 0.00000000e+00, 2.0000000000, 10.0000000000, 0.0108552972
        3310, 6.18939210e-02, 4.36564467e-04, 0.00000000e+00, 0.00000000e+00, 0.00000000e+00, -3.87529998e-02, -9.13748195e-04, 6.18887156e-02, 0.00000000e+00, 1.41774986e+02, -6.05780949e+00, -5.93867382e+00, -6.26670257e+00, -5.46467988e+00, 0.00000000e+00, 2.0000000000, 10.0000000000, 0.0111308972
        3311, 6.18274934e-02, 4.33852687e-04, 0.00000000e+00, 0.00000000e+00, 0.00000000e+00, -3.87671339e-02, -9.15010218e-04, 6.18222445e-02, 0.00000000e+00, 1.42508034e+02, -6.06013489e+00, -5.95320975e+00, -6.27326569e+00, -5.46846853e+00, 0.00000000e+00, 2.0000000000, 10.0000000000, 0.0114016652
        3312, 6.17644808e-02, 4.31770338e-04, 0.00000000e+00, 0.00000000e+00, 0.00000000e+00, -3.87784654e-02, -9.15717458e-04, 6.17592015e-02, 0.00000000e+00, 1.43049384e+02, -6.06232664e+00, -5.96731909e+00, -6.27861683e+00, -5.47220239e+00, 0.00000000e+00, 2.0000000000, 10.0000000000, 0.0117442648
        3313, 6.17051204e-02, 4.30342490e-04, 0.00000000e+00, 0.00000000e+00, 0.00000000e+00, -3.87871551e-02, -9.15850029e-04, 6.16998242e-02, 0.00000000e+00, 1.43386075e+02, -6.06346408e+00, -5.97961061e+00, -6.28209133e+00, -5.47476371e+00, 0.00000000e+00, 2.0000000000, 10.0000000000, 0.0120644808
        3314, 6.16496544e-02, 4.29445750e-04, 0.00000000e+00, 0.00000000e+00, 0.00000000e+00, -3.87934809e-02, -9.15536570e-04, 6.16443518e-02, 0.00000000e+00, 1.43556327e+02, -6.06336851e+00, -5.98957480e+00, -6.28380537e+00, -5.47587936e+00, 0.00000000e+00, 2.0000000000, 10.0000000000, 0.0123419166
        3315, 6.15983271e-02, 4.29044155e-04, 0.00000000e+00, 0.00000000e+00, 0.00000000e+00, -3.87977525e-02, -9.14818370e-04, 6.15930279e-02, 0.00000000e+00, 1.43571067e+02, -6.06258408e+00, -5.99749072e+00, -6.28439269e+00, -5.47608514e+00, 0.00000000e+00, 2.0000000000, 10.0000000000, 0.0127595663
        3316, 6.15512275e-02, 4.29109138e-04, 0.00000000e+00, 0.00000000e+00, 0.00000000e+00, -3.88002876e-02, -9.13725930e-04, 6.15459409e-02, 0.00000000e+00, 1.43439563e+02, -6.06147165e+00, -6.00351636e+00, -6.28412621e+00, -5.47571799e+00, 0.00000000e+00, 2.0000000000, 10.0000000000, 0.0130272309
        3317, 6.15082035e-02, 4.29534768e-04, 0.00000000e+00, 0.00000000e+00, 0.00000000e+00, -3.88014334e-02, -9.12361838e-04, 6.15029365e-02, 0.00000000e+00, 1.43197264e+02, -6.06025033e+00, -6.00783241e+00, -6.28323584e+00, -5.47498989e+00, 0.00000000e+00, 2.0000000000, 10.0000000000, 0.0132974823
        3318, 6.14689224e-02, 4.30199044e-04, 0.00000000e+00, 0.00000000e+00, 0.00000000e+00, -3.88015505e-02, -9.10840806e-04, 6.14636792e-02, 0.00000000e+00, 1.42884842e+02, -6.05929397e+00, -6.01090879e+00, -6.28223952e+00, -5.47431671e+00, 0.00000000e+00, 2.0000000000, 10.0000000000, 0.0135709325
        3319, 6.14329913e-02, 4.31008656e-04, 0.00000000e+00, 0.00000000e+00, 0.00000000e+00, -3.88009525e-02, -9.09247554e-04, 6.14277743e-02, 0.00000000e+00, 1.42533080e+02, -6.05898986e+00, -6.01327119e+00, -6.28165893e+00, -5.47414294e+00, 0.00000000e+00, 2.0000000000, 10.0000000000, 0.0138429006
        3320, 6.14000133e-02, 4.31881622e-04, 0.00000000e+00, 0.00000000e+00, 0.00000000e+00, -3.87998860e-02, -9.07655385e-04, 6.13948232e-02, 0.00000000e+00, 1.42168618e+02, -6.05960806e+00, -6.01533852e+00, -6.28186231e+00, -5.47478735e+00, 0.00000000e+00, 2.0000000000, 10.0000000000, 0.0141136845
        3321, 6.13695977e-02, 4.32744893e-04, 0.00000000e+00, 0.00000000e+00, 0.00000000e+00, -3.87985415e-02, -9.06128807e-04, 6.13644336e-02, 0.00000000e+00, 1.41814724e+02, -6.06138143e+00, -6.01751081e+00, -6.28320381e+00, -5.47653293e+00, 0.00000000e+00, 2.0000000000, 10.0000000000, 0.0143797000
        3322, 6.13413850e-02, 4.33549482e-04, 0.00000000e+00, 0.00000000e+00, 0.00000000e+00, -3.87970571e-02, -9.04708952e-04, 6.13362452e-02, 0.00000000e+00, 1.41486468e+02, -6.06454009e+00, -6.02019839e+00, -6.28603908e+00, -5.47966570e+00, 0.00000000e+00, 2.0000000000, 10.0000000000, 0.0146576007
        3323, 6.13150630e-02, 4.34269263e-04, 0.00000000e+00, 0.00000000e+00, 0.00000000e+00, -3.87955214e-02, -9.03415132e-04, 6.13099453e-02, 0.00000000e+00, 1.41191349e+02, -6.06927228e+00, -6.02378452e+00, -6.29064710e+00, -5.48442928e+00, 0.00000000e+00, 2.0000000000, 10.0000000000, 0.0149507483
        3324, 6.12903635e-02, 4.34892500e-04, 0.00000000e+00, 0.00000000e+00, 0.00000000e+00, -3.87939859e-02, -9.02253225e-04, 6.12852651e-02, 0.00000000e+00, 1.40932215e+02, -6.07572731e+00, -6.02864189e+00, -6.29725642e+00, -5.49102911e+00, 0.00000000e+00, 2.0000000000, 10.0000000000, 0.0152196844
        3325, 6.12670564e-02, 4.35419848e-04, 0.00000000e+00, 0.00000000e+00, 0.00000000e+00, -3.87924760e-02, -9.01217561e-04, 6.12619751e-02, 0.00000000e+00, 1.40708001e+02, -6.08405030e+00, -6.03517124e+00, -6.30610388e+00, -5.49967239e+00, 0.00000000e+00, 2.0000000000, 10.0000000000, 0.0154928168
        3326, 6.12449520e-02, 4.35863739e-04, 0.00000000e+00, 0.00000000e+00, 0.00000000e+00, -3.87909948e-02, -9.00291572e-04, 6.12398857e-02, 0.00000000e+00, 1.40513988e+02, -6.09438014e+00, -6.04379460e+00, -6.31742435e+00, -5.51056541e+00, 0.00000000e+00, 2.0000000000, 10.0000000000, 0.0157709678
        3327, 6.12239041e-02, 4.36243658e-04, 0.00000000e+00, 0.00000000e+00, 0.00000000e+00, -3.87895284e-02, -8.99452586e-04, 6.12188511e-02, 0.00000000e+00, 1.40343368e+02, -6.10682788e+00, -6.05492617e+00, -6.33142555e+00, -5.52388837e+00, 0.00000000e+00, 2.0000000000, 10.0000000000, 0.0160297990
        3328, 6.12037992e-02, 4.36581802e-04, 0.00000000e+00, 0.00000000e+00, 0.00000000e+00, -3.87880527e-02, -8.98675936e-04, 6.11987583e-02, 0.00000000e+00, 1.40188617e+02, -6.12148011e+00, -6.06897099e+00, -6.34830564e+00, -5.53979850e+00, 0.00000000e+00, 2.0000000000, 10.0000000000, 0.0162952820
        3329, 6.11845516e-02, 4.36902062e-04, 0.00000000e+00, 0.00000000e+00, 0.00000000e+00, -3.87865371e-02, -8.97935869e-04, 6.11795223e-02, 0.00000000e+00, 1.40041801e+02, -6.13841541e+00, -6.08634045e+00, -6.36828604e+00, -5.55844882e+00, 0.00000000e+00, 2.0000000000, 10.0000000000, 0.0165585001
        3330, 6.11661097e-02, 4.37227844e-04, 0.00000000e+00, 0.00000000e+00, 0.00000000e+00, -3.87849490e-02, -8.97207855e-04, 6.11610919e-02, 0.00000000e+00, 1.39895276e+02, -6.15771482e+00, -6.10747218e+00, -6.39163090e+00, -5.57999930e+00, 0.00000000e+00, 2.0000000000, 10.0000000000, 0.0168264508
        3331, 6.11484240e-02, 4.37580015e-04, 0.00000000e+00, 0.00000000e+00, 0.00000000e+00, -3.87832620e-02, -8.96469957e-04, 6.11434181e-02, 0.00000000e+00, 1.39742269e+02, -6.17948400e+00, -6.13286344e+00, -6.41868906e+00, -5.60464121e+00, 0.00000000e+00, 2.0000000000, 10.0000000000, 0.0171019832
        3332, 6.11314624e-02, 4.37978186e-04, 0.00000000e+00, 0.00000000e+00, 0.00000000e+00, -3.87814472e-02, -8.95701865e-04, 6.11264692e-02, 0.00000000e+00, 1.39576500e+02, -6.20387761e+00, -6.16311707e+00, -6.44993985e+00, -5.63262452e+00, 0.00000000e+00, 2.0000000000, 10.0000000000, 0.0173772812
        3333, 6.11152108e-02, 4.38440786e-04, 0.00000000e+00, 0.00000000e+00, 0.00000000e+00, -3.87794758e-02, -8.94884850e-04, 6.11102316e-02, 0.00000000e+00, 1.39392166e+02, -6.23111113e+00, -6.19902452e+00, -6.48603814e+00, -5.66427598e+00, 0.00000000e+00, 2.0000000000, 10.0000000000, 0.0176379164
        3334, 6.10996603e-02, 4.38984461e-04, 0.00000000e+00, 0.00000000e+00, 0.00000000e+00, -3.87773222e-02, -8.94002072e-04, 6.10946967e-02, 0.00000000e+00, 1.39184107e+02, -6.26144592e+00, -6.24157883e+00, -6.52777910e+00, -5.69997182e+00, 0.00000000e+00, 2.0000000000, 10.0000000000, 0.0179082155
        3335, 6.10848100e-02, 4.39624079e-04, 0.00000000e+00, 0.00000000e+00, 0.00000000e+00, -3.87749631e-02, -8.93038646e-04, 6.10798638e-02, 0.00000000e+00, 1.38947826e+02, -6.29505590e+00, -6.29189288e+00, -6.57594353e+00, -5.73996879e+00, 0.00000000e+00, 2.0000000000, 10.0000000000, 0.0181718508
        3336, 6.10707088e-02, 4.40364044e-04, 0.00000000e+00, 0.00000000e+00, 0.00000000e+00, -3.87723867e-02, -8.91991243e-04, 6.10657821e-02, 0.00000000e+00, 1.38682324e+02, -6.33180309e+00, -6.35091452e+00, -6.63087094e+00, -5.78408711e+00, 0.00000000e+00, 2.0000000000, 10.0000000000, 0.0184325496
        3337, 6.10574448e-02, 4.41180982e-04, 0.00000000e+00, 0.00000000e+00, 0.00000000e+00, -3.87696287e-02, -8.90885146e-04, 6.10525391e-02, 0.00000000e+00, 1.38395460e+02, -6.37045494e+00, -6.41793610e+00, -6.69089388e+00, -5.83062156e+00, 0.00000000e+00, 2.0000000000, 10.0000000000, 0.0187132478
        3338, 6.10453589e-02, 4.42048455e-04, 0.00000000e+00, 0.00000000e+00, 0.00000000e+00, -3.87667168e-02, -8.89754226e-04, 6.10404750e-02, 0.00000000e+00, 1.38096533e+02, -6.40679374e+00, -6.48585221e+00, -6.74822042e+00, -5.87372142e+00, 0.00000000e+00, 2.0000000000, 10.0000000000, 0.0189907312
        3339, 6.10351784e-02, 4.43016685e-04, 0.00000000e+00, 0.00000000e+00, 0.00000000e+00, -3.87635764e-02, -8.88564141e-04, 6.10303180e-02, 0.00000000e+00, 1.37771737e+02, -6.43091442e+00, -6.53302630e+00, -6.78325980e+00, -5.90000767e+00, 0.00000000e+00, 2.0000000000, 10.0000000000, 0.0192876975
        3340, 6.10272917e-02, 4.44199386e-04, 0.00000000e+00, 0.00000000e+00, 0.00000000e+00, -3.87601124e-02, -8.87209673e-04, 6.10224590e-02, 0.00000000e+00, 1.37387159e+02, -6.43242880e+00, -6.53755743e+00, -6.77765471e+00, -5.89710915e+00, 0.00000000e+00, 2.0000000000, 10.0000000000, 0.0195611477
        3341, 6.10213523e-02, 4.45443619e-04, 0.00000000e+00, 0.00000000e+00, 0.00000000e+00, -3.87564175e-02, -8.85836170e-04, 6.10165482e-02, 0.00000000e+00, 1.36990070e+02, -6.41996550e+00, -6.52062055e+00, -6.75083751e+00, -5.87858614e+00, 0.00000000e+00, 2.0000000000, 10.0000000000, 0.0198571841
        3342, 6.10168714e-02, 4.46586798e-04, 0.00000000e+00, 0.00000000e+00, 0.00000000e+00, -3.87526654e-02, -8.84595512e-04, 6.10120933e-02, 0.00000000e+00, 1.36629367e+02, -6.40788488e+00, -6.50445089e+00, -6.72894117e+00, -5.86216080e+00, 0.00000000e+00, 2.0000000000, 10.0000000000, 0.0201290488
        3343, 6.10134985e-02, 4.47662311e-04, 0.00000000e+00, 0.00000000e+00, 0.00000000e+00, -3.87490046e-02, -8.83446676e-04, 6.10087447e-02, 0.00000000e+00, 1.36293579e+02, -6.40047876e+00, -6.49110248e+00, -6.71472806e+00, -5.85165409e+00, 0.00000000e+00, 2.0000000000, 10.0000000000, 0.0204085827
        3344, 6.10108411e-02, 4.48713632e-04, 0.00000000e+00, 0.00000000e+00, 0.00000000e+00, -3.87455766e-02, -8.82337633e-04, 6.10061108e-02, 0.00000000e+00, 1.35968325e+02, -6.39763745e+00, -6.48237294e+00, -6.70526136e+00, -5.84671009e+00, 0.00000000e+00, 2.0000000000, 10.0000000000, 0.0206672986
        3345, 6.10085580e-02, 4.49739118e-04, 0.00000000e+00, 0.00000000e+00, 0.00000000e+00, -3.87424523e-02, -8.81262586e-04, 6.10038506e-02, 0.00000000e+00, 1.35653217e+02, -6.39972069e+00, -6.48149007e+00, -6.70230327e+00, -5.84804324e+00, 0.00000000e+00, 2.0000000000, 10.0000000000, 0.0209373315
        3346, 6.10064011e-02, 4.50703989e-04, 0.00000000e+00, 0.00000000e+00, 0.00000000e+00, -3.87396958e-02, -8.80250893e-04, 6.10017153e-02, 0.00000000e+00, 1.35358023e+02, -6.40768302e+00, -6.49106172e+00, -6.70822900e+00, -5.85689819e+00, 0.00000000e+00, 2.0000000000, 10.0000000000, 0.0213095665
        3347, 6.10042453e-02, 4.51578876e-04, 0.00000000e+00, 0.00000000e+00, 0.00000000e+00, -3.87373325e-02, -8.79329184e-04, 6.09995790e-02, 0.00000000e+00, 1.35091007e+02, -6.41917335e+00, -6.50809425e+00, -6.72013364e+00, -5.87020910e+00, 0.00000000e+00, 2.0000000000, 10.0000000000, 0.0216005643
        3348, 6.10021414e-02, 4.52356733e-04, 0.00000000e+00, 0.00000000e+00, 0.00000000e+00, -3.87352892e-02, -8.78505616e-04, 6.09974926e-02, 0.00000000e+00, 1.34854059e+02, -6.43105034e+00, -6.52733346e+00, -6.73375510e+00, -5.88388129e+00, 0.00000000e+00, 2.0000000000, 10.0000000000, 0.0218751311
        3349, 6.10002027e-02, 4.53038595e-04, 0.00000000e+00, 0.00000000e+00, 0.00000000e+00, -3.87334744e-02, -8.77781625e-04, 6.09955693e-02, 0.00000000e+00, 1.34646812e+02, -6.44145228e+00, -6.54473743e+00, -6.74586804e+00, -5.89551894e+00, 0.00000000e+00, 2.0000000000, 10.0000000000, 0.0221373320
        3350, 6.09984939e-02, 4.53624127e-04, 0.00000000e+00, 0.00000000e+00, 0.00000000e+00, -3.87318308e-02, -8.77158954e-04, 6.09938737e-02, 0.00000000e+00, 1.34469245e+02, -6.44942661e+00, -6.55777489e+00, -6.75450975e+00, -5.90396126e+00, 0.00000000e+00, 2.0000000000, 10.0000000000, 0.0224114974
        3351, 6.09970455e-02, 4.54109060e-04, 0.00000000e+00, 0.00000000e+00, 0.00000000e+00, -3.87303256e-02, -8.76642541e-04, 6.09924362e-02, 0.00000000e+00, 1.34322459e+02, -6.45579223e+00, -6.56763006e+00, -6.76101453e+00, -5.91038801e+00, 0.00000000e+00, 2.0000000000, 10.0000000000, 0.0226723671
        3352, 6.09958389e-02, 4.54481789e-04, 0.00000000e+00, 0.00000000e+00, 0.00000000e+00, -3.87289572e-02, -8.76243579e-04, 6.09912380e-02, 0.00000000e+00, 1.34209644e+02, -6.46174809e+00, -6.57654870e+00, -6.76742192e+00, -5.91638791e+00, 0.00000000e+00, 2.0000000000, 10.0000000000, 0.0229415178
        3353, 6.09948076e-02, 4.54729435e-04, 0.00000000e+00, 0.00000000e+00, 0.00000000e+00, -3.87277493e-02, -8.75973495e-04, 6.09902124e-02, 0.00000000e+00, 1.34134285e+02, -6.46794090e+00, -6.58553815e+00, -6.77462718e+00, -5.92270421e+00, 0.00000000e+00, 2.0000000000, 10.0000000000, 0.0232067982
        3354, 6.09938677e-02, 4.54849187e-04, 0.00000000e+00, 0.00000000e+00, 0.00000000e+00, -3.87267241e-02, -8.75833267e-04, 6.09892753e-02, 0.00000000e+00, 1.34096904e+02, -6.47453624e+00, -6.59466200e+00, -6.78263464e+00, -5.92944747e+00, 0.00000000e+00, 2.0000000000, 10.0000000000, 0.0234700004
        3355, 6.09929617e-02, 4.54852732e-04, 0.00000000e+00, 0.00000000e+00, 0.00000000e+00, -3.87258813e-02, -8.75809958e-04, 6.09883696e-02, 0.00000000e+00, 1.34093867e+02, -6.48163064e+00, -6.60406247e+00, -6.79132858e+00, -5.93670422e+00, 0.00000000e+00, 2.0000000000, 10.0000000000, 0.0237407645
        3356, 6.09920533e-02, 4.54761728e-04, 0.00000000e+00, 0.00000000e+00, 0.00000000e+00, -3.87252046e-02, -8.75881123e-04, 6.09874594e-02, 0.00000000e+00, 1.34118703e+02, -6.48933524e+00, -6.61427768e+00, -6.80078265e+00, -5.94464734e+00, 0.00000000e+00, 2.0000000000, 10.0000000000, 0.0240051508
        3357, 6.09911338e-02, 4.54604864e-04, 0.00000000e+00, 0.00000000e+00, 0.00000000e+00, -3.87246621e-02, -8.76017893e-04, 6.09865368e-02, 0.00000000e+00, 1.34162959e+02, -6.49777116e+00, -6.62591166e+00, -6.81116217e+00, -5.95346851e+00, 0.00000000e+00, 2.0000000000, 10.0000000000, 0.0244261662
        3358, 6.09902192e-02, 4.54413499e-04, 0.00000000e+00, 0.00000000e+00, 0.00000000e+00, -3.87242144e-02, -8.76189259e-04, 6.09856182e-02, 0.00000000e+00, 1.34217446e+02, -6.50706799e+00, -6.63945759e+00, -6.82267258e+00, -5.96334957e+00, 0.00000000e+00, 2.0000000000, 10.0000000000, 0.0248491486
        3359, 6.09893322e-02, 4.54216980e-04, 0.00000000e+00, 0.00000000e+00, 0.00000000e+00, -3.87238256e-02, -8.76366382e-04, 6.09847271e-02, 0.00000000e+00, 1.34273563e+02, -6.51739307e+00, -6.65534938e+00, -6.83559204e+00, -5.97450048e+00, 0.00000000e+00, 2.0000000000, 10.0000000000, 0.0251997670
        3360, 6.09885012e-02, 4.54039370e-04, 0.00000000e+00, 0.00000000e+00, 0.00000000e+00, -3.87234680e-02, -8.76525821e-04, 6.09838924e-02, 0.00000000e+00, 1.34324257e+02, -6.52898025e+00, -6.67414069e+00, -6.85030976e+00, -5.98720381e+00, 0.00000000e+00, 2.0000000000, 10.0000000000, 0.0255020658
        3361, 6.09877480e-02, 4.53897844e-04, 0.00000000e+00, 0.00000000e+00, 0.00000000e+00, -3.87231218e-02, -8.76650883e-04, 6.09831363e-02, 0.00000000e+00, 1.34364481e+02, -6.54205606e+00, -6.69638464e+00, -6.86721021e+00, -6.00172204e+00, 0.00000000e+00, 2.0000000000, 10.0000000000, 0.0257887324
        3362, 6.09870910e-02, 4.53802080e-04, 0.00000000e+00, 0.00000000e+00, 0.00000000e+00, -3.87227735e-02, -8.76732292e-04, 6.09824774e-02, 0.00000000e+00, 1.34391387e+02, -6.55678125e+00, -6.72256333e+00, -6.88657469e+00, -6.01822391e+00, 0.00000000e+00, 2.0000000000, 10.0000000000, 0.0260502338
        3363, 6.09865435e-02, 4.53754539e-04, 0.00000000e+00, 0.00000000e+00, 0.00000000e+00, -3.87224148e-02, -8.76767877e-04, 6.09819289e-02, 0.00000000e+00, 1.34404261e+02, -6.57323429e+00, -6.75309045e+00, -6.90852182e+00, -6.03677341e+00, 0.00000000e+00, 2.0000000000, 10.0000000000, 0.0263187170
        3364, 6.09861167e-02, 4.53752688e-04, 0.00000000e+00, 0.00000000e+00, 0.00000000e+00, -3.87220381e-02, -8.76760417e-04, 6.09815022e-02, 0.00000000e+00, 1.34403869e+02, -6.59140281e+00, -6.78831953e+00, -6.93297630e+00, -6.05732394e+00, 0.00000000e+00, 2.0000000000, 10.0000000000, 0.0265851816
        3365, 6.09858317e-02, 4.53790673e-04, 0.00000000e+00, 0.00000000e+00, 0.00000000e+00, -3.87216340e-02, -8.76716224e-04, 6.09812181e-02, 0.00000000e+00, 1.34391990e+02, -6.61119947e+00, -6.82860161e+00, -6.95967394e+00, -6.07974779e+00, 0.00000000e+00, 2.0000000000, 10.0000000000, 0.0268507997
        3366, 6.09857070e-02, 4.53858975e-04, 0.00000000e+00, 0.00000000e+00, 0.00000000e+00, -3.87211974e-02, -8.76645218e-04, 6.09810949e-02, 0.00000000e+00, 1.34371491e+02, -6.63243438e+00, -6.87422443e+00, -6.98814678e+00, -6.10379107e+00, 0.00000000e+00, 2.0000000000, 10.0000000000, 0.0271172325
        3367, 6.09857701e-02, 4.53948865e-04, 0.00000000e+00, 0.00000000e+00, 0.00000000e+00, -3.87207181e-02, -8.76556725e-04, 6.09811599e-02, 0.00000000e+00, 1.34345022e+02, -6.65480721e+00, -6.92537260e+00, -7.01762393e+00, -6.12907454e+00, 0.00000000e+00, 2.0000000000, 10.0000000000, 0.0273867647
        3368, 6.09860647e-02, 4.54051805e-04, 0.00000000e+00, 0.00000000e+00, 0.00000000e+00, -3.87201872e-02, -8.76460236e-04, 6.09814567e-02, 0.00000000e+00, 1.34315212e+02, -6.67764526e+00, -6.98128846e+00, -7.04671339e+00, -6.15477351e+00, 0.00000000e+00, 2.0000000000, 10.0000000000, 0.0276967843
        3369, 6.09865872e-02, 4.54160453e-04, 0.00000000e+00, 0.00000000e+00, 0.00000000e+00, -3.87196023e-02, -8.76363012e-04, 6.09819815e-02, 0.00000000e+00, 1.34284231e+02, -6.69959473e+00, -7.03786250e+00, -7.07261600e+00, -6.17917564e+00, 0.00000000e+00, 2.0000000000, 10.0000000000, 0.0279751499
        3370, 6.09873217e-02, 4.54271763e-04, 0.00000000e+00, 0.00000000e+00, 0.00000000e+00, -3.87189854e-02, -8.76267752e-04, 6.09827182e-02, 0.00000000e+00, 1.34252944e+02, -6.71777637e+00, -7.08320094e+00, -7.09029964e+00, -6.19816227e+00, 0.00000000e+00, 2.0000000000, 10.0000000000, 0.0282512983