TITLE = "Visualization of the volumetric solution"
VARIABLES = "x""y""Conservative_1""Conservative_2""Conservative_3""Conservative_4""Pressure""Temperature""C<sub>p</sub>""Mach"
ZONE NODES= 5233, ELEMENTS= 10216, DATAPACKING=POINT, ZONETYPE=FEQUADRILATERAL
9.997500e-01	-3.632897e-05	1.186904e+00	7.475524e-01	1.005057e-01	3.415596e+00	1.270369e+00	1.070322e+00	6.035032e-01	5.191524e-01	
9.990000e-01	-1.452538e-04	1.162738e+00	7.721275e-01	1.098444e-01	3.353701e+00	1.236857e+00	1.063745e+00	5.286997e-01	5.496358e-01	
9.977600e-01	-3.251112e-04	1.147865e+00	7.948762e-01	1.139998e-01	3.317279e+00	1.214560e+00	1.058103e+00	4.789282e-01	5.747801e-01	
9.960200e-01	-5.769984e-04	1.135663e+00	8.125057e-01	1.165807e-01	3.287369e+00	1.196293e+00	1.053388e+00	4.381543e-01	5.951741e-01	
9.937800e-01	-9.004365e-04	1.125261e+00	8.260124e-01	1.186868e-01	3.261692e+00	1.180904e+00	1.049449e+00	4.038038e-01	6.118234e-01	
9.910500e-01	-1.293364e-03	1.116258e+00	8.373033e-01	1.200599e-01	3.239462e+00	1.167590e+00	1.045986e+00	3.740849e-01	6.261965e-01	
9.878400e-01	-1.753610e-03	1.108016e+00	8.466973e-01	1.209681e-01	3.218968e+00	1.155544e+00	1.042895e+00	3.471964e-01	6.388305e-01	
9.841300e-01	-2.283177e-03	1.100490e+00	8.550376e-01	1.216210e-01	3.200252e+00	1.144547e+00	1.040034e+00	3.226487e-01	6.503706e-01	
9.799500e-01	-2.876826e-03	1.093470e+00	8.624248e-01	1.220556e-01	3.182747e+00	1.134334e+00	1.037372e+00	2.998532e-01	6.609822e-01	
9.752800e-01	-3.536324e-03	1.086874e+00	8.691212e-01	1.222942e-01	3.166280e+00	1.124761e+00	1.034859e+00	2.784838e-01	6.708943e-01	
9.701500e-01	-4.256269e-03	1.080619e+00	8.752340e-01	1.223665e-01	3.150640e+00	1.115708e+00	1.032471e+00	2.582766e-01	6.802243e-01	
9.645400e-01	-5.038225e-03	1.074648e+00	8.808661e-01	1.222959e-01	3.135688e+00	1.107086e+00	1.030185e+00	2.390317e-01	6.890770e-01	
9.584700e-01	-5.878077e-03	1.068921e+00	8.860980e-01	1.220921e-01	3.121328e+00	1.098833e+00	1.027984e+00	2.206099e-01	6.975301e-01	
9.519400e-01	-6.774429e-03	1.063400e+00	8.909708e-01	1.217679e-01	3.107468e+00	1.090898e+00	1.025859e+00	2.028982e-01	7.056307e-01	
9.449600e-01	-7.724467e-03	1.058065e+00	8.955407e-01	1.213332e-01	3.094058e+00	1.083244e+00	1.023797e+00	1.858125e-01	7.134309e-01	
9.375400e-01	-8.725349e-03	1.052895e+00	8.998356e-01	1.207968e-01	3.081048e+00	1.075842e+00	1.021794e+00	1.692900e-01	7.209595e-01	
9.296900e-01	-9.774221e-03	1.047869e+00	9.038900e-01	1.201657e-01	3.068386e+00	1.068660e+00	1.019841e+00	1.532583e-01	7.282537e-01	
9.214000e-01	-1.087086e-02	1.042969e+00	9.077290e-01	1.194508e-01	3.056030e+00	1.061671e+00	1.017932e+00	1.376579e-01	7.353426e-01	
9.127000e-01	-1.200973e-02	1.038186e+00	9.113726e-01	1.186531e-01	3.043958e+00	1.054861e+00	1.016062e+00	1.224585e-01	7.422435e-01	
9.035800e-01	-1.319056e-02	1.033504e+00	9.148272e-01	1.177800e-01	3.032124e+00	1.048210e+00	1.014229e+00	1.076106e-01	7.489706e-01	
8.940600e-01	-1.440916e-02	1.028920e+00	9.181268e-01	1.168353e-01	3.020529e+00	1.041705e+00	1.012426e+00	9.309247e-02	7.555509e-01	
8.841500e-01	-1.566269e-02	1.024426e+00	9.212741e-01	1.158254e-01	3.009152e+00	1.035340e+00	1.010654e+00	7.888402e-02	7.619888e-01	
8.738500e-01	-1.694956e-02	1.020000e+00	9.242684e-01	1.147517e-01	2.997934e+00	1.029087e+00	1.008909e+00	6.492716e-02	7.682975e-01	
8.631800e-01	-1.826569e-02	1.015651e+00	9.271511e-01	1.136200e-01	2.986902e+00	1.022946e+00	1.007183e+00	5.121887e-02	7.745060e-01	
8.521600e-01	-1.960709e-02	1.011354e+00	9.299069e-01	1.124331e-01	2.975991e+00	1.016893e+00	1.005477e+00	3.770685e-02	7.806166e-01	
8.407700e-01	-2.097463e-02	1.007107e+00	9.325586e-01	1.111968e-01	2.965198e+00	1.010918e+00	1.003784e+00	2.437038e-02	7.866509e-01	
8.290500e-01	-2.236196e-02	1.002896e+00	9.351031e-01	1.099052e-01	2.954486e+00	1.005007e+00	1.002105e+00	1.117673e-02	7.926144e-01	
8.170100e-01	-2.376642e-02	9.987226e-01	9.375588e-01	1.085647e-01	2.943860e+00	9.991554e-01	1.000433e+00	-1.885325e-03	7.985237e-01	
8.046400e-01	-2.518764e-02	9.945774e-01	9.399201e-01	1.071747e-01	2.933295e+00	9.933547e-01	9.987707e-01	-1.483322e-02	8.043787e-01	
7.919700e-01	-2.662063e-02	9.904597e-01	9.421910e-01	1.057318e-01	2.922789e+00	9.876034e-01	9.971162e-01	-2.767101e-02	8.101823e-01	
7.790100e-01	-2.806277e-02	9.863673e-01	9.443922e-01	1.042374e-01	2.912342e+00	9.818931e-01	9.954640e-01	-4.041724e-02	8.159554e-01	
7.657800e-01	-2.951034e-02	9.822864e-01	9.465222e-01	1.026942e-01	2.901916e+00	9.762073e-01	9.938113e-01	-5.310867e-02	8.217087e-01	
7.522800e-01	-3.096181e-02	9.781847e-01	9.485758e-01	1.010962e-01	2.891423e+00	9.705069e-01	9.921510e-01	-6.583278e-02	8.274674e-01	
7.385200e-01	-3.241453e-02	9.740621e-01	9.505768e-01	9.944572e-02	2.880868e+00	9.647853e-01	9.904762e-01	-7.860429e-02	8.332556e-01	
7.245300e-01	-3.386377e-02	9.699207e-01	9.525256e-01	9.773310e-02	2.870258e+00	9.590452e-01	9.887872e-01	-9.141706e-02	8.390718e-01	
7.103200e-01	-3.530689e-02	9.657535e-01	9.544048e-01	9.596394e-02	2.859569e+00	9.532824e-01	9.870867e-01	-1.042803e-01	8.449072e-01	
6.958900e-01	-3.674225e-02	9.615689e-01	9.562508e-01	9.412482e-02	2.848832e+00	9.474977e-01	9.853665e-01	-1.171925e-01	8.507898e-01	
6.812700e-01	-3.816515e-02	9.573358e-01	9.580203e-01	9.221529e-02	2.837953e+00	9.416638e-01	9.836296e-01	-1.302147e-01	8.567089e-01	
6.664700e-01	-3.957289e-02	9.530605e-01	9.597482e-01	9.023049e-02	2.826960e+00	9.357788e-01	9.818671e-01	-1.433509e-01	8.626951e-01	
6.515000e-01	-4.096270e-02	9.487239e-01	9.614283e-01	8.815936e-02	2.815797e+00	9.298199e-01	9.800743e-01	-1.566520e-01	8.687638e-01	
6.363800e-01	-4.233084e-02	9.443230e-01	9.630552e-01	8.600658e-02	2.804458e+00	9.237846e-01	9.782506e-01	-1.701237e-01	8.749163e-01	
6.211300e-01	-4.367359e-02	9.398454e-01	9.646398e-01	8.375055e-02	2.792910e+00	9.176539e-01	9.763881e-01	-1.838084e-01	8.811791e-01	
6.057600e-01	-4.498807e-02	9.352851e-01	9.661685e-01	8.140055e-02	2.781137e+00	9.114234e-01	9.744873e-01	-1.977155e-01	8.875497e-01	
5.902800e-01	-4.627133e-02	9.306338e-01	9.676534e-01	7.893115e-02	2.769118e+00	9.050790e-01	9.725404e-01	-2.118772e-01	8.940528e-01	
5.747100e-01	-4.751951e-02	9.258913e-01	9.690786e-01	7.634885e-02	2.756848e+00	8.986242e-01	9.705504e-01	-2.262853e-01	9.006781e-01	
5.590600e-01	-4.872956e-02	9.210527e-01	9.704538e-01	7.363181e-02	2.744320e+00	8.920497e-01	9.685111e-01	-2.409604e-01	9.074456e-01	
5.433600e-01	-4.989684e-02	9.161239e-01	9.717603e-01	7.078896e-02	2.731543e+00	8.853679e-01	9.664282e-01	-2.558751e-01	9.143351e-01	
5.276100e-01	-5.101898e-02	9.111253e-01	9.729949e-01	6.779820e-02	2.718570e+00	8.786058e-01	9.643084e-01	-2.709692e-01	9.213236e-01	
5.118400e-01	-5.209138e-02	9.060930e-01	9.741297e-01	6.464393e-02	2.705490e+00	8.718184e-01	9.621732e-01	-2.861196e-01	9.283410e-01	
4.960500e-01	-5.311154e-02	9.010333e-01	9.751990e-01	6.128778e-02	2.692328e+00	8.650037e-01	9.600130e-01	-3.013311e-01	9.354181e-01	
4.802700e-01	-5.407492e-02	8.958123e-01	9.762314e-01	5.774552e-02	2.678741e+00	8.579780e-01	9.577654e-01	-3.170134e-01	9.427589e-01	
4.645100e-01	-5.497836e-02	8.901394e-01	9.772692e-01	5.410301e-02	2.663975e+00	8.503468e-01	9.552963e-01	-3.340472e-01	9.507967e-01	
4.487800e-01	-5.581860e-02	8.839737e-01	9.782165e-01	5.045795e-02	2.647898e+00	8.420818e-01	9.526095e-01	-3.524961e-01	9.595137e-01	
4.331100e-01	-5.659142e-02	8.782912e-01	9.788702e-01	4.666805e-02	2.633024e+00	8.345204e-01	9.501637e-01	-3.693741e-01	9.674229e-01	
4.175000e-01	-5.729417e-02	8.749000e-01	9.790571e-01	4.239895e-02	2.624064e+00	8.300920e-01	9.487850e-01	-3.792589e-01	9.718707e-01	
4.019700e-01	-5.792324e-02	8.746165e-01	9.788780e-01	3.725250e-02	2.623191e+00	8.298455e-01	9.488107e-01	-3.798092e-01	9.717876e-01	
3.865400e-01	-5.847521e-02	8.746709e-01	9.788195e-01	3.130629e-02	2.623250e+00	8.300020e-01	9.489306e-01	-3.794599e-01	9.714013e-01	
3.712300e-01	-5.894684e-02	8.678758e-01	9.796164e-01	2.555518e-02	2.605517e+00	8.209074e-01	9.458812e-01	-3.997603e-01	9.812143e-01	
3.560400e-01	-5.933562e-02	8.473381e-01	9.809632e-01	2.143573e-02	2.551843e+00	7.934967e-01	9.364582e-01	-4.609448e-01	1.011327e+00	
3.409900e-01	-5.963848e-02	8.167259e-01	9.804381e-01	1.848555e-02	2.471399e+00	7.530826e-01	9.220751e-01	-5.511549e-01	1.056754e+00	
3.261100e-01	-5.985254e-02	7.923363e-01	9.770937e-01	1.316970e-02	2.406586e+00	7.216040e-01	9.107295e-01	-6.214196e-01	1.092213e+00	
3.114000e-01	-5.997565e-02	7.824205e-01	9.746363e-01	6.274059e-03	2.379905e+00	7.091371e-01	9.063376e-01	-6.492475e-01	1.105866e+00	
2.968700e-01	-6.000550e-02	7.823466e-01	9.741350e-01	-7.582062e-04	2.379527e+00	7.092229e-01	9.065328e-01	-6.490560e-01	1.105260e+00	
2.825500e-01	-5.994005e-02	7.856220e-01	9.744020e-01	-7.658939e-03	2.388147e+00	7.135348e-01	9.082418e-01	-6.394313e-01	1.099951e+00	
2.684500e-01	-5.977766e-02	7.891994e-01	9.749788e-01	-1.463820e-02	2.397684e+00	7.181211e-01	9.099362e-01	-6.291940e-01	1.094682e+00	
2.545700e-01	-5.951658e-02	7.925517e-01	9.754918e-01	-2.187572e-02	2.406638e+00	7.224025e-01	9.114895e-01	-6.196373e-01	1.089847e+00	
2.409400e-01	-5.915586e-02	7.961031e-01	9.759491e-01	-2.953095e-02	2.416118e+00	7.269433e-01	9.131272e-01	-6.095015e-01	1.084743e+00	
2.275700e-01	-5.869457e-02	8.000899e-01	9.763265e-01	-3.759334e-02	2.426737e+00	7.320648e-01	9.149782e-01	-5.980696e-01	1.078968e+00	
2.144700e-01	-5.813197e-02	8.044892e-01	9.766427e-01	-4.606859e-02	2.438446e+00	7.377238e-01	9.170090e-01	-5.854379e-01	1.072624e+00	
2.016600e-01	-5.746811e-02	8.091789e-01	9.768290e-01	-5.496147e-02	2.450911e+00	7.437749e-01	9.191723e-01	-5.719311e-01	1.065854e+00	
1.891400e-01	-5.670228e-02	8.141862e-01	9.768883e-01	-6.430932e-02	2.464208e+00	7.502465e-01	9.214680e-01	-5.574855e-01	1.058659e+00	
1.769300e-01	-5.583514e-02	8.196998e-01	9.767809e-01	-7.417537e-02	2.478827e+00	7.573956e-01	9.239914e-01	-5.415276e-01	1.050734e+00	
1.650400e-01	-5.486709e-02	8.259372e-01	9.764884e-01	-8.460891e-02	2.495341e+00	7.655067e-01	9.268340e-01	-5.234226e-01	1.041788e+00	
1.534900e-01	-5.379978e-02	8.328972e-01	9.759337e-01	-9.562824e-02	2.513735e+00	7.745914e-01	9.299963e-01	-5.031443e-01	1.031809e+00	
1.422900e-01	-5.263443e-02	8.404232e-01	9.750737e-01	-1.072554e-01	2.533598e+00	7.844420e-01	9.333893e-01	-4.811562e-01	1.021070e+00	
1.314400e-01	-5.137134e-02	8.483438e-01	9.737726e-01	-1.195398e-01	2.554449e+00	7.948615e-01	9.369568e-01	-4.578984e-01	1.009741e+00	
1.209500e-01	-5.001187e-02	8.567241e-01	9.720413e-01	-1.325791e-01	2.576483e+00	8.059137e-01	9.406923e-01	-4.332283e-01	9.978342e-01	
1.108500e-01	-4.856067e-02	8.657494e-01	9.697997e-01	-1.464308e-01	2.600181e+00	8.178480e-01	9.446706e-01	-4.065893e-01	9.851006e-01	
1.011300e-01	-4.701715e-02	8.754540e-01	9.668105e-01	-1.611522e-01	2.625583e+00	8.307603e-01	9.489479e-01	-3.777672e-01	9.713454e-01	
9.181000e-02	-4.538527e-02	8.858542e-01	9.629320e-01	-1.768565e-01	2.652721e+00	8.446833e-01	9.535241e-01	-3.466891e-01	9.565500e-01	
8.290000e-02	-4.366791e-02	8.970419e-01	9.580929e-01	-1.936486e-01	2.681853e+00	8.597206e-01	9.583952e-01	-3.131236e-01	9.407042e-01	
7.440000e-02	-4.186608e-02	9.090506e-01	9.520195e-01	-2.116274e-01	2.713030e+00	8.759547e-01	9.635929e-01	-2.768869e-01	9.236777e-01	
6.633000e-02	-3.998514e-02	9.220049e-01	9.444791e-01	-2.309377e-01	2.746570e+00	8.935590e-01	9.691478e-01	-2.375915e-01	9.053351e-01	
5.869000e-02	-3.802636e-02	9.359940e-01	9.350986e-01	-2.517065e-01	2.782670e+00	9.126893e-01	9.751016e-01	-1.948900e-01	8.854930e-01	
5.149000e-02	-3.599338e-02	9.511788e-01	9.234236e-01	-2.740523e-01	2.821712e+00	9.335972e-01	9.815160e-01	-1.482204e-01	8.638852e-01	
4.474000e-02	-3.389028e-02	9.677993e-01	9.088083e-01	-2.981034e-01	2.864268e+00	9.566601e-01	9.884902e-01	-9.674089e-02	8.400926e-01	
3.844000e-02	-3.171811e-02	9.860437e-01	8.904396e-01	-3.239622e-01	2.910762e+00	9.821963e-01	9.960981e-01	-3.974033e-02	8.137421e-01	
3.260000e-02	-2.948109e-02	1.006233e+00	8.673955e-01	-3.516462e-01	2.961990e+00	1.010675e+00	1.004415e+00	2.382893e-02	7.844051e-01	
2.723000e-02	-2.718420e-02	1.028804e+00	8.383086e-01	-3.809024e-01	3.019000e+00	1.042778e+00	1.013583e+00	9.548689e-02	7.513333e-01	
2.232000e-02	-2.482329e-02	1.054047e+00	8.012999e-01	-4.112417e-01	3.082400e+00	1.079039e+00	1.023710e+00	1.764257e-01	7.137594e-01	
1.790000e-02	-2.241365e-02	1.082504e+00	7.541902e-01	-4.416221e-01	3.153507e+00	1.120280e+00	1.034897e+00	2.684811e-01	6.707448e-01	
1.395000e-02	-1.994492e-02	1.114711e+00	6.942878e-01	-4.696606e-01	3.233577e+00	1.167368e+00	1.047238e+00	3.735894e-01	6.210265e-01	
1.049000e-02	-1.742916e-02	1.150757e+00	6.181762e-01	-4.914664e-01	3.322609e+00	1.220649e+00	1.060735e+00	4.925192e-01	5.631577e-01	
7.520000e-03	-1.486756e-02	1.190646e+00	5.235827e-01	-5.003078e-01	3.420597e+00	1.280144e+00	1.075168e+00	6.253224e-01	4.957535e-01	
5.040000e-03	-1.226032e-02	1.233329e+00	4.094581e-01	-4.854498e-01	3.524755e+00	1.344499e+00	1.090138e+00	7.689707e-01	4.168116e-01	
3.050000e-03	-9.605565e-03	1.276835e+00	2.809339e-01	-4.334734e-01	3.630582e+00	1.410438e+00	1.104636e+00	9.161570e-01	3.253143e-01	
1.560000e-03	-6.917518e-03	1.314445e+00	1.536782e-01	-3.330967e-01	3.721414e+00	1.468090e+00	1.116890e+00	1.044844e+00	2.231841e-01	
5.600000e-04	-4.173160e-03	1.345299e+00	4.871937e-02	-1.796767e-01	3.797479e+00	1.513839e+00	1.125281e+00	1.146962e+00	1.102514e-01	
6.000000e-05	-1.375330e-03	1.351020e+00	1.035265e-03	3.648330e-03	3.809934e+00	1.523971e+00	1.128016e+00	1.169579e+00	2.233714e-03	
0.000000e+00	0.000000e+00	1.340960e+00	6.442335e-03	1.414756e-01	3.783701e+00	1.510489e+00	1.126423e+00	1.139484e+00	8.410091e-02	
6.000000e-05	1.375330e-03	1.334249e+00	3.694104e-02	2.777932e-01	3.771046e+00	1.496646e+00	1.121715e+00	1.108586e+00	1.676046e-01	
5.600000e-04	4.173160e-03	1.303448e+00	1.200939e-01	4.499603e-01	3.699548e+00	1.446540e+00	1.109780e+00	9.967415e-01	2.866424e-01	
1.560000e-03	6.917518e-03	1.239152e+00	2.593461e-01	5.717630e-01	3.539902e+00	1.352341e+00	1.091344e+00	7.864755e-01	4.098965e-01	
3.050000e-03	9.605565e-03	1.179910e+00	4.039701e-01	6.280866e-01	3.394917e+00	1.263437e+00	1.070791e+00	5.880281e-01	5.169269e-01	
5.040000e-03	1.226032e-02	1.121337e+00	5.343792e-01	6.360787e-01	3.250142e+00	1.176961e+00	1.049605e+00	3.950032e-01	6.111683e-01	
7.520000e-03	1.486756e-02	1.067591e+00	6.407079e-01	6.134550e-01	3.115938e+00	1.098972e+00	1.029394e+00	2.209185e-01	6.921208e-01	
1.049000e-02	1.742916e-02	1.020852e+00	7.227707e-01	5.750158e-01	2.998220e+00	1.032165e+00	1.011081e+00	7.179616e-02	7.604399e-01	
1.395000e-02	1.994492e-02	9.810490e-01	7.848722e-01	5.307541e-01	2.897323e+00	9.759159e-01	9.947677e-01	-5.375917e-02	8.183818e-01	
1.790000e-02	2.241365e-02	9.470268e-01	8.309183e-01	4.861079e-01	2.810450e+00	9.284671e-01	9.804022e-01	-1.596716e-01	8.676554e-01	
2.232000e-02	2.482329e-02	9.180393e-01	8.651415e-01	4.434305e-01	2.735977e+00	8.884954e-01	9.678185e-01	-2.488942e-01	9.097389e-01	
2.723000e-02	2.718420e-02	8.930930e-01	8.904383e-01	4.040350e-01	2.671499e+00	8.544842e-01	9.567696e-01	-3.248120e-01	9.460038e-01	
3.260000e-02	2.948109e-02	8.712048e-01	9.090273e-01	3.679878e-01	2.614537e+00	8.250298e-01	9.469987e-01	-3.905585e-01	9.776224e-01	
3.844000e-02	3.171811e-02	8.519514e-01	9.228035e-01	3.352352e-01	2.564176e+00	7.993782e-01	9.382909e-01	-4.478165e-01	1.005494e+00	
4.474000e-02	3.389028e-02	8.347862e-01	9.329622e-01	3.055585e-01	2.519064e+00	7.767201e-01	9.304419e-01	-4.983926e-01	1.030400e+00	
5.149000e-02	3.599338e-02	8.193861e-01	9.403209e-01	2.786307e-01	2.478396e+00	7.565879e-01	9.233595e-01	-5.433305e-01	1.052720e+00	
5.869000e-02	3.802636e-02	8.055590e-01	9.456027e-01	2.541300e-01	2.441733e+00	7.386607e-01	9.169541e-01	-5.833467e-01	1.072795e+00	
6.633000e-02	3.998514e-02	7.929300e-01	9.492642e-01	2.317777e-01	2.408120e+00	7.224138e-01	9.110688e-01	-6.196121e-01	1.091157e+00	
7.440000e-02	4.186608e-02	7.811349e-01	9.515969e-01	2.112597e-01	2.376603e+00	7.073626e-01	9.055576e-01	-6.532085e-01	1.108286e+00	
8.290000e-02	4.366791e-02	7.700261e-01	9.529459e-01	1.923727e-01	2.346845e+00	6.932625e-01	9.003104e-01	-6.846818e-01	1.124544e+00	
9.181000e-02	4.538527e-02	7.595313e-01	9.534746e-01	1.749021e-01	2.318655e+00	6.800187e-01	8.953136e-01	-7.142440e-01	1.139983e+00	
1.011300e-01	4.701715e-02	7.497543e-01	9.533758e-01	1.586797e-01	2.292321e+00	6.677523e-01	8.906282e-01	-7.416243e-01	1.154427e+00	
1.108500e-01	4.856067e-02	7.408039e-01	9.528570e-01	1.436364e-01	2.268163e+00	6.565734e-01	8.862986e-01	-7.665771e-01	1.167749e+00	
1.209500e-01	5.001187e-02	7.325597e-01	9.519669e-01	1.296650e-01	2.245854e+00	6.463339e-01	8.822952e-01	-7.894332e-01	1.180048e+00	
1.314400e-01	5.137134e-02	7.246339e-01	9.505690e-01	1.165814e-01	2.224313e+00	6.365841e-01	8.784907e-01	-8.111961e-01	1.191720e+00	
1.422900e-01	5.263443e-02	7.167711e-01	9.488406e-01	1.042947e-01	2.202928e+00	6.269264e-01	8.746536e-01	-8.327536e-01	1.203479e+00	
1.534900e-01	5.379978e-02	7.090732e-01	9.468122e-01	9.265215e-02	2.181954e+00	6.175082e-01	8.708666e-01	-8.537763e-01	1.215073e+00	
1.650400e-01	5.486709e-02	7.019383e-01	9.447520e-01	8.174024e-02	2.162506e+00	6.087868e-01	8.672940e-01	-8.732437e-01	1.226002e+00	
1.769300e-01	5.583514e-02	6.953744e-01	9.425494e-01	7.146757e-02	2.144546e+00	6.008326e-01	8.640418e-01	-8.909988e-01	1.235944e+00	
1.891400e-01	5.670228e-02	6.891300e-01	9.402548e-01	6.185331e-02	2.127439e+00	5.932868e-01	8.609214e-01	-9.078421e-01	1.245479e+00	
2.016600e-01	5.746811e-02	6.829508e-01	9.377090e-01	5.271086e-02	2.110459e+00	5.858703e-01	8.578514e-01	-9.243967e-01	1.254855e+00	
2.144700e-01	5.813197e-02	6.769490e-01	9.351276e-01	4.403610e-02	2.093972e+00	5.786616e-01	8.548083e-01	-9.404875e-01	1.264147e+00	
2.275700e-01	5.869457e-02	6.713338e-01	9.325404e-01	3.577615e-02	2.078516e+00	5.719492e-01	8.519595e-01	-9.554706e-01	1.272844e+00	
2.409400e-01	5.915586e-02	6.662857e-01	9.301585e-01	2.800399e-02	2.064626e+00	5.659082e-01	8.493478e-01	-9.689548e-01	1.280815e+00	
2.545700e-01	5.951658e-02	6.617529e-01	9.278784e-01	2.065300e-02	2.052124e+00	5.605153e-01	8.470159e-01	-9.809927e-01	1.287932e+00	
2.684500e-01	5.977766e-02	6.576492e-01	9.257400e-01	1.373321e-02	2.040799e+00	5.556386e-01	8.448859e-01	-9.918782e-01	1.294433e+00	
2.825500e-01	5.994005e-02	6.538254e-01	9.236285e-01	7.164327e-03	2.030221e+00	5.511194e-01	8.429153e-01	-1.001966e+00	1.300447e+00	
2.968700e-01	6.000550e-02	6.501845e-01	9.215260e-01	9.273718e-04	2.020134e+00	5.468320e-01	8.410414e-01	-1.011536e+00	1.306166e+00	
3.114000e-01	5.997565e-02	6.466879e-01	9.194611e-01	-4.995454e-03	2.010448e+00	5.427135e-01	8.392201e-01	-1.020729e+00	1.311726e+00	
3.261100e-01	5.985254e-02	6.432416e-01	9.173086e-01	-1.063327e-02	2.000871e+00	5.386838e-01	8.374518e-01	-1.029724e+00	1.317124e+00	
3.409900e-01	5.963848e-02	6.398614e-01	9.151876e-01	-1.597706e-02	1.991491e+00	5.347196e-01	8.356804e-01	-1.038572e+00	1.322532e+00	
3.560400e-01	5.933562e-02	6.365878e-01	9.130907e-01	-2.109059e-02	1.982403e+00	5.308828e-01	8.339506e-01	-1.047137e+00	1.327814e+00	
3.712300e-01	5.894684e-02	6.335654e-01	9.111098e-01	-2.592414e-02	1.974009e+00	5.273440e-01	8.323434e-01	-1.055036e+00	1.332723e+00	
3.865400e-01	5.847521e-02	6.308656e-01	9.092545e-01	-3.050179e-02	1.966491e+00	5.242032e-01	8.309269e-01	-1.062046e+00	1.337049e+00	
4.019700e-01	5.792324e-02	6.283560e-01	9.074885e-01	-3.479545e-02	1.959497e+00	5.212895e-01	8.296085e-01	-1.068550e+00	1.341077e+00	
4.175000e-01	5.729417e-02	6.258526e-01	9.056672e-01	-3.886915e-02	1.952502e+00	5.184009e-01	8.283114e-01	-1.074998e+00	1.345040e+00	
4.331100e-01	5.659142e-02	6.233294e-01	9.038265e-01	-4.275304e-02	1.945455e+00	5.154861e-01	8.269882e-01	-1.081504e+00	1.349084e+00	
4.487800e-01	5.581860e-02	6.208535e-01	9.019679e-01	-4.648673e-02	1.938525e+00	5.126405e-01	8.257028e-01	-1.087856e+00	1.353013e+00	
4.645100e-01	5.497836e-02	6.185997e-01	9.003440e-01	-5.001631e-02	1.932256e+00	5.100116e-01	8.244614e-01	-1.093724e+00	1.356809e+00	
4.802700e-01	5.407492e-02	6.165519e-01	8.986884e-01	-5.342339e-02	1.926496e+00	5.076864e-01	8.234285e-01	-1.098914e+00	1.359968e+00	
4.960500e-01	5.311154e-02	6.149223e-01	8.975203e-01	-5.657097e-02	1.921992e+00	5.057576e-01	8.224739e-01	-1.103220e+00	1.362887e+00	
5.118400e-01	5.209138e-02	6.134113e-01	8.961759e-01	-5.962221e-02	1.917714e+00	5.040693e-01	8.217477e-01	-1.106988e+00	1.365109e+00	
5.276100e-01	5.101898e-02	6.120775e-01	8.951877e-01	-6.250030e-02	1.914031e+00	5.024866e-01	8.209525e-01	-1.110521e+00	1.367542e+00	
5.433600e-01	4.989684e-02	6.113874e-01	8.947441e-01	-6.554257e-02	1.912203e+00	5.015905e-01	8.204134e-01	-1.112521e+00	1.369191e+00	
5.590600e-01	4.872956e-02	6.121816e-01	8.946805e-01	-6.808796e-02	1.914251e+00	5.026774e-01	8.211247e-01	-1.110095e+00	1.367015e+00	
5.747100e-01	4.751951e-02	6.132419e-01	8.946436e-01	-7.074542e-02	1.916987e+00	5.041277e-01	8.220700e-01	-1.106858e+00	1.364123e+00	
5.902800e-01	4.627133e-02	6.106065e-01	8.969207e-01	-7.006121e-02	1.911297e+00	4.994132e-01	8.178970e-01	-1.117381e+00	1.376893e+00	
6.057600e-01	4.498807e-02	6.054514e-01	8.773261e-01	-7.208130e-02	1.890236e+00	5.001213e-01	8.260304e-01	-1.115801e+00	1.352012e+00	
6.211300e-01	4.367359e-02	6.866873e-01	9.042139e-01	-9.327401e-02	2.108389e+00	6.026922e-01	8.776807e-01	-8.868478e-01	1.194203e+00	
6.363800e-01	4.233084e-02	8.884572e-01	8.874398e-01	-7.119127e-02	2.632933e+00	8.747476e-01	9.845692e-01	-2.795813e-01	8.535092e-01	
6.515000e-01	4.096270e-02	9.966299e-01	8.798898e-01	-7.885721e-02	2.922404e+00	1.012349e+00	1.015772e+00	2.756440e-02	7.433090e-01	
6.664700e-01	3.957289e-02	9.948731e-01	8.839260e-01	-8.204310e-02	2.918743e+00	1.009074e+00	1.014274e+00	2.025395e-02	7.488059e-01	
6.812700e-01	3.816515e-02	9.849845e-01	8.864264e-01	-8.537654e-02	2.892716e+00	9.960602e-01	1.011245e+00	-8.794183e-03	7.598473e-01	
6.958900e-01	3.674225e-02	9.850832e-01	8.856840e-01	-8.722912e-02	2.892838e+00	9.963275e-01	1.011415e+00	-8.197480e-03	7.592301e-01	
7.103200e-01	3.530689e-02	9.866193e-01	8.846605e-01	-8.878123e-02	2.896769e+00	9.984620e-01	1.012003e+00	-3.433098e-03	7.570910e-01	
7.245300e-01	3.386377e-02	9.871139e-01	8.837850e-01	-9.058916e-02	2.897929e+00	9.992543e-01	1.012299e+00	-1.664446e-03	7.560152e-01	
7.385200e-01	3.241453e-02	9.879975e-01	8.828171e-01	-9.233919e-02	2.900118e+00	1.000554e+00	1.012709e+00	1.237000e-03	7.545209e-01	
7.522800e-01	3.096181e-02	9.895126e-01	8.814814e-01	-9.394489e-02	2.903919e+00	1.002735e+00	1.013362e+00	6.104198e-03	7.521388e-01	
7.657800e-01	2.951034e-02	9.914301e-01	8.799986e-01	-9.547088e-02	2.908772e+00	1.005452e+00	1.014143e+00	1.216910e-02	7.492853e-01	
7.790100e-01	2.806277e-02	9.935747e-01	8.782858e-01	-9.693374e-02	2.914184e+00	1.008507e+00	1.015029e+00	1.898922e-02	7.460383e-01	
7.919700e-01	2.662063e-02	9.959809e-01	8.764177e-01	-9.834696e-02	2.920267e+00	1.011923e+00	1.016007e+00	2.661420e-02	7.424465e-01	
8.046400e-01	2.518764e-02	9.985999e-01	8.743896e-01	-9.970039e-02	2.926891e+00	1.015640e+00	1.017064e+00	3.491001e-02	7.385508e-01	
8.170100e-01	2.376642e-02	1.001400e+00	8.721643e-01	-1.009865e-01	2.933960e+00	1.019626e+00	1.018200e+00	4.380803e-02	7.343480e-01	
8.290500e-01	2.236196e-02	1.004379e+00	8.697634e-01	-1.022293e-01	2.941475e+00	1.023871e+00	1.019407e+00	5.328363e-02	7.298691e-01	
8.407700e-01	2.097463e-02	1.007526e+00	8.672297e-01	-1.034079e-01	2.949421e+00	1.028352e+00	1.020670e+00	6.328550e-02	7.251647e-01	
8.521600e-01	1.960709e-02	1.010815e+00	8.644824e-01	-1.045249e-01	2.957703e+00	1.033053e+00	1.022000e+00	7.377809e-02	7.201894e-01	
8.631800e-01	1.826569e-02	1.014259e+00	8.615792e-01	-1.055826e-01	2.966376e+00	1.037976e+00	1.023384e+00	8.476735e-02	7.149900e-01	
8.738500e-01	1.694956e-02	1.017830e+00	8.584674e-01	-1.065774e-01	2.975353e+00	1.043098e+00	1.024826e+00	9.620034e-02	7.095468e-01	
8.841500e-01	1.566269e-02	1.021549e+00	8.551869e-01	-1.075088e-01	2.984700e+00	1.048434e+00	1.026318e+00	1.081107e-01	7.038854e-01	
8.940600e-01	1.440916e-02	1.025392e+00	8.516950e-01	-1.083729e-01	2.994344e+00	1.053963e+00	1.027863e+00	1.204522e-01	6.979916e-01	
9.035800e-01	1.319056e-02	1.029379e+00	8.480131e-01	-1.091685e-01	3.004346e+00	1.059703e+00	1.029458e+00	1.332648e-01	6.918756e-01	
9.127000e-01	1.200973e-02	1.033496e+00	8.441035e-01	-1.098831e-01	3.014660e+00	1.065644e+00	1.031106e+00	1.465264e-01	6.855200e-01	
9.214000e-01	1.087086e-02	1.037756e+00	8.399583e-01	-1.105223e-01	3.025320e+00	1.071802e+00	1.032807e+00	1.602719e-01	6.789162e-01	
9.296900e-01	9.774221e-03	1.042163e+00	8.355694e-01	-1.110728e-01	3.036338e+00	1.078182e+00	1.034562e+00	1.745126e-01	6.720605e-01	
9.375400e-01	8.725349e-03	1.046722e+00	8.309086e-01	-1.115336e-01	3.047724e+00	1.084794e+00	1.036373e+00	1.892730e-01	6.649326e-01	
9.449600e-01	7.724467e-03	1.051444e+00	8.259509e-01	-1.118932e-01	3.059504e+00	1.091657e+00	1.038246e+00	2.045911e-01	6.575113e-01	
9.519400e-01	6.774429e-03	1.056343e+00	8.206585e-01	-1.121456e-01	3.071713e+00	1.098792e+00	1.040185e+00	2.205183e-01	6.497642e-01	
9.584700e-01	5.878077e-03	1.061436e+00	8.150068e-01	-1.122807e-01	3.084390e+00	1.106223e+00	1.042194e+00	2.371042e-01	6.416699e-01	
9.645400e-01	5.038225e-03	1.066739e+00	8.089279e-01	-1.122908e-01	3.097568e+00	1.113978e+00	1.044284e+00	2.544154e-01	6.331739e-01	
9.701500e-01	4.256269e-03	1.072284e+00	8.023877e-01	-1.121596e-01	3.111335e+00	1.122103e+00	1.046461e+00	2.725506e-01	6.242393e-01	
9.752800e-01	3.536324e-03	1.078100e+00	7.952840e-01	-1.118798e-01	3.125753e+00	1.130647e+00	1.048741e+00	2.916232e-01	6.147814e-01	
9.799500e-01	2.876826e-03	1.084243e+00	7.875209e-01	-1.114256e-01	3.140962e+00	1.139694e+00	1.051142e+00	3.118171e-01	6.047066e-01	
9.841300e-01	2.283177e-03	1.090783e+00	7.789594e-01	-1.107569e-01	3.157128e+00	1.149346e+00	1.053689e+00	3.333623e-01	5.938851e-01	
9.878400e-01	1.753610e-03	1.097792e+00	7.693123e-01	-1.098709e-01	3.174407e+00	1.159740e+00	1.056429e+00	3.565615e-01	5.820804e-01	
9.910500e-01	1.293364e-03	1.105465e+00	7.584776e-01	-1.086847e-01	3.193327e+00	1.171113e+00	1.059385e+00	3.819485e-01	5.691417e-01	
9.937800e-01	9.004365e-04	1.113798e+00	7.454544e-01	-1.069960e-01	3.213700e+00	1.183639e+00	1.062705e+00	4.099086e-01	5.543350e-01	
9.960200e-01	5.769984e-04	1.123486e+00	7.300753e-01	-1.045570e-01	3.237443e+00	1.198146e+00	1.066454e+00	4.422902e-01	5.372465e-01	
9.977600e-01	3.251112e-04	1.134605e+00	7.102463e-01	-1.014653e-01	3.264444e+00	1.215042e+00	1.070894e+00	4.800045e-01	5.164331e-01	
9.990000e-01	1.452538e-04	1.148600e+00	6.839124e-01	-9.599436e-02	3.298421e+00	1.236319e+00	1.076370e+00	5.274981e-01	4.898050e-01	
9.997500e-01	3.632897e-05	1.164517e+00	6.468057e-01	-9.491395e-02	3.336415e+00	1.261168e+00	1.082996e+00	5.829642e-01	4.559074e-01	
1.000000e+00	0.000000e+00	1.160053e+00	6.414405e-01	8.559230e-03	3.322074e+00	1.257881e+00	1.084331e+00	5.756278e-01	4.488201e-01	
1.984229e+01	2.506660e+00	9.989988e-01	9.452113e-01	1.803124e-02	2.945109e+00	9.991147e-01	1.000116e+00	-1.976099e-03	7.997490e-01	
1.937166e+01	4.973800e+00	9.996897e-01	9.466552e-01	1.818944e-02	2.947220e+00	9.995351e-01	9.998454e-01	-1.037661e-03	8.005277e-01	
1.859553e+01	7.362490e+00	9.997379e-01	9.467102e-01	1.845330e-02	2.947406e+00	9.995952e-01	9.998573e-01	-9.035884e-04	8.005351e-01	
1.752613e+01	9.635070e+00	9.996048e-01	9.466527e-01	1.847161e-02	2.947065e+00	9.994566e-01	9.998518e-01	-1.212890e-03	8.005956e-01	
1.618034e+01	1.175571e+01	9.995060e-01	9.467482e-01	1.848374e-02	2.946832e+00	9.993094e-01	9.998033e-01	-1.541614e-03	8.007751e-01	
1.457937e+01	1.369094e+01	9.993833e-01	9.468127e-01	1.847562e-02	2.946513e+00	9.991353e-01	9.997518e-01	-1.930180e-03	8.009484e-01	
1.274848e+01	1.541027e+01	9.992380e-01	9.468267e-01	1.846640e-02	2.946079e+00	9.989304e-01	9.996922e-01	-2.387491e-03	8.011004e-01	
1.071654e+01	1.688656e+01	9.990574e-01	9.468007e-01	1.845911e-02	2.945513e+00	9.986815e-01	9.996238e-01	-2.943119e-03	8.012506e-01	
8.515590e+00	1.809654e+01	9.988618e-01	9.467256e-01	1.848112e-02	2.944858e+00	9.984126e-01	9.995503e-01	-3.543328e-03	8.013738e-01	
6.180340e+00	1.902113e+01	9.987275e-01	9.466615e-01	1.851602e-02	2.944385e+00	9.982235e-01	9.994954e-01	-3.965361e-03	8.014498e-01	
3.747630e+00	1.964575e+01	9.986572e-01	9.465942e-01	1.871741e-02	2.944081e+00	9.981132e-01	9.994553e-01	-4.211678e-03	8.014688e-01	
1.255810e+00	1.996053e+01	9.987356e-01	9.464850e-01	1.905322e-02	2.944229e+00	9.982253e-01	9.994890e-01	-3.961453e-03	8.013055e-01	
-1.255810e+00	1.996053e+01	9.989265e-01	9.462341e-01	1.942982e-02	2.944599e+00	9.984996e-01	9.995727e-01	-3.349005e-03	8.009131e-01	
-3.747630e+00	1.964574e+01	9.992849e-01	9.461435e-01	1.984074e-02	2.945616e+00	9.990022e-01	9.997170e-01	-2.227310e-03	8.004986e-01	
-6.180340e+00	1.902113e+01	9.995854e-01	9.462031e-01	2.017535e-02	2.946597e+00	9.994232e-01	9.998378e-01	-1.287529e-03	8.002660e-01	
-8.515590e+00	1.809654e+01	9.998317e-01	9.463580e-01	2.046918e-02	2.947485e+00	9.997614e-01	9.999297e-01	-5.326849e-04	8.001683e-01	
-1.071654e+01	1.688656e+01	9.999732e-01	9.463613e-01	2.060766e-02	2.947934e+00	9.999639e-01	9.999907e-01	-8.049477e-05	8.000360e-01	
-1.274848e+01	1.541026e+01	1.000064e+00	9.463610e-01	2.069885e-02	2.948213e+00	1.000091e+00	1.000027e+00	2.036812e-04	7.999500e-01	
-1.457937e+01	1.369094e+01	1.000125e+00	9.463606e-01	2.074035e-02	2.948395e+00	1.000175e+00	1.000050e+00	3.898691e-04	7.998930e-01	
-1.618034e+01	1.175570e+01	1.000154e+00	9.463434e-01	2.075012e-02	2.948470e+00	1.000216e+00	1.000062e+00	4.828709e-04	7.998503e-01	
-1.752613e+01	9.635070e+00	1.000173e+00	9.463316e-01	2.074542e-02	2.948515e+00	1.000242e+00	1.000069e+00	5.403326e-04	7.998224e-01	
-1.859553e+01	7.362490e+00	1.000182e+00	9.463190e-01	2.072829e-02	2.948531e+00	1.000255e+00	1.000073e+00	5.694780e-04	7.998025e-01	
-1.937166e+01	4.973800e+00	1.000190e+00	9.463097e-01	2.070584e-02	2.948546e+00	1.000266e+00	1.000076e+00	5.940878e-04	7.997866e-01	
-1.984229e+01	2.506660e+00	1.000199e+00	9.463021e-01	2.067886e-02	2.948566e+00	1.000279e+00	1.000080e+00	6.229260e-04	7.997709e-01	