# vtk DataFile Version 3.0
vtk output
ASCII
DATASET UNSTRUCTURED_GRID
POINTS 5233 float
9.997500e-01	-3.632897e-05	0.0	9.990000e-01	-1.452538e-04	0.0	9.977600e-01	-3.251112e-04	0.0	9.960200e-01	-5.769984e-04	0.0	9.937800e-01	-9.004365e-04	0.0	9.910500e-01	-1.293364e-03	0.0	9.878400e-01	-1.753610e-03	0.0	9.841300e-01	-2.283177e-03	0.0	9.799500e-01	-2.876826e-03	0.0	9.752800e-01	-3.536324e-03	0.0	9.701500e-01	-4.256269e-03	0.0	9.645400e-01	-5.038225e-03	0.0	9.584700e-01	-5.878077e-03	0.0	9.519400e-01	-6.774429e-03	0.0	9.449600e-01	-7.724467e-03	0.0	9.375400e-01	-8.725349e-03	0.0	9.296900e-01	-9.774221e-03	0.0	9.214000e-01	-1.087086e-02	0.0	9.127000e-01	-1.200973e-02	0.0	9.035800e-01	-1.319056e-02	0.0	8.940600e-01	-1.440916e-02	0.0	8.841500e-01	-1.566269e-02	0.0	8.738500e-01	-1.694956e-02	0.0	8.631800e-01	-1.826569e-02	0.0	8.521600e-01	-1.960709e-02	0.0	8.407700e-01	-2.097463e-02	0.0	8.290500e-01	-2.236196e-02	0.0	8.170100e-01	-2.376642e-02	0.0	8.046400e-01	-2.518764e-02	0.0	7.919700e-01	-2.662063e-02	0.0	7.790100e-01	-2.806277e-02	0.0	7.657800e-01	-2.951034e-02	0.0	7.522800e-01	-3.096181e-02	0.0	7.385200e-01	-3.241453e-02	0.0	7.245300e-01	-3.386377e-02	0.0	7.103200e-01	-3.530689e-02	0.0	6.958900e-01	-3.674225e-02	0.0	6.812700e-01	-3.816515e-02	0.0	6.664700e-01	-3.957289e-02	0.0	6.515000e-01	-4.096270e-02	0.0	6.363800e-01	-4.233084e-02	0.0	6.211300e-01	-4.367359e-02	0.0	6.057600e-01	-4.498807e-02	0.0	5.902800e-01	-4.627133e-02	0.0	5.747100e-01	-4.751951e-02	0.0	5.590600e-01	-4.872956e-02	0.0	5.433600e-01	-4.989684e-02	0.0	5.276100e-01	-5.101898e-02	0.0	5.118400e-01	-5.209138e-02	0.0	4.960500e-01	-5.311154e-02	0.0	4.802700e-01	-5.407492e-02	0.0	4.645100e-01	-5.497836e-02	0.0	4.487800e-01	-5.581860e-02	0.0	4.331100e-01	-5.659142e-02	0.0	4.175000e-01	-5.729417e-02	0.0	4.019700e-01	-5.792324e-02	0.0	3.865400e-01	-5.847521e-02	0.0	3.712300e-01	-5.894684e-02	0.0	3.560400e-01	-5.933562e-02	0.0	3.409900e-01	-5.963848e-02	0.0	3.261100e-01	-5.985254e-02	0.0	3.114000e-01	-5.997565e-02	0.0	2.968700e-01	-6.000550e-02	0.0	2.825500e-01	-5.994005e-02	0.0	2.684500e-01	-5.977766e-02	0.0	2.545700e-01	-5.951658e-02	0.0	2.409400e-01	-5.915586e-02	0.0	2.275700e-01	-5.869457e-02	0.0	2.144700e-01	-5.813197e-02	0.0	2.016600e-01	-5.746811e-02	0.0	1.891400e-01	-5.670228e-02	0.0	1.769300e-01	-5.583514e-02	0.0	1.650400e-01	-5.486709e-02	0.0	1.534900e-01	-5.379978e-02	0.0	1.422900e-01	-5.263443e-02	0.0	1.314400e-01	-5.137134e-02	0.0	1.209500e-01	-5.001187e-02	0.0	1.108500e-01	-4.856067e-02	0.0	1.011300e-01	-4.701715e-02	0.0	9.181000e-02	-4.538527e-02	0.0	8.290000e-02	-4.366791e-02	0.0	7.440000e-02	-4.186608e-02	0.0	6.633000e-02	-3.998514e-02	0.0	5.869000e-02	-3.802636e-02	0.0	5.149000e-02	-3.599338e-02	0.0	4.474000e-02	-3.389028e-02	0.0	3.844000e-02	-3.171811e-02	0.0	3.260000e-02	-2.948109e-02	0.0	2.723000e-02	-2.718420e-02	0.0	2.232000e-02	-2.482329e-02	0.0	1.790000e-02	-2.241365e-02	0.0	1.395000e-02	-1.994492e-02	0.0	1.049000e-02	-1.742916e-02	0.0	7.520000e-03	-1.486756e-02	0.0	5.040000e-03	-1.226032e-02	0.0	3.050000e-03	-9.605565e-03	0.0	1.560000e-03	-6.917518e-03	0.0	5.600000e-04	-4.173160e-03	0.0	6.000000e-05	-1.375330e-03	0.0	0.000000e+00	0.000000e+00	0.0	6.000000e-05	1.364543e-03	0.0	5.600000e-04	4.095248e-03	0.0	1.560000e-03	6.729446e-03	0.0	3.050000e-03	9.276463e-03	0.0	5.040000e-03	1.176630e-02	0.0	7.520000e-03	1.419174e-02	0.0	1.049000e-02	1.655938e-02	0.0	1.395000e-02	1.887281e-02	0.0	1.790000e-02	2.113378e-02	0.0	2.232000e-02	2.333349e-02	0.0	2.723000e-02	2.548302e-02	0.0	3.260000e-02	2.756970e-02	0.0	3.844000e-02	2.959822e-02	0.0	4.474000e-02	3.156483e-02	0.0	5.149000e-02	3.346635e-02	0.0	5.869000e-02	3.530251e-02	0.0	6.633000e-02	3.707033e-02	0.0	7.440000e-02	3.876737e-02	0.0	8.290000e-02	4.039353e-02	0.0	9.181000e-02	4.194518e-02	0.0	1.011300e-01	4.342288e-02	0.0	1.108500e-01	4.482570e-02	0.0	1.209500e-01	4.615197e-02	0.0	1.314400e-01	4.740437e-02	0.0	1.422900e-01	4.858099e-02	0.0	1.534900e-01	4.968303e-02	0.0	1.650400e-01	5.071287e-02	0.0	1.769300e-01	5.167207e-02	0.0	1.891400e-01	5.256184e-02	0.0	2.016600e-01	5.338450e-02	0.0	2.144700e-01	5.414198e-02	0.0	2.275700e-01	5.483759e-02	0.0	2.409400e-01	5.547352e-02	0.0	2.545700e-01	5.605258e-02	0.0	2.684500e-01	5.657746e-02	0.0	2.825500e-01	5.705008e-02	0.0	2.968700e-01	5.747321e-02	0.0	3.114000e-01	5.784884e-02	0.0	3.261100e-01	5.817811e-02	0.0	3.409900e-01	5.846214e-02	0.0	3.560400e-01	5.870150e-02	0.0	3.712300e-01	5.889543e-02	0.0	3.865400e-01	5.904253e-02	0.0	4.019700e-01	5.914053e-02	0.0	4.175000e-01	5.918576e-02	0.0	4.331100e-01	5.917336e-02	0.0	4.487800e-01	5.909721e-02	0.0	4.645100e-01	5.894967e-02	0.0	4.802700e-01	5.872195e-02	0.0	4.960500e-01	5.840378e-02	0.0	5.118400e-01	5.798363e-02	0.0	5.276100e-01	5.744964e-02	0.0	5.433600e-01	5.678843e-02	0.0	5.590600e-01	5.598770e-02	0.0	5.747100e-01	5.503421e-02	0.0	5.902800e-01	5.391765e-02	0.0	6.057600e-01	5.262871e-02	0.0	6.211300e-01	5.116195e-02	0.0	6.363800e-01	4.951512e-02	0.0	6.515000e-01	4.769084e-02	0.0	6.664700e-01	4.569886e-02	0.0	6.812700e-01	4.355593e-02	0.0	6.958900e-01	4.128455e-02	0.0	7.103200e-01	3.891411e-02	0.0	7.245300e-01	3.648397e-02	0.0	7.385200e-01	3.403383e-02	0.0	7.522800e-01	3.160869e-02	0.0	7.657800e-01	2.925838e-02	0.0	7.790100e-01	2.702749e-02	0.0	7.919700e-01	2.495430e-02	0.0	8.046400e-01	2.307240e-02	0.0	8.170100e-01	2.140256e-02	0.0	8.290500e-01	1.995432e-02	0.0	8.407700e-01	1.871712e-02	0.0	8.521600e-01	1.766811e-02	0.0	8.631800e-01	1.677312e-02	0.0	8.738500e-01	1.598271e-02	0.0	8.841500e-01	1.524576e-02	0.0	8.940600e-01	1.451200e-02	0.0	9.035800e-01	1.373714e-02	0.0	9.127000e-01	1.289044e-02	0.0	9.214000e-01	1.195878e-02	0.0	9.296900e-01	1.094326e-02	0.0	9.375400e-01	9.865220e-03	0.0	9.449600e-01	8.752734e-03	0.0	9.519400e-01	7.644750e-03	0.0	9.584700e-01	6.590836e-03	0.0	9.645400e-01	5.667936e-03	0.0	9.701500e-01	5.021265e-03	0.0	9.752800e-01	4.918891e-03	0.0	9.799500e-01	5.699181e-03	0.0	9.841300e-01	7.384753e-03	0.0	9.878400e-01	9.052040e-03	0.0	9.910500e-01	8.957801e-03	0.0	9.937800e-01	6.425782e-03	0.0	9.960200e-01	3.096950e-03	0.0	9.977600e-01	9.692239e-04	0.0	9.990000e-01	2.155435e-04	0.0	9.997500e-01	3.753824e-05	0.0	1.000000e+00	0.000000e+00	0.0	1.984229e+01	2.506660e+00	0.0	1.937166e+01	4.973800e+00	0.0	1.859553e+01	7.362490e+00	0.0	1.752613e+01	9.635070e+00	0.0	1.618034e+01	1.175571e+01	0.0	1.457937e+01	1.369094e+01	0.0	1.274848e+01	1.541027e+01	0.0	1.071654e+01	1.688656e+01	0.0	8.515590e+00	1.809654e+01	0.0	6.180340e+00	1.902113e+01	0.0	3.747630e+00	1.964575e+01	0.0	1.255810e+00	1.996053e+01	0.0	-1.255810e+00	1.996053e+01	0.0	-3.747630e+00	1.964574e+01	0.0	-6.180340e+00	1.902113e+01	0.0	-8.515590e+00	1.809654e+01	0.0	-1.071654e+01	1.688656e+01	0.0	-1.274848e+01	1.541026e+01	0.0	-1.457937e+01	1.369094e+01	0.0	-1.618034e+01	1.175570e+01	0.0	-1.752613e+01	9.635070e+00	0.0	-1.859553e+01	7.362490e+00	0.0	-1.937166e+01	4.973800e+00	0.0	-1.984229e+01	2.506660e+00	0.0	-2.000000e+01	0.000000e+00	0.0	-1.984229e+01	-2.506670e+00	0.0	-1.937166e+01	-4.973800e+00	0.0	-1.859553e+01	-7.362490e+00	0.0	-1.752613e+01	-9.635080e+00	0.0	-1.618034e+01	-1.175571e+01	0.0	-1.457937e+01	-1.369094e+01	0.0	-1.274848e+01	-1.541027e+01	0.0	-1.071653e+01	-1.688656e+01	0.0	-8.515580e+00	-1.809654e+01	0.0	-6.180340e+00	-1.902113e+01	0.0	-3.747620e+00	-1.964575e+01	0.0	-1.255810e+00	-1.996053e+01	0.0	1.255810e+00	-1.996053e+01	0.0	3.747630e+00	-1.964574e+01	0.0	6.180340e+00	-1.902113e+01	0.0	8.515590e+00	-1.809654e+01	0.0	1.071654e+01	-1.688656e+01	0.0	1.274848e+01	-1.541026e+01	0.0	1.457937e+01	-1.369094e+01	0.0	1.618034e+01	-1.175570e+01	0.0	1.752614e+01	-9.635070e+00	0.0	1.859553e+01	-7.362490e+00	0.0	1.937166e+01	-4.973790e+00	0.0	1.984229e+01	-2.506660e+00	0.0	2.000000e+01	0.000000e+00	0.0	6.071264e-02	-4.597709e-02	0.0	6.602398e-01	-5.397914e-02	0.0	4.256176e-01	7.345140e-02	0.0	6.901951e-01	5.555579e-02	0.0	3.793048e-01	-7.272843e-02	0.0	9.994755e-01	-7.997196e-04	0.0	9.985379e-01	-1.422319e-03	0.0	7.736929e-01	-4.091333e-02	0.0	6.898682e-01	-5.084825e-02	0.0	-1.389295e-03	6.298883e-03	0.0	7.467012e-01	-4.429211e-02	0.0	5.836155e-01	6.835993e-02	0.0	9.927242e-01	-3.701443e-03	0.0	9.898113e-01	-4.567995e-03	0.0	5.992240e-01	6.705406e-02	0.0	7.187285e-01	-4.760768e-02	0.0	-1.572727e-03	7.411980e-04	0.0	9.864089e-01	-5.505413e-03	0.0	9.825247e-01	-6.502105e-03	0.0	-1.425445e-03	-6.457136e-03	0.0	6.451773e-01	-5.549594e-02	0.0	8.242818e-01	-3.410853e-02	0.0	7.995807e-01	-3.751817e-02	0.0	3.485016e-01	7.244491e-02	0.0	8.476669e-01	-3.073169e-02	0.0	2.472978e-01	6.835930e-02	0.0	8.696738e-01	-2.739858e-02	0.0	1.004052e-02	2.088649e-02	0.0	8.901956e-01	-2.414069e-02	0.0	7.699546e-02	-5.053036e-02	0.0	9.091598e-01	-2.098513e-02	0.0	-1.909630e-03	-3.187165e-03	0.0	9.420987e-01	-1.507581e-02	0.0	9.264863e-01	-1.795450e-02	0.0	1.790238e-02	-2.764245e-02	0.0	4.259346e-01	-7.122994e-02	0.0	8.588518e-01	-2.905540e-02	0.0	9.559529e-01	-1.237531e-02	0.0	9.781532e-01	-7.575383e-03	0.0	9.679917e-01	-9.864859e-03	0.0	1.582767e-01	-6.489871e-02	0.0	8.998793e-01	-2.254889e-02	0.0	7.603299e-01	-4.260795e-02	0.0	9.970952e-01	-2.173414e-03	0.0	5.991776e-01	-5.980907e-02	0.0	4.416386e-01	-7.055319e-02	0.0	5.364974e-01	-6.487429e-02	0.0	4.732100e-01	-6.895512e-02	0.0	5.048662e-01	-6.705346e-02	0.0	4.890268e-01	-6.804006e-02	0.0	1.249418e-01	-6.027328e-02	0.0	2.780567e-02	-3.323816e-02	0.0	3.947555e-01	-7.232147e-02	0.0	4.618646e-02	-4.110844e-02	0.0	4.103002e-01	-7.182165e-02	0.0	3.188641e-01	-7.337622e-02	0.0	3.487804e-01	-7.325779e-02	0.0	3.347166e-02	-3.592014e-02	0.0	2.896377e-01	-7.307652e-02	0.0	9.345107e-01	-1.649304e-02	0.0	1.468101e-01	-6.346052e-02	0.0	1.946861e-01	-6.854100e-02	0.0	8.577204e-02	-5.267365e-02	0.0	1.045698e-01	-5.668020e-02	0.0	5.679793e-01	-6.245651e-02	0.0	1.700881e-01	-6.622810e-02	0.0	6.146379e-01	-5.841117e-02	0.0	8.801287e-01	-2.575963e-02	0.0	2.262661e-02	-3.047713e-02	0.0	9.951568e-01	-2.916786e-03	0.0	6.671086e-03	-1.885440e-02	0.0	1.803481e-02	2.629816e-02	0.0	9.180313e-01	-1.945240e-02	0.0	9.49252
[...]
POINT_DATA 5233

SCALARS Conservative_1 float 1
LOOKUP_TABLE default
1.089130e+00	1.048562e+00	1.047561e+00	1.045952e+00	1.044024e+00	1.042254e+00	1.040196e+00	1.037874e+00	1.035290e+00	1.032483e+00	1.029501e+00	1.026365e+00	1.023122e+00	1.019773e+00	1.016361e+00	1.012901e+00	1.009403e+00	1.005880e+00	1.002335e+00	9.987812e-01	9.952176e-01	9.916693e-01	9.881138e-01	9.845747e-01	9.810327e-01	9.774884e-01	9.739296e-01	9.703823e-01	9.668375e-01	9.633350e-01	9.598685e-01	9.564273e-01	9.528530e-01	9.492558e-01	9.456048e-01	9.419714e-01	9.384758e-01	9.349878e-01	9.316020e-01	9.282234e-01	9.250598e-01	9.223051e-01	9.201314e-01	9.185282e-01	9.165240e-01	9.149668e-01	9.174416e-01	9.290092e-01	9.383530e-01	9.094930e-01	8.110518e-01	7.249820e-01	7.078067e-01	7.201719e-01	7.280635e-01	7.296963e-01	7.302463e-01	7.319023e-01	7.343954e-01	7.371956e-01	7.402414e-01	7.436121e-01	7.473049e-01	7.513292e-01	7.556476e-01	7.602714e-01	7.651986e-01	7.703502e-01	7.756505e-01	7.811258e-01	7.869749e-01	7.934823e-01	8.007665e-01	8.086477e-01	8.168566e-01	8.252902e-01	8.341417e-01	8.436753e-01	8.538981e-01	8.648068e-01	8.764806e-01	8.889509e-01	9.023568e-01	9.167921e-01	9.324356e-01	9.495430e-01	9.683192e-01	9.890908e-01	1.012328e+00	1.038340e+00	1.067730e+00	1.101059e+00	1.138500e+00	1.180061e+00	1.224849e+00	1.270703e+00	1.310930e+00	1.344605e+00	1.351642e+00	1.341703e+00	1.334520e+00	1.301317e+00	1.231069e+00	1.166916e+00	1.105175e+00	1.050305e+00	1.004268e+00	9.664212e-01	9.350494e-01	9.089110e-01	8.867555e-01	8.675668e-01	8.508821e-01	8.361595e-01	8.230920e-01	8.115078e-01	8.010655e-01	7.914562e-01	7.825833e-01	7.744269e-01	7.671160e-01	7.607297e-01	7.550958e-01	7.498620e-01	7.448927e-01	7.403856e-01	7.366506e-01	7.336081e-01	7.309982e-01	7.287032e-01	7.268800e-01	7.257113e-01	7.252203e-01	7.252598e-01	7.256563e-01	7.262726e-01	7.270420e-01	7.279143e-01	7.288215e-01	7.297031e-01	7.305221e-01	7.312570e-01	7.317745e-01	7.318809e-01	7.313919e-01	7.304368e-01	7.286709e-01	7.245264e-01	7.171418e-01	7.126670e-01	7.389486e-01	8.193999e-01	8.955468e-01	9.065334e-01	8.856498e-01	8.633066e-01	8.562501e-01	8.656193e-01	8.830400e-01	9.016272e-01	9.191733e-01	9.371569e-01	9.560150e-01	9.751211e-01	9.937358e-01	1.011547e+00	1.028052e+00	1.043001e+00	1.055966e+00	1.066766e+00	1.075098e+00	1.080861e+00	1.083954e+00	1.084395e+00	1.082400e+00	1.078371e+00	1.072977e+00	1.067240e+00	1.062421e+00	1.059910e+00	1.060981e+00	1.066508e+00	1.076744e+00	1.091298e+00	1.109557e+00	1.131037e+00	1.155479e+00	1.181881e+00	1.207034e+00	1.223524e+00	1.224472e+00	1.153953e+00	1.004595e+00	7.209412e-01	9.025413e-01	9.552304e-01	9.485142e-01	9.612418e-01	9.333300e-01	9.436830e-01	9.998050e-01	9.999683e-01	9.999861e-01	9.999699e-01	9.999625e-01	9.999528e-01	9.999331e-01	9.998996e-01	9.998593e-01	9.998236e-01	9.998025e-01	9.998174e-01	9.998682e-01	9.999587e-01	1.000033e+00	1.000087e+00	1.000112e+00	1.000124e+00	1.000125e+00	1.000124e+00	1.000119e+00	1.000116e+00	1.000112e+00	1.000111e+00	1.000111e+00	1.000112e+00	1.000117e+00	1.000123e+00	1.000132e+00	1.000144e+00	1.000156e+00	1.000172e+00	1.000183e+00	1.000194e+00	1.000190e+00	1.000167e+00	1.000124e+00	1.000080e+00	1.000051e+00	1.000043e+00	1.000047e+00	1.000052e+00	1.000053e+00	1.000049e+00	1.000041e+00	1.000025e+00	1.000014e+00	1.000025e+00	9.998635e-01	9.996745e-01	9.251098e-01	9.317033e-01	7.342867e-01	9.519842e-01	7.351754e-01	1.037718e+00	1.051091e+00	9.597181e-01	9.384517e-01	1.283173e+00	9.526875e-01	8.822059e-01	1.043450e+00	1.041648e+00	8.652213e-01	9.454401e-01	1.337942e+00	1.039501e+00	1.037101e+00	1.327881e+00	9.284791e-01	9.735471e-01	9.665385e-01	7.327245e-01	9.805677e-01	7.292610e-01	9.875741e-01	1.028117e+00	9.945838e-01	8.963874e-01	1.001609e+00	1.346628e+00	1.015485e+00	1.008598e+00	1.078164e+00	7.297678e-01	9.840693e-01	1.022200e+00	1.034448e+00	1.028585e+00	8.137024e-01	9.980949e-01	9.562184e-01	1.046191e+00	9.214397e-01	7.187245e-01	9.247192e-01	7.498081e-01	9.423591e-01	8.740047e-01	8.401052e-01	1.022926e+00	7.337139e-01	9.588245e-01	7.332748e-01	7.471524e-01	7.405905e-01	9.993750e-01	7.550610e-01	1.012062e+00	8.222214e-01	7.918675e-01	8.835325e-01	8.602567e-01	9.175456e-01	8.056615e-01	9.231323e-01	9.910759e-01	1.049064e+00	1.045136e+00	1.184207e+00	9.570487e-01	1.005112e+00	1.018872e+00	1.031597e+00	1.232034e+00	9.770552e-01	7.693330e-01	9.171504e-01	9.490643e-01	9.630963e-01	8.497921e-01	7.801987e-01	9.196540e-01	9.350881e-01	9.412538e-01	1.224245e+00	1.110407e+00	7.377034e-01	7.983797e-01	1.096837e+00	7.746714e-01	8.715155e-01	7.509333e-01	7.642548e-01	7.098550e-01	9.419271e-01	1.323822e+00	1.300530e+00	8.740394e-01	1.343557e+00	9.051319e-01	8.357880e-01	8.660125e-01	7.681568e-01	7.347334e-01	9.299391e-01	7.726060e-01	7.264319e-01	1.193405e+00	1.161555e+00	1.066693e+00	7.194127e-01	7.333772e-01	7.342214e-01	1.077219e+00	1.065363e+00	8.012337e-01	1.185220e+00	1.140641e+00	1.103537e+00	7.828000e-01	8.231514e-01	7.298106e-01	7.291402e-01	7.419637e-01	7.311541e-01	7.315568e-01	7.347006e-01	7.507241e-01	7.619622e-01	8.815192e-01	7.356318e-01	7.311482e-01	9.181990e-01	9.095891e-01	1.019720e+00	9.872484e-01	1.066312e+00	1.046740e+00	1.079016e+00	1.077113e+00	1.064752e+00	1.073912e+00	1.121023e+00	1.069385e+00	1.180736e+00	1.077116e+00	1.070112e+00	1.072865e+00	1.079117e+00	1.034064e+00	1.057586e+00	9.697832e-01	1.004010e+00	9.005512e-01	9.347529e-01	9.209685e-01	8.669566e-01	7.331060e-01	7.298881e-01	7.459686e-01	7.385963e-01	8.499545e-01	7.561674e-01	9.897465e-01	8.842911e-01	7.858879e-01	1.122771e+00	1.025448e+00	9.700275e-01	7.437250e-01	9.410748e-01	1.177568e+00	9.291025e-01	1.072438e+00	7.915835e-01	8.117079e-01	7.293599e-01	7.750106e-01	1.146186e+00	1.022622e+00	7.304260e-01	8.706496e-01	9.024776e-01	7.319425e-01	7.335059e-01	1.088756e+00	9.046462e-01	9.504026e-01	9.465269e-01	9.255327e-01	9.781115e-01	9.671240e-01	7.227298e-01	1.264358e+00	1.145958e+00	9.102003e-01	8.309955e-01	7.595043e-01	8.234370e-01	1.261573e+00	1.302183e+00	7.643079e-01	9.421457e-01	1.004542e+00	1.178616e+00	8.988337e-01	9.387981e-01	9.630434e-01	1.041215e+00	7.516426e-01	9.837928e-01	9.768548e-01	8.911856e-01	1.306952e+00	7.916585e-01	1.112470e+00	1.024688e+00	8.284506e-01	9.455969e-01	9.322371e-01	7.162064e-01	9.042781e-01	7.395506e-01	9.976273e-01	9.664403e-01	1.080628e+00	9.733399e-01	9.332616e-01	1.074507e+00	7.843658e-01	9.490983e-01	7.528869e-01	1.071176e+00	9.819265e-01	7.354464e-01	7.576037e-01	1.126119e+00	1.069292e+00	9.615342e-01	1.140720e+00	1.122655e+00	7.351308e-01	7.348295e-01	7.365794e-01	7.925903e-01	9.354856e-01	7.979342e-01	1.040598e+00	7.634856e-01	8.642798e-01	1.159157e+00	9.527880e-01	1.068264e+00	8.197220e-01	9.723845e-01	9.343830e-01	9.356685e-01	1.124400e+00	1.217746e+00	1.213596e+00	1.339060e+00	1.335470e+00	1.082575e+00	1.048824e+00	9.333379e-01	1.045550e+00	1.044594e+00	7.378207e-01	9.218291e-01	1.038993e+00	9.906994e-01	8.803009e-01	1.043147e+00	1.329811e+00	7.286341e-01	7.378362e-01	9.803296e-01	7.336768e-01	9.872520e-01	9.941546e-01	9.182855e-01	1.001080e+00	1.007985e+00	1.018148e+00	1.030199e+00	1.021454e+00	1.027841e+00	1.036489e+00	8.470078e-01	9.561948e-01	9.596976e-01	1.046211e+00	7.300155e-01	8.210589e-01	9.242495e-01	1.055323e+00	7.381427e-01	7.364903e-01	7.481251e-01	9.863931e-01	1.011403e+00	1.014789e+00	8.376072e-01	8.789170e-01	9.199775e-01	9.243346e-01	1.030876e+00	1.033778e+00	9.491066e-01	9.527088e-01	8.675250e-01	8.569179e-01	9.213354e-01	9.226309e-01	9.672954e-01	9.496618e-01	1.144483e+00	7.449054e-01	7.418909e-01	8.117736e-01	8.045848e-01	7.856477e-01	7.798850e-01	7.597396e-01	7.555021e-01	7.743813e-01	1.327484e+00	1.248727e+00	8.810326e-01	1.061194e+00	8.395234e-01	7.271925e-01	7.286369e-01	7.340290e-01	1.153904e+00	1.153370e+00	1.077925e+00	7.364702e-01	7.373848e-01	7.375225e-01	1.072010e+00	1.111458e+00	8.357077e-01	8.492565e-01	7.342276e-01	7.337631e-01	7.578089e-01	7.700230e-01	7.769616e-01	1.057406e+00	1.011979e+00	9.972472e-01	1.048567e+00	1.072990e+00	1.068924e+00	1.073104e+00	1.074372e+00	1.069736e+00	1.064577e+00	1.037822e+00	1.025596e+00	9.816688e-01	9.654917e-01	9.173044e-01	9.002462e-01	9.198992e-01	9.101368e-01	8.843081e-01	8.760664e-01	7.385992e-01	7.413234e-01	7.446611e-01	7.485782e-01	1.004962e+00	9.000032e-01	9.215641e-01	9.698676e-01	9.733573e-01	9.438088e-01	9.311821e-01	1.171392e+00	9.458468e-01	8.018528e-01	8.121534e-01	7.342813e-01	7.338697e-01	7.369026e-01	7.361531e-01	1.098086e+00	1.086711e+00	9.264031e-01	9.291566e-01	1.007241e+00	1.281410e+00	7.691933e-01	1.308354e+00	7.442788e-01	7.696594e-01	9.667643e-01	9.266939e-01	1.007611e+00	1.010267e+00	1.032334e+00	1.133812e+00	1.166155e+00	1.033958e+00	9.406269e-01	9.232094e-01	1.046856e+00	9.983613e-01	1.086583e+00	1.308338e+00	8.994965e-01	1.010999e+00	1.043218e+00	9.126735e-01	1.050914e+00	1.204124e+00	9.461958e-01	1.263110e+00	9.495850e-01	1.113809e+00	9.905448e-01	1.173255e+00	7.566978e-01	9.871586e-01	9.428698e-01	1.045023e+00	1.143083e+00	1.115848e+00	8.119264e-01	1.114683e+00	9.331405e-01	9.573636e-01	7.526739e-01	7.386039e-01	7.388147e-01	7.659542e-01	8.487258e-01	9.622186e-01	1.284386e+00	1.240701e+00	1.017786e+00	1.279898e+00	1.027406e+00	9.127192e-01	1.329366e+00	8.350930e-01	7.242681e-01	1.061006e+00	1.086987e+00	1.069192e+00	1.049354e+00	9.478231e-01	1.075991e+00	1.125356e+00	1.069747e+00	1.069874e+00	7.384329e-01	7.382265e-01	7.424491e-01	8.033496e-01	9.363682e-01	9.395489e-01	8.043976e-01	1.051040e+00	7.716581e-01	1.133088e+00	9.295292e-01	1.125699e+00	1.205914e+00	1.234391e+00	1.320452e+00	1.036908e+00	1.050378e+00	1.036979e+00	1.030479e+00	1.041226e+00	8.957698e-01	7.276772e-01	7.414361e-01	9.803085e-01	9.837275e-01	9.939550e-01	9.973667e-01	9.419489e-01	9.268593e-01	1.000767e+00	1.004211e+00	1.020991e+00	1.024240e+00	1.038868e+00	9.600567e-01	9.633839e-01	1.045883e+00	7.730682e-01	8.852033e-01	7.423697e-01	7.380087e-01	1.014928e+00	1.014351e+00	1.017683e+00	8.545464e-01	8.446565e-01	9.230371e-01	9.234579e-01	1.033444e+00	1.036249e+00	9.530991e-01	9.565688e-01	8.871138e-01	8.753568e-01	8.645328e-01	9.245206e-01	9.258808e-01	9.948209e-01	9.759218e-01	9.582369e-01	7.531240e-01	7.496905e-01	7.466261e-01	8.264845e-01	8.186650e-01	8.113350e-01	7.978104e-01	7.915628e-01	7.649472e-01	7.606347e-01	7.856123e-01	8.960669e-01	7.375413e-01	7.380086e-01	1.138261e+00	7.402261e-01	7.412657e-01	7.413468e-01	7.412161e-01	1.077983e+00	8.630284e-01	8.788023e-01	7.393781e-01	7.406952e-01	7.782840e-01	7.862619e-01	7.946970e-01	1.005893e+00	1.073356e+00	1.070711e+00	1.070426e+00	1.070885e+00	1.070628e+00	1.066596e+00	1.062407e+00	1.056685e+00	1.040498e+00	1.030301e+00	1.018582e+00	9.921647e-01	9.777475e-01	9.628621e-01	9.176491e-01	9.213889e-01	8.900996e-01	9.020098e-01	8.903150e-01	8.876621e-01	7.447608e-01	7.475664e-01	7.512003e-01	7.555605e-01	7.606315e-01	9.151653e-01	9.368637e-01	9.701046e-01	9.735041e-01	9.768954e-01	9.407271e-01	9.373798e-01	9.612416e-01	9.879271e-01	8.129312e-01	8.237862e-01	8.357041e-01	7.382203e-01	7.407604e-01	7.401037e-01	7.393674e-01	1.103777e+00	1.093560e+00	1.084799e+00	9.278494e-01	9.303100e-01	9.332072e-01	7.799965e-01	7.746702e-01	1.286800e+00	9.081351e-01	9.420008e-01	1.084273e+00	9.267700e-01	1.286996e+00	1.046526e+00	1.010928e+00	1.014306e+00	1.042321e+00	1.045325e+00	7.634266e-01	1.264076e+00	1.058552e+00	1.192882e+00	1.118529e+00	1.014452e+00	1.222675e+00	9.324689e-01	1.192664e+00	9.181436e-01	1.051655e+00	9.703866e-01	8.432273e-01	1.089082e+00	7.496844e-01	9.214696e-01	7.340653e-01	7.762899e-01	1.055931e+00	9.217321e-01	1.112694e+00	1.105288e+00	1.041807e+00	7.816921e-01	7.456882e-01	1.043829e+00	8.765467e-01	9.908361e-01	9.169102e-01	1.039841e+00	1.047102e+00	1.033415e+00	1.113470e+00	9.467810e-01	1.219488e+00	9.503894e-01	9.534839e-01	1.139675e+00	1.045577e+00	1.166414e+00	1.064100e+00	7.943440e-01	7.434322e-01	1.257285e+00	1.090618e+00	9.477738e-01	1.069786e+00	7.434663e-01	7.438150e-01	7.444243e-01	9.403374e-01	9.438902e-01	1.105337e+00	1.123815e+00	1.158674e+00	1.244511e+00	1.300399e+00	1.065048e+00	1.030386e+00	1.041592e+00	9.117332e-01	9.840443e-01	9.874174e-01	9.941954e-01	9.975286e-01	9.504663e-01	9.355217e-01	1.000861e+00	1.004232e+00	1.007577e+00	1.024062e+00	1.027271e+00	9.636709e-01	9.672678e-01	1.046862e+00	7.547398e-01	8.415064e-01	7.460439e-01	7.395744e-01	1.017596e+00	1.020810e+00	8.630244e-01	8.523438e-01	9.256257e-01	1.036305e+00	1.039068e+00	9.570998e-01	9.609741e-01	8.955446e-01	8.839206e-01	8.734420e-01	9.256189e-01	9.272452e-01	1.022121e+00	1.002537e+00	9.836596e-01	9.662936e-01	7.631098e-01	7.592633e-01	7.558020e-01	7.523909e-01	8.349633e-01	8.270081e-01	8.194242e-01	8.121143e-01	8.053300e-01	7.670700e-01	7.715632e-01	7.988168e-01	7.472891e-01	1.117404e+00	1.120570e+00	7.465328e-01	7.461329e-01	7.458946e-01	7.456198e-01	7.454346e-01	8.930266e-01	9.110854e-01	7.472871e-01	7.496520e-01	7.883790e-01	7.961172e-01	8.054392e-01	8.152437e-01	1.077653e+00	1.073786e+00	1.071298e+00	1.068993e+00	1.068339e+00	1.067673e+00	1.065357e+00	1.060680e+00	1.054837e+00	1.050023e+00	1.033783e+00	1.023389e+00	1.012831e+00	1.000726e+00	9.880825e-01	9.751803e-01	9.610762e-01	8.614220e-01	9.144946e-01	9.181868e-01	9.037992e-01	8.991517e-01	8.993202e-01	7.522046e-01	7.554682e-01	7.589169e-01	7.634640e-01	7.686885e-01	7.748797e-01	9.300799e-01	9.509008e-01	9.738534e-01	9.774586e-01	9.807236e-01	9.253774e-01	9.424381e-01	9.344860e-01	9.748550e-01	1.000762e+00	1.028149e+00	8.251917e-01	8.360350e-01	8.485329e-01	8.620130e-01	7.450949e-01	7.447034e-01	7.441629e-01	7.435955e-01	1.082992e+00	1.097196e+00	1.089698e+00	9.290872e-01	9.318416e-01	9.342654e-01	9.375915e-01	7.927735e-01	7.869272e-01	7.815290e-01	1.135948e+00	9.939029e-01	1.033715e+00	9.352754e-01	1.159740e+00	9.556582e-01	9.172527e-01	1.182847e+00	1.085204e+00	1.227656e+00	1.067984e+00	8.533207e-01	8.002990e-01	1.093174e+00	1.181156e+00	1.261015e+00	1.309100e+00	1.309333e+00	1.299120e+00	1.245524e+00	1.047954e+00	7.491282e-01	1.036714e+00	1.046711e+00	1.017652e+00	9.722504e-01	7.538705e-01	1.045939e+00	1.080917e+00	1.097507e+00	9.051164e-01	8.226196e-01	9.382107e-01	1.031070e+00	7.730213e-01	9.328655e-01	7.480165e-01	1.055505e+00	9.305639e-01	9.345594e-01	1.070351e+00	1.303992e+00	1.046420e+00	1.047936e+00	1.014208e+00	1.047818e+00	1.264658e+00	1.064404e+00	1.205759e+00	1.106586e+00	1.207346e+00	9.531775e-01	1.015789e+00	1.112925e+00	7.776784e-01	7.839742e-01	1.054958e+00	9.244647e-01	1.102925e+00	1.044677e+00	9.492510e-01	1.235900e+00	7.489427e-01	7.509421e-01	7.514677e-01	9.429367e-01	1.122078e+00	1.151800e+00	1.277777e+00	1.090854e+00	9.880780e-01	9.909009e-01	9.945289e-01	9.976773e-01	9.444066e-01	9.596258e-01	1.001279e+00	1.004344e+00	1.007795e+00	1.011454e+00	1.027435e+00	1.030613e+00	9.661170e-01	1.048151e+00	7.517189e-01	8.021565e-01	7.485128e-01	7.477757e-01	1.021155e+00	1.024220e+00	8.713296e-01	8.598054e-01	1.039602e+00	1.042336e+00	9.614818e-01	9.043257e-01	8.919366e-01	8.840844e-01	9.272394e-01	1.028628e+00	1.009655e+00	9.913746e-01	9.753240e-01	7.745066e-01	7.690910e-01	7.662517e-01	7.611589e-01	7.585902e-01	8.430718e-01	8.367162e-01	8.268544e-01	8.211030e-01	8.123115e-01	1.098232e+00	1.105333e+00	1.108046e+00	7.555173e-01	7.541957e-01	7.507197e-01	7.506583e-01	7.494783e-01	9.073803e-01	9.257486e-01	7.548125e-01	7.562794e-01	8.054083e-01	8.164485e-01	8.276179e-01	1.076371e+00	1.072924e+00	1.070325e+00	1.068503e+00	1.066697e+00	1.065712e+00	1.063225e+00	1.059782e+00	1.054084e+00	1.045506e+00	1.012356e+00	9.905246e-01	9.663103e-01	9.133217e-01	9.117273e-01	7.609144e-01	7.630387e-01	7.687429e-01	7.714512e-01	7.786532e-01	7.848916e-01	7.921872e-01	9.450024e-01	9.648762e-01	9.778879e-01	9.810705e-01	9.844205e-01	8.945473e-01	9.386114e-01	9.870499e-01	1.012160e+00	1.037457e+00	8.386320e-01	8.498566e-01	8.622689e-01	8.770059e-01	8.919028e-01	7.497026e-01	7.487421e-01	7.491266e-01	7.487631e-01	1.091953e+00	1.085622e+00	9.309271e-01	9.368701e-01	8.072347e-01	7.993370e-01	7.949075e-01	7.878485e-01	1.044195e+00	9.171091e-01	1.172962e+00	1.274182e+00	1.049074e+00	1.040473e+00	1.060661e+00	1.216996e+00	1.098196e+00	1.048113e+00	1.046023e+00	1.257797e+00	1.070573e+00	1.152475e+00	7.535729e-01	9.411913e-01	1.119480e+00	1.192940e+00	1.131665e+00	1.037419e+00	9.374266e-01	1.067518e+00	7.876821e-01	1.021331e+00	1.016259e+00	9.354866e-01	9.261647e-01	8.572406e-01	1.227700e+00	7.579679e-01	9.545610e-01	9.406781e-01	8.228293e-01	1.085037e+00	1.079387e+00	1.239232e+00	1.094037e+00	1.034333e+00	9.416274e-01	1.075986e+00	1.306069e+00	1.244008e+00	1.048295e+00	9.605964e-01	8.136784e-01	7.713145e-01	1.058523e+00	1.000803e+00	9.729141e-01	1.283215e+00	1.041593e+00	1.052513e+00	1.211488e+00	1.192789e+00	9.216346e-01	1.090781e+00	1.097601e+00	1.094118e+00	8.788679e-01	7.556314e-01	7.597743e-01	9.544971e-01	1.144939e+00	1.169857e+00	1.111870e+00	9.931031e-01	9.995549e-01	9.683723e-01	1.006210e+00	1.011858e+00	1.031151e+00	1.049912e+00	7.731226e-01	1.024886e+00	1.027923e+00	8.743218e-01	1.043344e+00	9.659615e-01	9.712002e-01	9.079446e-01	8.925102e-01	9.304701e-01	1.034466e+00	1.015373e+00	9.979092e-01	9.859891e-01	7.783158e-01	7.698510e-01	7.630164e-01	8.402571e-01	8.245955e-01	1.092221e+00	1.096813e+00	7.576089e-01	7.541015e-01	9.392398e-01	7.662700e-01	8.397552e-01	1.046327e+00	1.072385e+00	1.067031e+00	1.062831e+00	1.058108e+00	1.053280e+00	1.035573e+00	1.020448e+00	1.002180e+00	9.818858e-01	9.577403e-01	9.316813e-01	9.181787e-01	9.230366e-01	7.748177e-01	7.849501e-01	7.962206e-01	8.012310e-01	8.117404e-01	9.592797e-01	9.784704e-01	9.771994e-01	9.828584e-01	9.882972e-01	8.487292e-01	9.203642e-01	9.984856e-01	1.021495e+00	1.045383e+00	1.069012e+00	8.527925e-01	8.644947e-01	8.768082e-01	8.913616e-01	9.090452e-01	9.204485e-01	7.532089e-01	7.536209e-01	1.091639e+00	1.086328e+00	9.295280e-01	9.421057e-01	9.482153e-01	8.106822e-01	7.984443e-01	1.055511e+00	1.043412e+00	1.045719e+00	9.559364e-01	1.013702e+00	1.065460e+00	9.402155e-01	1.049334e+00	1.180716e+00	1.127595e+00	1.047224e+00	1.050730e+00	1.138439e+00	1.219348e+00	1.238504e+00	1.087796e+00	9.653384e-01	7.593196e-01	1.006322e+00	1.011128e+00	1.090562e+00	9.439809e-01	1.116712e+00	1.163588e+00	7.690533e-01	1.025386e+00	9.409008e-01	9.338869e-01	1.041612e+00	1.044653e+00	1.072704e+00	1.057051e+00	9.355028e-01	1.073979e+00	1.069398e+00	1.090929e+00	7.659897e-01	9.248115e-01	9.533937e-01	9.761886e-01	9.255994e-01	9.276976e-01	1.285385e+00	1.038442e+00	1.090010e+00	1.042763e+00	1.047556e+00	1.200159e+00	1.145416e+00	9.297865e-01	1.225195e+00	9.657749e-01	9.491920e-01	1.079027e+00	1.253318e+00	1.035217e+00	1.050201e+00	9.595661e-01	1.261508e+00	1.039378e+00	9.927280e-01	1.211258e+00	1.196654e+00	8.620437e-01	1.109336e+00	1.089528e+00	9.091182e-01	7.614593e-01	9.251499e-01	1.159594e+00	1.179777e+00	9.982665e-01	1.004818e+00	1.016216e+00	1.020964e+00	1.051746e+00	7.743783e-01	1.028728e+00	1.031932e+00	7.753486e-01	9.820665e-01	9.876170e-01	9.705963e-01	9.328909e-01	9.157127e-01	8.984727e-01	1.038393e+00	7.932919e-01	7.837002e-01	8.807778e-01	8.628719e-01	9.473475e-01	1.083700e+00	8.059038e-01	7.736890e-01	8.508734e-01	1.073993e+00	1.067861e+00	1.046411e+00	1.062553e+00	1.057621e+00	1.052373e+00	1.038173e+00	1.026279e+00	1.011166e+00	9.939209e-01	9.741393e-01	9.510052e-01	9.318291e-01	7.730065e-01	7.823767e-01	7.935843e-01	8.059756e-01	8.178622e-01	8.347760e-01	9.713737e-01	9.911030e-01	9.762121e-01	9.926934e-01	8.160272e-01	8.891308e-01	1.009255e+00	1.029422e+00	1.051605e+00	1.072850e+00	1.094536e+00	8.673108e-01	8.809982e-01	8.925466e-01	9.057098e-01	9.224883e-01	7.617824e-01	7.586741e-01	7.585402e-01	1.086503e+00	1.080624e+00	9.308549e-01	9.340246e-01	8.456165e-01	8.299061e-01	8.160714e-01	8.039177e-01	9.122419e-01	1.046431e+00	1.046566e+00	1.028205e+00	1.184828e+00	9.191865e-01	1.149951e+00	1.029467e+00	1.044642e+00	1.052532e+00	1.054556e+00	1.039503e+00	9.388417e-01	1.083935e+00	7.803755e-01	1.049388e+00	1.048180e+00	1.122617e+00	9.238178e-01	1.113827e+00	9.052471e-01	1.016566e+00	1.015778e+00	9.703387e-01	1.048962e+00	9.477350e-01	9.796988e-01	1.039781e+00	1.169213e+00	9.225267e-01	9.