# vtk DataFile Version 3.0
vtk output
ASCII
DATASET UNSTRUCTURED_GRID
POINTS 200 float
9.997500e-01	-3.632897e-05	0.0	9.990000e-01	-1.452538e-04	0.0	9.977600e-01	-3.251112e-04	0.0	9.960200e-01	-5.769984e-04	0.0	9.937800e-01	-9.004365e-04	0.0	9.910500e-01	-1.293364e-03	0.0	9.878400e-01	-1.753610e-03	0.0	9.841300e-01	-2.283177e-03	0.0	9.799500e-01	-2.876826e-03	0.0	9.752800e-01	-3.536324e-03	0.0	9.701500e-01	-4.256269e-03	0.0	9.645400e-01	-5.038225e-03	0.0	9.584700e-01	-5.878077e-03	0.0	9.519400e-01	-6.774429e-03	0.0	9.449600e-01	-7.724467e-03	0.0	9.375400e-01	-8.725349e-03	0.0	9.296900e-01	-9.774221e-03	0.0	9.214000e-01	-1.087086e-02	0.0	9.127000e-01	-1.200973e-02	0.0	9.035800e-01	-1.319056e-02	0.0	8.940600e-01	-1.440916e-02	0.0	8.841500e-01	-1.566269e-02	0.0	8.738500e-01	-1.694956e-02	0.0	8.631800e-01	-1.826569e-02	0.0	8.521600e-01	-1.960709e-02	0.0	8.407700e-01	-2.097463e-02	0.0	8.290500e-01	-2.236196e-02	0.0	8.170100e-01	-2.376642e-02	0.0	8.046400e-01	-2.518764e-02	0.0	7.919700e-01	-2.662063e-02	0.0	7.790100e-01	-2.806277e-02	0.0	7.657800e-01	-2.951034e-02	0.0	7.522800e-01	-3.096181e-02	0.0	7.385200e-01	-3.241453e-02	0.0	7.245300e-01	-3.386377e-02	0.0	7.103200e-01	-3.530689e-02	0.0	6.958900e-01	-3.674225e-02	0.0	6.812700e-01	-3.816515e-02	0.0	6.664700e-01	-3.957289e-02	0.0	6.515000e-01	-4.096270e-02	0.0	6.363800e-01	-4.233084e-02	0.0	6.211300e-01	-4.367359e-02	0.0	6.057600e-01	-4.498807e-02	0.0	5.902800e-01	-4.627133e-02	0.0	5.747100e-01	-4.751951e-02	0.0	5.590600e-01	-4.872956e-02	0.0	5.433600e-01	-4.989684e-02	0.0	5.276100e-01	-5.101898e-02	0.0	5.118400e-01	-5.209138e-02	0.0	4.960500e-01	-5.311154e-02	0.0	4.802700e-01	-5.407492e-02	0.0	4.645100e-01	-5.497836e-02	0.0	4.487800e-01	-5.581860e-02	0.0	4.331100e-01	-5.659142e-02	0.0	4.175000e-01	-5.729417e-02	0.0	4.019700e-01	-5.792324e-02	0.0	3.865400e-01	-5.847521e-02	0.0	3.712300e-01	-5.894684e-02	0.0	3.560400e-01	-5.933562e-02	0.0	3.409900e-01	-5.963848e-02	0.0	3.261100e-01	-5.985254e-02	0.0	3.114000e-01	-5.997565e-02	0.0	2.968700e-01	-6.000550e-02	0.0	2.825500e-01	-5.994005e-02	0.0	2.684500e-01	-5.977766e-02	0.0	2.545700e-01	-5.951658e-02	0.0	2.409400e-01	-5.915586e-02	0.0	2.275700e-01	-5.869457e-02	0.0	2.144700e-01	-5.813197e-02	0.0	2.016600e-01	-5.746811e-02	0.0	1.891400e-01	-5.670228e-02	0.0	1.769300e-01	-5.583514e-02	0.0	1.650400e-01	-5.486709e-02	0.0	1.534900e-01	-5.379978e-02	0.0	1.422900e-01	-5.263443e-02	0.0	1.314400e-01	-5.137134e-02	0.0	1.209500e-01	-5.001187e-02	0.0	1.108500e-01	-4.856067e-02	0.0	1.011300e-01	-4.701715e-02	0.0	9.181000e-02	-4.538527e-02	0.0	8.290000e-02	-4.366791e-02	0.0	7.440000e-02	-4.186608e-02	0.0	6.633000e-02	-3.998514e-02	0.0	5.869000e-02	-3.802636e-02	0.0	5.149000e-02	-3.599338e-02	0.0	4.474000e-02	-3.389028e-02	0.0	3.844000e-02	-3.171811e-02	0.0	3.260000e-02	-2.948109e-02	0.0	2.723000e-02	-2.718420e-02	0.0	2.232000e-02	-2.482329e-02	0.0	1.790000e-02	-2.241365e-02	0.0	1.395000e-02	-1.994492e-02	0.0	1.049000e-02	-1.742916e-02	0.0	7.520000e-03	-1.486756e-02	0.0	5.040000e-03	-1.226032e-02	0.0	3.050000e-03	-9.605565e-03	0.0	1.560000e-03	-6.917518e-03	0.0	5.600000e-04	-4.173160e-03	0.0	6.000000e-05	-1.375330e-03	0.0	0.000000e+00	0.000000e+00	0.0	6.000000e-05	1.364543e-03	0.0	5.600000e-04	4.095248e-03	0.0	1.560000e-03	6.729446e-03	0.0	3.050000e-03	9.276463e-03	0.0	5.040000e-03	1.176630e-02	0.0	7.520000e-03	1.419174e-02	0.0	1.049000e-02	1.655938e-02	0.0	1.395000e-02	1.887281e-02	0.0	1.790000e-02	2.113378e-02	0.0	2.232000e-02	2.333349e-02	0.0	2.723000e-02	2.548302e-02	0.0	3.260000e-02	2.756970e-02	0.0	3.844000e-02	2.959822e-02	0.0	4.474000e-02	3.156483e-02	0.0	5.149000e-02	3.346635e-02	0.0	5.869000e-02	3.530251e-02	0.0	6.633000e-02	3.707033e-02	0.0	7.440000e-02	3.876737e-02	0.0	8.290000e-02	4.039353e-02	0.0	9.181000e-02	4.194518e-02	0.0	1.011300e-01	4.342288e-02	0.0	1.108500e-01	4.482570e-02	0.0	1.209500e-01	4.615197e-02	0.0	1.314400e-01	4.740437e-02	0.0	1.422900e-01	4.858099e-02	0.0	1.534900e-01	4.968303e-02	0.0	1.650400e-01	5.071287e-02	0.0	1.769300e-01	5.167207e-02	0.0	1.891400e-01	5.256184e-02	0.0	2.016600e-01	5.338450e-02	0.0	2.144700e-01	5.414198e-02	0.0	2.275700e-01	5.483759e-02	0.0	2.409400e-01	5.547352e-02	0.0	2.545700e-01	5.605258e-02	0.0	2.684500e-01	5.657746e-02	0.0	2.825500e-01	5.705008e-02	0.0	2.968700e-01	5.747321e-02	0.0	3.114000e-01	5.784884e-02	0.0	3.261100e-01	5.817811e-02	0.0	3.409900e-01	5.846214e-02	0.0	3.560400e-01	5.870150e-02	0.0	3.712300e-01	5.889543e-02	0.0	3.865400e-01	5.904253e-02	0.0	4.019700e-01	5.914053e-02	0.0	4.175000e-01	5.918576e-02	0.0	4.331100e-01	5.917336e-02	0.0	4.487800e-01	5.909721e-02	0.0	4.645100e-01	5.894967e-02	0.0	4.802700e-01	5.872195e-02	0.0	4.960500e-01	5.840378e-02	0.0	5.118400e-01	5.798363e-02	0.0	5.276100e-01	5.744964e-02	0.0	5.433600e-01	5.678843e-02	0.0	5.590600e-01	5.598770e-02	0.0	5.747100e-01	5.503421e-02	0.0	5.902800e-01	5.391765e-02	0.0	6.057600e-01	5.262871e-02	0.0	6.211300e-01	5.116195e-02	0.0	6.363800e-01	4.951512e-02	0.0	6.515000e-01	4.769084e-02	0.0	6.664700e-01	4.569886e-02	0.0	6.812700e-01	4.355593e-02	0.0	6.958900e-01	4.128455e-02	0.0	7.103200e-01	3.891411e-02	0.0	7.245300e-01	3.648397e-02	0.0	7.385200e-01	3.403383e-02	0.0	7.522800e-01	3.160869e-02	0.0	7.657800e-01	2.925838e-02	0.0	7.790100e-01	2.702749e-02	0.0	7.919700e-01	2.495430e-02	0.0	8.046400e-01	2.307240e-02	0.0	8.170100e-01	2.140256e-02	0.0	8.290500e-01	1.995432e-02	0.0	8.407700e-01	1.871712e-02	0.0	8.521600e-01	1.766811e-02	0.0	8.631800e-01	1.677312e-02	0.0	8.738500e-01	1.598271e-02	0.0	8.841500e-01	1.524576e-02	0.0	8.940600e-01	1.451200e-02	0.0	9.035800e-01	1.373714e-02	0.0	9.127000e-01	1.289044e-02	0.0	9.214000e-01	1.195878e-02	0.0	9.296900e-01	1.094326e-02	0.0	9.375400e-01	9.865220e-03	0.0	9.449600e-01	8.752734e-03	0.0	9.519400e-01	7.644750e-03	0.0	9.584700e-01	6.590836e-03	0.0	9.645400e-01	5.667936e-03	0.0	9.701500e-01	5.021265e-03	0.0	9.752800e-01	4.918891e-03	0.0	9.799500e-01	5.699181e-03	0.0	9.841300e-01	7.384753e-03	0.0	9.878400e-01	9.052040e-03	0.0	9.910500e-01	8.957801e-03	0.0	9.937800e-01	6.425782e-03	0.0	9.960200e-01	3.096950e-03	0.0	9.977600e-01	9.692239e-04	0.0	9.990000e-01	2.155435e-04	0.0	9.997500e-01	3.753824e-05	0.0	1.000000e+00	0.000000e+00	0.0	
CELLS 200	600
2	149	150	2	150	151	2	151	152	2	152	153	2	153	154	2	154	155	2	155	156	2	156	157	2	157	158	2	158	159	2	159	160	2	160	161	2	161	162	2	162	163	2	163	164	2	164	165	2	165	166	2	166	167	2	167	168	2	168	169	2	169	170	2	170	171	2	171	172	2	172	173	2	173	174	2	174	175	2	175	176	2	176	177	2	177	178	2	178	179	2	179	180	2	180	181	2	181	182	2	31	32	2	32	33	2	33	34	2	34	35	2	35	36	2	36	37	2	37	38	2	38	39	2	39	40	2	40	41	2	41	42	2	42	43	2	43	44	2	44	45	2	45	46	2	46	47	2	47	48	2	48	49	2	49	50	2	50	51	2	51	52	2	52	53	2	53	54	2	54	55	2	55	56	2	56	57	2	57	58	2	58	59	2	59	60	2	60	61	2	61	62	2	62	63	2	63	64	2	64	65	2	65	66	2	66	67	2	67	68	2	68	69	2	69	70	2	70	71	2	71	72	2	72	73	2	73	74	2	74	75	2	75	76	2	76	77	2	77	78	2	78	79	2	79	80	2	80	81	2	81	82	2	82	83	2	83	84	2	113	114	2	114	115	2	115	116	2	116	117	2	117	118	2	118	119	2	119	120	2	120	121	2	121	122	2	122	123	2	123	124	2	124	125	2	125	126	2	126	127	2	127	128	2	128	129	2	129	130	2	130	131	2	131	132	2	132	133	2	133	134	2	134	135	2	135	136	2	136	137	2	137	138	2	138	139	2	139	140	2	140	141	2	141	142	2	142	143	2	143	144	2	144	145	2	145	146	2	146	147	2	147	148	2	148	149	2	84	85	2	85	86	2	86	87	2	87	88	2	88	89	2	89	90	2	90	91	2	91	92	2	92	93	2	93	94	2	94	95	2	95	96	2	96	97	2	97	98	2	98	99	2	99	100	2	100	101	2	101	102	2	102	103	2	103	104	2	104	105	2	105	106	2	106	107	2	107	108	2	108	109	2	109	110	2	110	111	2	111	112	2	112	113	2	199	0	2	0	1	2	1	2	2	2	3	2	3	4	2	4	5	2	5	6	2	6	7	2	182	183	2	183	184	2	184	185	2	185	186	2	186	187	2	187	188	2	188	189	2	189	190	2	190	191	2	191	192	2	192	193	2	193	194	2	194	195	2	195	196	2	196	197	2	197	198	2	198	199	2	7	8	2	8	9	2	9	10	2	10	11	2	11	12	2	12	13	2	13	14	2	14	15	2	15	16	2	16	17	2	17	18	2	18	19	2	19	20	2	20	21	2	21	22	2	22	23	2	23	24	2	24	25	2	25	26	2	26	27	2	27	28	2	28	29	2	29	30	2	30	31	
CELL_TYPES 200
3	3	3	3	3	3	3	3	3	3	3	3	3	3	3	3	3	3	3	3	3	3	3	3	3	3	3	3	3	3	3	3	3	3	3	3	3	3	3	3	3	3	3	3	3	3	3	3	3	3	3	3	3	3	3	3	3	3	3	3	3	3	3	3	3	3	3	3	3	3	3	3	3	3	3	3	3	3	3	3	3	3	3	3	3	3	3	3	3	3	3	3	3	3	3	3	3	3	3	3	3	3	3	3	3	3	3	3	3	3	3	3	3	3	3	3	3	3	3	3	3	3	3	3	3	3	3	3	3	3	3	3	3	3	3	3	3	3	3	3	3	3	3	3	3	3	3	3	3	3	3	3	3	3	3	3	3	3	3	3	3	3	3	3	3	3	3	3	3	3	3	3	3	3	3	3	3	3	3	3	3	3	3	3	3	3	3	3	3	3	3	3	3	3	3	3	3	3	3	3	
POINT_DATA 200

SCALARS Conservative_1 float 1
LOOKUP_TABLE default
1.089130e+00	1.048562e+00	1.047561e+00	1.045952e+00	1.044024e+00	1.042254e+00	1.040196e+00	1.037874e+00	1.035290e+00	1.032483e+00	1.029501e+00	1.026365e+00	1.023122e+00	1.019773e+00	1.016361e+00	1.012901e+00	1.009403e+00	1.005880e+00	1.002335e+00	9.987812e-01	9.952176e-01	9.916693e-01	9.881138e-01	9.845747e-01	9.810327e-01	9.774884e-01	9.739296e-01	9.703823e-01	9.668375e-01	9.633350e-01	9.598685e-01	9.564273e-01	9.528530e-01	9.492558e-01	9.456048e-01	9.419714e-01	9.384758e-01	9.349878e-01	9.316020e-01	9.282234e-01	9.250598e-01	9.223051e-01	9.201314e-01	9.185282e-01	9.165240e-01	9.149668e-01	9.174416e-01	9.290092e-01	9.383530e-01	9.094930e-01	8.110518e-01	7.249820e-01	7.078067e-01	7.201719e-01	7.280635e-01	7.296963e-01	7.302463e-01	7.319023e-01	7.343954e-01	7.371956e-01	7.402414e-01	7.436121e-01	7.473049e-01	7.513292e-01	7.556476e-01	7.602714e-01	7.651986e-01	7.703502e-01	7.756505e-01	7.811258e-01	7.869749e-01	7.934823e-01	8.007665e-01	8.086477e-01	8.168566e-01	8.252902e-01	8.341417e-01	8.436753e-01	8.538981e-01	8.648068e-01	8.764806e-01	8.889509e-01	9.023568e-01	9.167921e-01	9.324356e-01	9.495430e-01	9.683192e-01	9.890908e-01	1.012328e+00	1.038340e+00	1.067730e+00	1.101059e+00	1.138500e+00	1.180061e+00	1.224849e+00	1.270703e+00	1.310930e+00	1.344605e+00	1.351642e+00	1.341703e+00	1.334520e+00	1.301317e+00	1.231069e+00	1.166916e+00	1.105175e+00	1.050305e+00	1.004268e+00	9.664212e-01	9.350494e-01	9.089110e-01	8.867555e-01	8.675668e-01	8.508821e-01	8.361595e-01	8.230920e-01	8.115078e-01	8.010655e-01	7.914562e-01	7.825833e-01	7.744269e-01	7.671160e-01	7.607297e-01	7.550958e-01	7.498620e-01	7.448927e-01	7.403856e-01	7.366506e-01	7.336081e-01	7.309982e-01	7.287032e-01	7.268800e-01	7.257113e-01	7.252203e-01	7.252598e-01	7.256563e-01	7.262726e-01	7.270420e-01	7.279143e-01	7.288215e-01	7.297031e-01	7.305221e-01	7.312570e-01	7.317745e-01	7.318809e-01	7.313919e-01	7.304368e-01	7.286709e-01	7.245264e-01	7.171418e-01	7.126670e-01	7.389486e-01	8.193999e-01	8.955468e-01	9.065334e-01	8.856498e-01	8.633066e-01	8.562501e-01	8.656193e-01	8.830400e-01	9.016272e-01	9.191733e-01	9.371569e-01	9.560150e-01	9.751211e-01	9.937358e-01	1.011547e+00	1.028052e+00	1.043001e+00	1.055966e+00	1.066766e+00	1.075098e+00	1.080861e+00	1.083954e+00	1.084395e+00	1.082400e+00	1.078371e+00	1.072977e+00	1.067240e+00	1.062421e+00	1.059910e+00	1.060981e+00	1.066508e+00	1.076744e+00	1.091298e+00	1.109557e+00	1.131037e+00	1.155479e+00	1.181881e+00	1.207034e+00	1.223524e+00	1.224472e+00	1.153953e+00	1.004595e+00	7.209412e-01	9.025413e-01	9.552304e-01	9.485142e-01	9.612418e-01	9.333300e-01	9.436830e-01	
SCALARS Conservative_2 float 1
LOOKUP_TABLE default
9.533952e-01	8.815216e-01	8.866417e-01	8.916900e-01	8.922239e-01	8.937329e-01	8.953175e-01	8.971462e-01	8.991411e-01	9.012782e-01	9.035257e-01	9.058246e-01	9.081918e-01	9.105759e-01	9.129403e-01	9.153140e-01	9.176482e-01	9.199634e-01	9.222301e-01	9.244552e-01	9.266284e-01	9.287581e-01	9.308218e-01	9.328434e-01	9.348107e-01	9.367287e-01	9.385874e-01	9.404072e-01	9.421749e-01	9.438960e-01	9.455520e-01	9.471710e-01	9.487611e-01	9.502664e-01	9.517496e-01	9.531939e-01	9.545517e-01	9.559090e-01	9.571787e-01	9.584021e-01	9.595221e-01	9.605196e-01	9.613631e-01	9.620296e-01	9.626427e-01	9.627830e-01	9.616039e-01	9.584720e-01	9.550216e-01	9.570912e-01	9.651130e-01	9.551908e-01	9.468415e-01	9.532217e-01	9.556684e-01	9.572030e-01	9.578432e-01	9.585351e-01	9.595221e-01	9.606434e-01	9.617698e-01	9.629601e-01	9.641592e-01	9.653855e-01	9.665930e-01	9.677807e-01	9.689233e-01	9.699908e-01	9.709292e-01	9.717216e-01	9.723741e-01	9.729095e-01	9.732764e-01	9.734009e-01	9.731992e-01	9.725610e-01	9.714846e-01	9.699381e-01	9.676427e-01	9.644980e-01	9.604217e-01	9.551464e-01	9.484448e-01	9.399504e-01	9.291969e-01	9.155629e-01	8.982174e-01	8.762525e-01	8.482650e-01	8.123652e-01	7.663108e-01	7.073310e-01	6.318466e-01	5.373550e-01	4.224809e-01	2.919426e-01	1.615228e-01	5.248801e-02	1.982046e-03	6.659463e-03	3.833532e-02	1.269685e-01	2.768527e-01	4.310365e-01	5.660216e-01	6.723472e-01	7.516060e-01	8.097430e-01	8.517318e-01	8.822497e-01	9.044534e-01	9.205822e-01	9.324635e-01	9.412152e-01	9.475790e-01	9.522074e-01	9.554905e-01	9.576988e-01	9.591529e-01	9.600026e-01	9.604225e-01	9.605865e-01	9.605141e-01	9.601128e-01	9.595704e-01	9.589681e-01	9.584719e-01	9.579794e-01	9.575115e-01	9.570308e-01	9.566917e-01	9.565315e-01	9.565961e-01	9.567906e-01	9.570802e-01	9.574083e-01	9.577751e-01	9.581582e-01	9.585369e-01	9.588840e-01	9.592148e-01	9.594801e-01	9.596371e-01	9.596478e-01	9.593583e-01	9.589518e-01	9.580183e-01	9.562617e-01	9.545174e-01	9.502052e-01	9.623279e-01	9.731690e-01	9.686311e-01	9.676778e-01	9.695809e-01	9.713940e-01	9.719376e-01	9.712618e-01	9.686755e-01	9.643781e-01	9.589485e-01	9.524384e-01	9.444434e-01	9.351946e-01	9.250130e-01	9.142872e-01	9.034529e-01	8.931365e-01	8.836941e-01	8.757953e-01	8.697906e-01	8.660396e-01	8.646958e-01	8.656763e-01	8.687751e-01	8.734192e-01	8.788671e-01	8.841108e-01	8.879471e-01	8.891856e-01	8.867555e-01	8.798941e-01	8.681923e-01	8.514142e-01	8.291605e-01	8.005211e-01	7.637449e-01	7.179930e-01	6.690402e-01	6.376740e-01	6.731598e-01	7.733667e-01	1.055055e+00	4.395120e-01	3.914277e-04	-9.058749e-02	-1.214182e-01	-5.654907e-02	7.430333e-02	5.359834e-01	
SCALARS Conservative_3 float 1
LOOKUP_TABLE default
1.111500e-01	1.315621e-01	1.287593e-01	1.284428e-01	1.286956e-01	1.283559e-01	1.280637e-01	1.277165e-01	1.273156e-01	1.268659e-01	1.263507e-01	1.257814e-01	1.251505e-01	1.244572e-01	1.237035e-01	1.228843e-01	1.220009e-01	1.210642e-01	1.200710e-01	1.190224e-01	1.179224e-01	1.167689e-01	1.155674e-01	1.143195e-01	1.130250e-01	1.116958e-01	1.103161e-01	1.088953e-01	1.074248e-01	1.059233e-01	1.043631e-01	1.027283e-01	1.010926e-01	9.938317e-02	9.761912e-02	9.584033e-02	9.392955e-02	9.201634e-02	9.000148e-02	8.793754e-02	8.577501e-02	8.346675e-02	8.103365e-02	7.838034e-02	7.602951e-02	7.375480e-02	7.091130e-02	6.564589e-02	5.864649e-02	5.220526e-02	6.174566e-02	5.981717e-02	4.938975e-02	4.369699e-02	4.024137e-02	3.660351e-02	3.217889e-02	2.725709e-02	2.211733e-02	1.676024e-02	1.114277e-02	5.219281e-03	-1.003995e-03	-7.558978e-03	-1.444307e-02	-2.170474e-02	-2.934364e-02	-3.737179e-02	-4.578686e-02	-5.464177e-02	-6.397428e-02	-7.386997e-02	-8.433969e-02	-9.539683e-02	-1.070485e-01	-1.193769e-01	-1.324814e-01	-1.464334e-01	-1.612720e-01	-1.771263e-01	-1.940998e-01	-2.123006e-01	-2.318835e-01	-2.529846e-01	-2.757372e-01	-3.002923e-01	-3.267670e-01	-3.552112e-01	-3.854062e-01	-4.169091e-01	-4.487294e-01	-4.785224e-01	-5.024236e-01	-5.136200e-01	-5.011319e-01	-4.509617e-01	-3.508253e-01	-1.945638e-01	-5.074330e-03	1.392492e-01	2.821387e-01	4.611313e-01	5.837396e-01	6.331105e-01	6.303713e-01	5.974819e-01	5.513786e-01	5.023616e-01	4.553569e-01	4.120114e-01	3.730137e-01	3.380464e-01	3.067632e-01	2.787692e-01	2.536225e-01	2.309474e-01	2.104380e-01	1.917756e-01	1.747623e-01	1.591956e-01	1.449270e-01	1.318894e-01	1.199736e-01	1.090053e-01	9.889352e-02	8.953457e-02	8.098977e-02	7.317464e-02	6.604222e-02	5.944994e-02	5.337931e-02	4.781541e-02	4.276312e-02	3.815807e-02	3.393828e-02	3.003389e-02	2.640038e-02	2.300328e-02	1.979325e-02	1.671869e-02	1.370656e-02	1.072572e-02	7.695207e-03	4.540893e-03	1.134376e-03	-2.547887e-03	-6.484900e-03	-1.080020e-02	-1.617412e-02	-2.374092e-02	-3.645892e-02	-3.947444e-02	-3.684240e-02	-4.894268e-02	-6.268373e-02	-7.689271e-02	-8.921206e-02	-1.002880e-01	-1.111142e-01	-1.221163e-01	-1.331869e-01	-1.430670e-01	-1.510103e-01	-1.567864e-01	-1.600539e-01	-1.605566e-01	-1.581629e-01	-1.529468e-01	-1.450875e-01	-1.350049e-01	-1.232276e-01	-1.104876e-01	-9.759762e-02	-8.552367e-02	-7.526463e-02	-6.779736e-02	-6.397874e-02	-6.435407e-02	-6.900037e-02	-7.743320e-02	-8.856519e-02	-1.008729e-01	-1.125556e-01	-1.219066e-01	-1.273276e-01	-1.270339e-01	-1.179136e-01	-9.332357e-02	-4.271696e-02	4.795716e-02	1.936020e-01	3.383312e-01	2.409953e-01	-1.578938e-01	3.881685e-02	1.348703e-01	1.119674e-01	5.671512e-03	-9.998475e-02	5.431779e-02	
SCALARS Conservative_4 float 1
LOOKUP_TABLE default
3.191639e+00	3.064685e+00	3.063103e+00	3.059951e+00	3.054865e+00	3.050425e+00	3.045229e+00	3.039376e+00	3.032863e+00	3.025777e+00	3.018252e+00	3.010322e+00	3.002133e+00	2.993669e+00	2.985031e+00	2.976277e+00	2.967413e+00	2.958483e+00	2.949489e+00	2.940468e+00	2.931413e+00	2.922396e+00	2.913348e+00	2.904341e+00	2.895314e+00	2.886279e+00	2.877187e+00	2.868128e+00	2.859068e+00	2.850121e+00	2.841254e+00	2.832465e+00	2.823304e+00	2.814026e+00	2.804620e+00	2.795272e+00	2.786253e+00	2.777317e+00	2.768600e+00	2.759901e+00	2.751760e+00	2.744679e+00	2.739117e+00	2.734945e+00	2.729763e+00	2.725552e+00	2.731717e+00	2.761304e+00	2.784755e+00	2.708409e+00	2.451624e+00	2.225530e+00	2.177745e+00	2.211227e+00	2.232487e+00	2.237390e+00	2.238961e+00	2.243404e+00	2.250151e+00	2.257752e+00	2.265998e+00	2.275116e+00	2.285087e+00	2.295943e+00	2.307580e+00	2.320028e+00	2.333277e+00	2.347117e+00	2.361337e+00	2.376003e+00	2.391644e+00	2.409015e+00	2.428422e+00	2.449382e+00	2.471178e+00	2.493518e+00	2.516925e+00	2.542102e+00	2.569001e+00	2.597617e+00	2.628171e+00	2.660711e+00	2.695589e+00	2.733020e+00	2.773426e+00	2.817421e+00	2.865470e+00	2.918390e+00	2.977303e+00	3.042871e+00	3.116560e+00	3.199664e+00	3.292411e+00	3.394744e+00	3.504308e+00	3.615970e+00	3.713303e+00	3.796302e+00	3.811848e+00	3.785890e+00	3.772192e+00	3.694967e+00	3.520159e+00	3.362615e+00	3.209451e+00	3.071975e+00	2.955709e+00	2.859601e+00	2.779414e+00	2.712209e+00	2.654912e+00	2.604963e+00	2.561328e+00	2.522663e+00	2.488192e+00	2.457523e+00	2.429781e+00	2.404162e+00	2.380463e+00	2.358631e+00	2.339023e+00	2.321871e+00	2.306709e+00	2.292562e+00	2.279135e+00	2.266948e+00	2.256858e+00	2.248605e+00	2.241520e+00	2.235273e+00	2.230325e+00	2.227148e+00	2.225825e+00	2.225927e+00	2.227000e+00	2.228660e+00	2.230741e+00	2.233096e+00	2.235553e+00	2.237928e+00	2.240153e+00	2.242129e+00	2.243518e+00	2.243790e+00	2.242420e+00	2.239820e+00	2.234921e+00	2.223638e+00	2.204136e+00	2.190342e+00	2.263294e+00	2.477467e+00	2.675178e+00	2.704966e+00	2.650062e+00	2.591451e+00	2.573797e+00	2.598601e+00	2.644178e+00	2.692480e+00	2.737952e+00	2.784426e+00	2.832898e+00	2.881809e+00	2.929324e+00	2.974575e+00	3.016347e+00	3.054082e+00	3.086703e+00	3.113836e+00	3.134751e+00	3.149227e+00	3.157032e+00	3.158192e+00	3.153270e+00	3.143220e+00	3.129732e+00	3.115356e+00	3.103252e+00	3.096885e+00	3.099480e+00	3.113205e+00	3.138706e+00	3.174921e+00	3.220204e+00	3.273169e+00	3.332993e+00	3.397000e+00	3.457808e+00	3.498895e+00	3.511069e+00	3.343175e+00	3.000172e+00	2.076683e+00	2.545404e+00	2.696803e+00	2.677955e+00	2.710727e+00	2.634126e+00	2.704726e+00	
SCALARS Pressure float 1
LOOKUP_TABLE default
1.107471e+00	1.074354e+00	1.071988e+00	1.068790e+00	1.066274e+00	1.063734e+00	1.060815e+00	1.057507e+00	1.053834e+00	1.049844e+00	1.045606e+00	1.041158e+00	1.036557e+00	1.031816e+00	1.026992e+00	1.022103e+00	1.017169e+00	1.012202e+00	1.007214e+00	1.002218e+00	9.972175e-01	9.922409e-01	9.872654e-01	9.823156e-01	9.773680e-01	9.724254e-01	9.674700e-01	9.625355e-01	9.576119e-01	9.527494e-01	9.479423e-01	9.431782e-01	9.382390e-01	9.332737e-01	9.282457e-01	9.232486e-01	9.184403e-01	9.136561e-01	9.090093e-01	9.043820e-01	9.000595e-01	8.962973e-01	8.933312e-01	8.911220e-01	8.884273e-01	8.864122e-01	8.900121e-01	9.058201e-01	9.187715e-01	8.813281e-01	7.500218e-01	6.375248e-01	6.170887e-01	6.316231e-01	6.416646e-01	6.434605e-01	6.440257e-01	6.460898e-01	6.491949e-01	6.526607e-01	6.564467e-01	6.606370e-01	6.652465e-01	6.702767e-01	6.756917e-01	6.815015e-01	6.877081e-01	6.942102e-01	7.009201e-01	7.078722e-01	7.153273e-01	7.236486e-01	7.330021e-01	7.431579e-01	7.537726e-01	7.647315e-01	7.762733e-01	7.887381e-01	8.022008e-01	8.166551e-01	8.321913e-01	8.488896e-01	8.669405e-01	8.865073e-01	9.078684e-01	9.314152e-01	9.574958e-01	9.865853e-01	1.019417e+00	1.056555e+00	1.098911e+00	1.147393e+00	1.202488e+00	1.264249e+00	1.331572e+00	1.400965e+00	1.462564e+00	1.512480e+00	1.524735e+00	1.511459e+00	1.496727e+00	1.442828e+00	1.340253e+00	1.244504e+00	1.153892e+00	1.074733e+00	1.009236e+00	9.559202e-01	9.122473e-01	8.762564e-01	8.460822e-01	8.202739e-01	7.980388e-01	7.785833e-01	7.614680e-01	7.464037e-01	7.329191e-01	7.205991e-01	7.092677e-01	6.988979e-01	6.896452e-01	6.815855e-01	6.745080e-01	6.679928e-01	6.618043e-01	6.561972e-01	6.515448e-01	6.477872e-01	6.445720e-01	6.417589e-01	6.395136e-01	6.380760e-01	6.374675e-01	6.375224e-01	6.380206e-01	6.387951e-01	6.397582e-01	6.408471e-01	6.419827e-01	6.430854e-01	6.441096e-01	6.450338e-01	6.457004e-01	6.458507e-01	6.452919e-01	6.441347e-01	6.420466e-01	6.369999e-01	6.274884e-01	6.225951e-01	6.543112e-01	7.594477e-01	8.602321e-01	8.748685e-01	8.468442e-01	8.166081e-01	8.070089e-01	8.191572e-01	8.423517e-01	8.673848e-01	8.912321e-01	9.158083e-01	9.417861e-01	9.683013e-01	9.943653e-01	1.019457e+00	1.042881e+00	1.064186e+00	1.082789e+00	1.098315e+00	1.110338e+00	1.118649e+00	1.123098e+00	1.123713e+00	1.120799e+00	1.114952e+00	1.107155e+00	1.098885e+00	1.091979e+00	1.088431e+00	1.090085e+00	1.098187e+00	1.113122e+00	1.134393e+00	1.161235e+00	1.193096e+00	1.229827e+00	1.270090e+00	1.308653e+00	1.332714e+00	1.324291e+00	1.213770e+00	9.668962e-01	7.701688e-01	1.017828e+00	1.073194e+00	1.065430e+00	1.083619e+00	1.050325e+00	1.020380e+00	
SCALARS Temperature float 1
LOOKUP_TABLE default
1.016841e+00	1.024598e+00	1.023318e+00	1.021835e+00	1.021312e+00	1.020609e+00	1.019822e+00	1.018916e+00	1.017913e+00	1.016815e+00	1.015644e+00	1.014412e+00	1.013132e+00	1.011809e+00	1.010460e+00	1.009085e+00	1.007694e+00	1.006285e+00	1.004867e+00	1.003441e+00	1.002010e+00	1.000576e+00	9.991415e-01	9.977055e-01	9.962645e-01	9.948204e-01	9.933675e-01	9.919138e-01	9.904580e-01	9.890115e-01	9.875752e-01	9.861473e-01	9.846629e-01	9.831636e-01	9.816423e-01	9.801238e-01	9.786510e-01	9.771850e-01	9.757486e-01	9.743150e-01	9.729744e-01	9.718013e-01	9.708735e-01	9.701630e-01	9.693443e-01	9.687917e-01	9.701021e-01	9.750389e-01	9.791320e-01	9.690323e-01	9.247521e-01	8.793665e-01	8.718322e-01	8.770448e-01	8.813305e-01	8.818196e-01	8.819295e-01	8.827542e-01	8.839855e-01	8.853291e-01	8.868008e-01	8.884162e-01	8.901943e-01	8.921212e-01	8.941889e-01	8.963924e-01	8.987316e-01	9.011618e-01	9.036545e-01	9.062205e-01	9.089582e-01	9.119908e-01	9.153756e-01	9.190132e-01	9.227723e-01	9.266213e-01	9.306252e-01	9.348834e-01	9.394572e-01	9.443209e-01	9.494692e-01	9.549342e-01	9.607514e-01	9.669666e-01	9.736526e-01	9.809090e-01	9.888225e-01	9.974669e-01	1.007003e+00	1.017542e+00	1.029202e+00	1.042082e+00	1.056204e+00	1.071342e+00	1.087131e+00	1.102512e+00	1.115669e+00	1.124851e+00	1.128061e+00	1.126523e+00	1.121547e+00	1.108744e+00	1.088690e+00	1.066490e+00	1.044081e+00	1.023258e+00	1.004947e+00	9.891342e-01	9.756141e-01	9.640728e-01	9.541325e-01	9.454880e-01	9.378959e-01	9.311421e-01	9.251310e-01	9.197740e-01	9.149303e-01	9.104725e-01	9.063159e-01	9.024711e-01	8.990103e-01	8.959628e-01	8.932748e-01	8.908209e-01	8.884559e-01	8.862912e-01	8.844693e-01	8.830154e-01	8.817696e-01	8.806863e-01	8.798063e-01	8.792422e-01	8.789983e-01	8.790262e-01	8.792324e-01	8.795527e-01	8.799466e-01	8.803881e-01	8.808504e-01	8.812975e-01	8.817113e-01	8.820891e-01	8.823762e-01	8.824533e-01	8.822792e-01	8.818486e-01	8.811201e-01	8.791949e-01	8.749850e-01	8.736129e-01	8.854623e-01	9.268340e-01	9.605664e-01	9.650704e-01	9.561840e-01	9.459073e-01	9.424920e-01	9.463250e-01	9.539225e-01	9.620216e-01	9.696018e-01	9.772198e-01	9.851165e-01	9.930062e-01	1.000634e+00	1.007820e+00	1.014424e+00	1.020312e+00	1.025401e+00	1.029574e+00	1.032778e+00	1.034961e+00	1.036112e+00	1.036259e+00	1.035476e+00	1.033923e+00	1.031853e+00	1.029652e+00	1.027821e+00	1.026908e+00	1.027431e+00	1.029703e+00	1.033786e+00	1.039489e+00	1.046575e+00	1.054869e+00	1.064344e+00	1.074635e+00	1.084189e+00	1.089242e+00	1.081520e+00	1.051837e+00	9.624733e-01	1.068282e+00	1.127735e+00	1.123493e+00	1.123262e+00	1.127311e+00	1.125352e+00	1.081275e+00	
SCALARS Pressure_Coefficient float 1
LOOKUP_TABLE default
2.398915e-01	1.659695e-01	1.606865e-01	1.535493e-01	1.479334e-01	1.422623e-01	1.357477e-01	1.283639e-01	1.201662e-01	1.112587e-01	1.017994e-01	9.186982e-02	8.160042e-02	7.101681e-02	6.025096e-02	4.933813e-02	3.832398e-02	2.723655e-02	1.610198e-02	4.951705e-03	-6.210866e-03	-1.731938e-02	-2.842535e-02	-3.947400e-02	-5.051782e-02	-6.155040e-02	-7.261154e-02	-8.362607e-02	-9.461621e-02	-1.054701e-01	-1.162003e-01	-1.268343e-01	-1.378595e-01	-1.489427e-01	-1.601659e-01	-1.713202e-01	-1.820530e-01	-1.927320e-01	-2.031042e-01	-2.134331e-01	-2.230814e-01	-2.314793e-01	-2.381001e-01	-2.430312e-01	-2.490463e-01	-2.535441e-01	-2.455087e-01	-2.102230e-01	-1.813137e-01	-2.648927e-01	-5.579871e-01	-8.090963e-01	-8.547128e-01	-8.222699e-01	-7.998558e-01	-7.958472e-01	-7.945854e-01	-7.899781e-01	-7.830471e-01	-7.753108e-01	-7.668601e-01	-7.575067e-01	-7.472175e-01	-7.359894e-01	-7.239025e-01	-7.109341e-01	-6.970800e-01	-6.825665e-01	-6.675892e-01	-6.520709e-01	-6.354302e-01	-6.168558e-01	-5.959774e-01	-5.733082e-01	-5.496147e-01	-5.251529e-01	-4.993898e-01	-4.715667e-01	-4.415161e-01	-4.092519e-01	-3.745729e-01	-3.372999e-01	-2.970077e-01	-2.533318e-01	-2.056510e-01	-1.530910e-01	-9.487549e-02	-2.994352e-02	4.334204e-02	1.262396e-01	2.207824e-01	3.290025e-01	4.519813e-01	5.898410e-01	7.401162e-01	8.950111e-01	1.032508e+00	1.143929e+00	1.171283e+00	1.141649e+00	1.108765e+00	9.884559e-01	7.594927e-01	5.457673e-01	3.435087e-01	1.668138e-01	2.061696e-02	-9.839237e-02	-1.958765e-01	-2.762134e-01	-3.435666e-01	-4.011742e-01	-4.508062e-01	-4.942336e-01	-5.324376e-01	-5.660631e-01	-5.961627e-01	-6.236627e-01	-6.489561e-01	-6.721028e-01	-6.927564e-01	-7.107466e-01	-7.265446e-01	-7.410875e-01	-7.549010e-01	-7.674170e-01	-7.778017e-01	-7.861892e-01	-7.933660e-01	-7.996452e-01	-8.046571e-01	-8.078660e-01	-8.092244e-01	-8.091018e-01	-8.079898e-01	-8.062610e-01	-8.041112e-01	-8.016805e-01	-7.991458e-01	-7.966843e-01	-7.943983e-01	-7.923352e-01	-7.908473e-01	-7.905117e-01	-7.917592e-01	-7.943422e-01	-7.990030e-01	-8.102681e-01	-8.314992e-01	-8.424217e-01	-7.716268e-01	-5.369470e-01	-3.119819e-01	-2.793114e-01	-3.418657e-01	-4.093570e-01	-4.307838e-01	-4.036671e-01	-3.518935e-01	-2.960161e-01	-2.427854e-01	-1.879278e-01	-1.299417e-01	-7.075613e-02	-1.257735e-02	4.343131e-02	9.571694e-02	1.432726e-01	1.847970e-01	2.194532e-01	2.462895e-01	2.648417e-01	2.747714e-01	2.761459e-01	2.696405e-01	2.565886e-01	2.391855e-01	2.207261e-01	2.053108e-01	1.973899e-01	2.010834e-01	2.191682e-01	2.525050e-01	2.999837e-01	3.598991e-01	4.310184e-01	5.130070e-01	6.028796e-01	6.889583e-01	7.426647e-01	7.238639e-01	4.771657e-01	-7.389231e-02	-5.130161e-01	3.979390e-02	1.633805e-01	1.460493e-01	1.866494e-01	1.123327e-01	4.549216e-02	
SCALARS Mach float 1
LOOKUP_TABLE default
7.386428e-01	7.097112e-01	7.145481e-01	7.201240e-01	7.220905e-01	7.247260e-01	7.276683e-01	7.310413e-01	7.347801e-01	7.388419e-01	7.431638e-01	7.476838e-01	7.523816e-01	7.572137e-01	7.621167e-01	7.671038e-01	7.721256e-01	7.771918e-01	7.822725e-01	7.873639e-01	7.924578e-01	7.975395e-01	8.026086e-01	8.076660e-01	8.127186e-01	8.177707e-01	8.228248e-01	8.278744e-01	8.329151e-01	8.379143e-01	8.428570e-01	8.477756e-01	8.528539e-01	8.579213e-01	8.630677e-01	8.682071e-01	8.731542e-01	8.781344e-01	8.829601e-01	8.877732e-01	8.922752e-01	8.962154e-01	8.993518e-01	9.016672e-01	9.044167e-01	9.061800e-01	9.018258e-01	8.851170e-01	8.709228e-01	9.048278e-01	1.047948e+00	1.189772e+00	1.212473e+00	1.195745e+00	1.182740e+00	1.181477e+00	1.181107e+00	1.178546e+00	1.174772e+00	1.170656e+00	1.166138e+00	1.161170e+00	1.155699e+00	1.149762e+00	1.143389e+00	1.136591e+00	1.129368e+00	1.121853e+00	1.114137e+00	1.106179e+00	1.097677e+00	1.088239e+00	1.077683e+00	1.066309e+00	1.054523e+00	1.042419e+00	1.029783e+00	1.016295e+00	1.001742e+00	9.861911e-01	9.696344e-01	9.519470e-01	9.329771e-01	9.125377e-01	8.903262e-01	8.659280e-01	8.389372e-01	8.089427e-01	7.751436e-01	7.367803e-01	6.928668e-01	6.421374e-01	5.830955e-01	5.143463e-01	4.337667e-01	3.402877e-01	2.357365e-01	1.194292e-01	3.207159e-03	8.273676e-02	1.702696e-01	2.950055e-01	4.250865e-01	5.371518e-01	6.340507e-01	7.155036e-01	7.825408e-01	8.379094e-01	8.838040e-01	9.221273e-01	9.546045e-01	9.825067e-01	1.006783e+00	1.028222e+00	1.047190e+00	1.064012e+00	1.079160e+00	1.093055e+00	1.105975e+00	1.117898e+00	1.128610e+00	1.138027e+00	1.146322e+00	1.153886e+00	1.161169e+00	1.167828e+00	1.173431e+00	1.177897e+00	1.181726e+00	1.185051e+00	1.187755e+00	1.189485e+00	1.190239e+00	1.190155e+00	1.189527e+00	1.188546e+00	1.187345e+00	1.185990e+00	1.184582e+00	1.183207e+00	1.181951e+00	1.180791e+00	1.179921e+00	1.179686e+00	1.180223e+00	1.181557e+00	1.183779e+00	1.189717e+00	1.202754e+00	1.205987e+00	1.170500e+00	1.043480e+00	9.333754e-01	9.195138e-01	9.481847e-01	9.808405e-01	9.923313e-01	9.800046e-01	9.554675e-01	9.290052e-01	9.040367e-01	8.786371e-01	8.518933e-01	8.247505e-01	7.981438e-01	7.725674e-01	7.486376e-01	7.269073e-01	7.078103e-01	6.918949e-01	6.795391e-01	6.710391e-01	6.665520e-01	6.660076e-01	6.691280e-01	6.752291e-01	6.832936e-01	6.918038e-01	6.988352e-01	7.023183e-01	7.003435e-01	6.916420e-01	6.758397e-01	6.533262e-01	6.245984e-01	5.897028e-01	5.478938e-01	4.994477e-01	4.508162e-01	4.232380e-01	4.648845e-01	6.028171e-01	9.280465e-01	5.296905e-01	3.423006e-02	1.356165e-01	1.388566e-01	4.706306e-02	1.063343e-01	4.639935e-01	