# vtk DataFile Version 3.0
vtk output
ASCII
DATASET UNSTRUCTURED_GRID
POINTS 5233 float
9.997500e-01	-3.633243e-05	0.0	9.990000e-01	-1.454724e-04	0.0	9.977600e-01	-3.275086e-04	0.0	9.960200e-01	-5.899339e-04	0.0	9.937800e-01	-9.471192e-04	0.0	9.910500e-01	-1.422164e-03	0.0	9.878400e-01	-2.045673e-03	0.0	9.841300e-01	-2.853982e-03	0.0	9.799500e-01	-3.859422e-03	0.0	9.752800e-01	-5.059156e-03	0.0	9.701500e-01	-6.406355e-03	0.0	9.645400e-01	-7.842522e-03	0.0	9.584700e-01	-9.292291e-03	0.0	9.519400e-01	-1.070028e-02	0.0	9.449600e-01	-1.203853e-02	0.0	9.375400e-01	-1.331143e-02	0.0	9.296900e-01	-1.454630e-02	0.0	9.214000e-01	-1.578142e-02	0.0	9.127000e-01	-1.704405e-02	0.0	9.035800e-01	-1.835523e-02	0.0	8.940600e-01	-1.971859e-02	0.0	8.841500e-01	-2.112953e-02	0.0	8.738500e-01	-2.257982e-02	0.0	8.631800e-01	-2.405737e-02	0.0	8.521600e-01	-2.555152e-02	0.0	8.407700e-01	-2.705910e-02	0.0	8.290500e-01	-2.857088e-02	0.0	8.170100e-01	-3.008302e-02	0.0	8.046400e-01	-3.159468e-02	0.0	7.919700e-01	-3.310023e-02	0.0	7.790100e-01	-3.459640e-02	0.0	7.657800e-01	-3.607857e-02	0.0	7.522800e-01	-3.754418e-02	0.0	7.385200e-01	-3.898939e-02	0.0	7.245300e-01	-4.040833e-02	0.0	7.103200e-01	-4.179735e-02	0.0	6.958900e-01	-4.315391e-02	0.0	6.812700e-01	-4.447281e-02	0.0	6.664700e-01	-4.575104e-02	0.0	6.515000e-01	-4.698583e-02	0.0	6.363800e-01	-4.817387e-02	0.0	6.211300e-01	-4.931225e-02	0.0	6.057600e-01	-5.039912e-02	0.0	5.902800e-01	-5.143284e-02	0.0	5.747100e-01	-5.241136e-02	0.0	5.590600e-01	-5.333353e-02	0.0	5.433600e-01	-5.419725e-02	0.0	5.276100e-01	-5.500234e-02	0.0	5.118400e-01	-5.574716e-02	0.0	4.960500e-01	-5.643165e-02	0.0	4.802700e-01	-5.705448e-02	0.0	4.645100e-01	-5.761525e-02	0.0	4.487800e-01	-5.811351e-02	0.0	4.331100e-01	-5.854818e-02	0.0	4.175000e-01	-5.891903e-02	0.0	4.019700e-01	-5.922518e-02	0.0	3.865400e-01	-5.946573e-02	0.0	3.712300e-01	-5.963981e-02	0.0	3.560400e-01	-5.974662e-02	0.0	3.409900e-01	-5.978502e-02	0.0	3.261100e-01	-5.975389e-02	0.0	3.114000e-01	-5.965209e-02	0.0	2.968700e-01	-5.947825e-02	0.0	2.825500e-01	-5.923129e-02	0.0	2.684500e-01	-5.890990e-02	0.0	2.545700e-01	-5.851242e-02	0.0	2.409400e-01	-5.803797e-02	0.0	2.275700e-01	-5.748527e-02	0.0	2.144700e-01	-5.685302e-02	0.0	2.016600e-01	-5.614053e-02	0.0	1.891400e-01	-5.534613e-02	0.0	1.769300e-01	-5.446939e-02	0.0	1.650400e-01	-5.350945e-02	0.0	1.534900e-01	-5.246654e-02	0.0	1.422900e-01	-5.134037e-02	0.0	1.314400e-01	-5.012966e-02	0.0	1.209500e-01	-4.883417e-02	0.0	1.108500e-01	-4.745667e-02	0.0	1.011300e-01	-4.599498e-02	0.0	9.181000e-02	-4.445120e-02	0.0	8.290000e-02	-4.282644e-02	0.0	7.440000e-02	-4.112006e-02	0.0	6.633000e-02	-3.933557e-02	0.0	5.869000e-02	-3.747268e-02	0.0	5.149000e-02	-3.553340e-02	0.0	4.474000e-02	-3.352024e-02	0.0	3.844000e-02	-3.143288e-02	0.0	3.260000e-02	-2.927418e-02	0.0	2.723000e-02	-2.704780e-02	0.0	2.232000e-02	-2.474871e-02	0.0	1.790000e-02	-2.239092e-02	0.0	1.395000e-02	-1.996361e-02	0.0	1.049000e-02	-1.747803e-02	0.0	7.520000e-03	-1.493512e-02	0.0	5.040000e-03	-1.233507e-02	0.0	3.050000e-03	-9.676376e-03	0.0	1.560000e-03	-6.974315e-03	0.0	5.600000e-04	-4.207807e-03	0.0	6.000000e-05	-1.384363e-03	0.0	0.000000e+00	0.000000e+00	0.0	6.000000e-05	1.264179e-03	0.0	5.600000e-04	3.627001e-03	0.0	1.560000e-03	5.792561e-03	0.0	3.050000e-03	7.812397e-03	0.0	5.040000e-03	9.731445e-03	0.0	7.520000e-03	1.155739e-02	0.0	1.049000e-02	1.330519e-02	0.0	1.395000e-02	1.498533e-02	0.0	1.790000e-02	1.660571e-02	0.0	2.232000e-02	1.816595e-02	0.0	2.723000e-02	1.967919e-02	0.0	3.260000e-02	2.114130e-02	0.0	3.844000e-02	2.255999e-02	0.0	4.474000e-02	2.393661e-02	0.0	5.149000e-02	2.527257e-02	0.0	5.869000e-02	2.657088e-02	0.0	6.633000e-02	2.783228e-02	0.0	7.440000e-02	2.905745e-02	0.0	8.290000e-02	3.024832e-02	0.0	9.181000e-02	3.140380e-02	0.0	1.011300e-01	3.252540e-02	0.0	1.108500e-01	3.361311e-02	0.0	1.209500e-01	3.466581e-02	0.0	1.314400e-01	3.568537e-02	0.0	1.422900e-01	3.666952e-02	0.0	1.534900e-01	3.761800e-02	0.0	1.650400e-01	3.853119e-02	0.0	1.769300e-01	3.940842e-02	0.0	1.891400e-01	4.024823e-02	0.0	2.016600e-01	4.104984e-02	0.0	2.144700e-01	4.181177e-02	0.0	2.275700e-01	4.253361e-02	0.0	2.409400e-01	4.321368e-02	0.0	2.545700e-01	4.385073e-02	0.0	2.684500e-01	4.444335e-02	0.0	2.825500e-01	4.498927e-02	0.0	2.968700e-01	4.548731e-02	0.0	3.114000e-01	4.593568e-02	0.0	3.261100e-01	4.633196e-02	0.0	3.409900e-01	4.667425e-02	0.0	3.560400e-01	4.696069e-02	0.0	3.712300e-01	4.718872e-02	0.0	3.865400e-01	4.735604e-02	0.0	4.019700e-01	4.746048e-02	0.0	4.175000e-01	4.749962e-02	0.0	4.331100e-01	4.747109e-02	0.0	4.487800e-01	4.737265e-02	0.0	4.645100e-01	4.720195e-02	0.0	4.802700e-01	4.695702e-02	0.0	4.960500e-01	4.663583e-02	0.0	5.118400e-01	4.623644e-02	0.0	5.276100e-01	4.575772e-02	0.0	5.433600e-01	4.519796e-02	0.0	5.590600e-01	4.455680e-02	0.0	5.747100e-01	4.383311e-02	0.0	5.902800e-01	4.302752e-02	0.0	6.057600e-01	4.214030e-02	0.0	6.211300e-01	4.117282e-02	0.0	6.363800e-01	4.012646e-02	0.0	6.515000e-01	3.900318e-02	0.0	6.664700e-01	3.780631e-02	0.0	6.812700e-01	3.654008e-02	0.0	6.958900e-01	3.520862e-02	0.0	7.103200e-01	3.381674e-02	0.0	7.245300e-01	3.237201e-02	0.0	7.385200e-01	3.087975e-02	0.0	7.522800e-01	2.934692e-02	0.0	7.657800e-01	2.778342e-02	0.0	7.790100e-01	2.619762e-02	0.0	7.919700e-01	2.459717e-02	0.0	8.046400e-01	2.299260e-02	0.0	8.170100e-01	2.139355e-02	0.0	8.290500e-01	1.981238e-02	0.0	8.407700e-01	1.825588e-02	0.0	8.521600e-01	1.673250e-02	0.0	8.631800e-01	1.525308e-02	0.0	8.738500e-01	1.381811e-02	0.0	8.841500e-01	1.243082e-02	0.0	8.940600e-01	1.109239e-02	0.0	9.035800e-01	9.801131e-03	0.0	9.127000e-01	8.559755e-03	0.0	9.214000e-01	7.379202e-03	0.0	9.296900e-01	6.276039e-03	0.0	9.375400e-01	5.281240e-03	0.0	9.449600e-01	4.423963e-03	0.0	9.519400e-01	3.729135e-03	0.0	9.584700e-01	3.202872e-03	0.0	9.645400e-01	2.824979e-03	0.0	9.701500e-01	2.550566e-03	0.0	9.752800e-01	2.323795e-03	0.0	9.799500e-01	2.092399e-03	0.0	9.841300e-01	1.826643e-03	0.0	9.878400e-01	1.519706e-03	0.0	9.910500e-01	1.190116e-03	0.0	9.937800e-01	8.629907e-04	0.0	9.960200e-01	5.666177e-04	0.0	9.977600e-01	3.231867e-04	0.0	9.990000e-01	1.450782e-04	0.0	9.997500e-01	3.632618e-05	0.0	1.000000e+00	0.000000e+00	0.0	1.984229e+01	2.506660e+00	0.0	1.937166e+01	4.973800e+00	0.0	1.859553e+01	7.362490e+00	0.0	1.752613e+01	9.635070e+00	0.0	1.618034e+01	1.175571e+01	0.0	1.457937e+01	1.369094e+01	0.0	1.274848e+01	1.541027e+01	0.0	1.071654e+01	1.688656e+01	0.0	8.515590e+00	1.809654e+01	0.0	6.180340e+00	1.902113e+01	0.0	3.747630e+00	1.964575e+01	0.0	1.255810e+00	1.996053e+01	0.0	-1.255810e+00	1.996053e+01	0.0	-3.747630e+00	1.964574e+01	0.0	-6.180340e+00	1.902113e+01	0.0	-8.515590e+00	1.809654e+01	0.0	-1.071654e+01	1.688656e+01	0.0	-1.274848e+01	1.541026e+01	0.0	-1.457937e+01	1.369094e+01	0.0	-1.618034e+01	1.175570e+01	0.0	-1.752613e+01	9.635070e+00	0.0	-1.859553e+01	7.362490e+00	0.0	-1.937166e+01	4.973800e+00	0.0	-1.984229e+01	2.506660e+00	0.0	-2.000000e+01	0.000000e+00	0.0	-1.984229e+01	-2.506670e+00	0.0	-1.937166e+01	-4.973800e+00	0.0	-1.859553e+01	-7.362490e+00	0.0	-1.752613e+01	-9.635080e+00	0.0	-1.618034e+01	-1.175571e+01	0.0	-1.457937e+01	-1.369094e+01	0.0	-1.274848e+01	-1.541027e+01	0.0	-1.071653e+01	-1.688656e+01	0.0	-8.515580e+00	-1.809654e+01	0.0	-6.180340e+00	-1.902113e+01	0.0	-3.747620e+00	-1.964575e+01	0.0	-1.255810e+00	-1.996053e+01	0.0	1.255810e+00	-1.996053e+01	0.0	3.747630e+00	-1.964574e+01	0.0	6.180340e+00	-1.902113e+01	0.0	8.515590e+00	-1.809654e+01	0.0	1.071654e+01	-1.688656e+01	0.0	1.274848e+01	-1.541026e+01	0.0	1.457937e+01	-1.369094e+01	0.0	1.618034e+01	-1.175570e+01	0.0	1.752614e+01	-9.635070e+00	0.0	1.859553e+01	-7.362490e+00	0.0	1.937166e+01	-4.973790e+00	0.0	1.984229e+01	-2.506660e+00	0.0	2.000000e+01	0.000000e+00	0.0	6.074196e-02	-4.533575e-02	0.0	6.601884e-01	-6.002965e-02	0.0	4.255536e-01	6.170986e-02	0.0	6.897640e-01	4.909609e-02	0.0	3.791233e-01	-7.361190e-02	0.0	9.994675e-01	-7.275921e-04	0.0	9.985545e-01	-1.331432e-03	0.0	7.738133e-01	-4.740750e-02	0.0	6.898601e-01	-5.715591e-02	0.0	-1.128288e-03	5.519546e-03	0.0	7.467801e-01	-5.081510e-02	0.0	5.833310e-01	5.752164e-02	0.0	9.928160e-01	-3.736328e-03	0.0	9.899360e-01	-4.744357e-03	0.0	5.989071e-01	5.658708e-02	0.0	7.187647e-01	-5.407133e-02	0.0	-1.469312e-03	6.001434e-04	0.0	9.865726e-01	-5.906780e-03	0.0	9.827329e-01	-7.226864e-03	0.0	-1.303044e-03	-6.475411e-03	0.0	6.451051e-01	-6.138019e-02	0.0	8.244821e-01	-4.030467e-02	0.0	7.997423e-01	-4.390135e-02	0.0	3.484815e-01	6.059784e-02	0.0	8.479022e-01	-3.667382e-02	0.0	2.473664e-01	5.609465e-02	0.0	8.699423e-01	-3.303300e-02	0.0	1.046288e-02	1.735421e-02	0.0	8.904960e-01	-2.943836e-02	0.0	7.702122e-02	-4.971374e-02	0.0	9.094912e-01	-2.594469e-02	0.0	-1.767625e-03	-3.208054e-03	0.0	9.424828e-01	-1.917127e-02	0.0	9.268477e-01	-2.255393e-02	0.0	1.794695e-02	-2.750789e-02	0.0	4.257417e-01	-7.304268e-02	0.0	8.591038e-01	-3.484921e-02	0.0	9.563358e-01	-1.566915e-02	0.0	9.784090e-01	-8.726073e-03	0.0	9.683302e-01	-1.208207e-02	0.0	1.582634e-01	-6.358562e-02	0.0	9.001953e-01	-2.767693e-02	0.0	7.604296e-01	-4.912712e-02	0.0	9.971360e-01	-2.087306e-03	0.0	5.990501e-01	-6.505254e-02	0.0	4.414442e-01	-7.269288e-02	0.0	5.363196e-01	-6.898702e-02	0.0	4.730157e-01	-7.176059e-02	0.0	5.046766e-01	-7.052340e-02	0.0	4.888342e-01	-7.117893e-02	0.0	1.249493e-01	-5.907855e-02	0.0	2.784341e-02	-3.298916e-02	0.0	3.945690e-01	-7.350387e-02	0.0	4.621845e-02	-4.063725e-02	0.0	4.101098e-01	-7.331446e-02	0.0	3.187148e-01	-7.322044e-02	0.0	3.486127e-01	-7.358681e-02	0.0	3.350703e-02	-3.560310e-02	0.0	2.895107e-01	-7.251553e-02	0.0	9.348852e-01	-2.086948e-02	0.0	1.468047e-01	-6.217398e-02	0.0	1.946437e-01	-6.724403e-02	0.0	8.579549e-02	-5.177131e-02	0.0	1.045869e-01	-5.561808e-02	0.0	5.678223e-01	-6.716754e-02	0.0	1.700660e-01	-6.490344e-02	0.0	6.145275e-01	-6.389096e-02	0.0	8.804134e-01	-3.122725e-02	0.0	2.266732e-02	-3.028909e-02	0.0	9.952218e-01	-2.870186e-03	0.0	6.735388e-03	-1.882929e-02	0.0	1.849118e-02	2.152511e-02	0.0	9.183779e-01	-2.423984e-02	0.0	9.49640
[...]
POINT_DATA 5233

SCALARS Conservative_1 float 1
LOOKUP_TABLE default
1.199829e+00	1.181606e+00	1.171185e+00	1.164749e+00	1.160180e+00	1.155718e+00	1.148835e+00	1.137918e+00	1.121735e+00	1.100376e+00	1.075081e+00	1.048461e+00	1.024884e+00	1.008340e+00	9.999605e-01	9.978990e-01	9.990066e-01	1.000448e+00	1.000474e+00	9.984834e-01	9.946975e-01	9.896734e-01	9.839967e-01	9.781393e-01	9.723788e-01	9.668261e-01	9.614723e-01	9.562708e-01	9.511569e-01	9.460991e-01	9.410814e-01	9.360599e-01	9.310006e-01	9.259201e-01	9.208696e-01	9.158976e-01	9.110228e-01	9.062498e-01	9.015899e-01	8.970596e-01	8.926589e-01	8.883982e-01	8.842601e-01	8.802613e-01	8.764168e-01	8.727780e-01	8.693344e-01	8.660216e-01	8.626926e-01	8.593381e-01	8.561611e-01	8.535164e-01	8.515184e-01	8.498755e-01	8.479139e-01	8.448793e-01	8.402673e-01	8.342217e-01	8.276218e-01	8.217300e-01	8.174393e-01	8.149452e-01	8.139744e-01	8.140921e-01	8.149871e-01	8.164595e-01	8.184598e-01	8.209041e-01	8.237063e-01	8.267539e-01	8.300667e-01	8.338086e-01	8.382270e-01	8.433894e-01	8.492187e-01	8.555682e-01	8.625033e-01	8.702025e-01	8.787232e-01	8.881047e-01	8.984587e-01	9.098442e-01	9.224130e-01	9.362829e-01	9.516442e-01	9.687743e-01	9.879014e-01	1.009385e+00	1.033710e+00	1.061192e+00	1.092362e+00	1.127685e+00	1.167007e+00	1.209866e+00	1.254547e+00	1.298036e+00	1.331736e+00	1.350896e+00	1.339559e+00	1.308345e+00	1.284380e+00	1.221310e+00	1.099804e+00	1.002374e+00	9.263435e-01	8.705499e-01	8.324710e-01	8.073792e-01	7.904698e-01	7.790029e-01	7.712822e-01	7.661377e-01	7.630090e-01	7.611573e-01	7.602073e-01	7.601552e-01	7.608725e-01	7.621226e-01	7.635837e-01	7.649270e-01	7.661665e-01	7.676262e-01	7.695674e-01	7.718431e-01	7.740534e-01	7.759673e-01	7.776748e-01	7.793231e-01	7.810165e-01	7.828272e-01	7.848117e-01	7.869550e-01	7.891852e-01	7.914038e-01	7.935700e-01	7.956602e-01	7.976651e-01	7.995449e-01	8.013135e-01	8.031052e-01	8.051685e-01	8.076912e-01	8.107096e-01	8.140944e-01	8.176884e-01	8.213909e-01	8.251731e-01	8.291185e-01	8.333199e-01	8.378513e-01	8.426300e-01	8.476140e-01	8.528866e-01	8.586243e-01	8.648331e-01	8.713333e-01	8.779782e-01	8.848067e-01	8.919861e-01	8.995506e-01	9.074417e-01	9.155731e-01	9.238987e-01	9.324065e-01	9.410650e-01	9.498602e-01	9.587421e-01	9.676933e-01	9.766394e-01	9.855830e-01	9.944408e-01	1.003132e+00	1.011595e+00	1.019744e+00	1.027534e+00	1.034942e+00	1.042017e+00	1.048937e+00	1.055963e+00	1.063484e+00	1.071797e+00	1.080999e+00	1.090707e+00	1.100060e+00	1.107806e+00	1.112608e+00	1.113378e+00	1.109751e+00	1.102491e+00	1.093764e+00	1.086652e+00	1.084127e+00	1.088029e+00	1.098248e+00	1.112829e+00	1.130000e+00	1.148469e+00	1.168631e+00	1.192713e+00	1.181126e+00	9.999764e-01	9.999696e-01	9.999530e-01	9.999291e-01	9.999051e-01	9.998770e-01	9.998375e-01	9.997824e-01	9.997199e-01	9.996679e-01	9.996335e-01	9.996450e-01	9.996993e-01	9.998098e-01	9.999046e-01	9.999813e-01	1.000023e+00	1.000049e+00	1.000064e+00	1.000070e+00	1.000073e+00	1.000074e+00	1.000074e+00	1.000076e+00	1.000077e+00	1.000080e+00	1.000085e+00	1.000092e+00	1.000101e+00	1.000114e+00	1.000128e+00	1.000150e+00	1.000169e+00	1.000195e+00	1.000213e+00	1.000223e+00	1.000225e+00	1.000212e+00	1.000202e+00	1.000189e+00	1.000182e+00	1.000167e+00	1.000150e+00	1.000129e+00	1.000105e+00	1.000078e+00	1.000060e+00	1.000046e+00	1.000013e+00	9.999797e-01	9.441743e-01	9.020065e-01	8.232627e-01	9.232863e-01	8.406992e-01	1.183063e+00	1.173574e+00	9.407513e-01	9.112130e-01	1.217169e+00	9.307760e-01	8.722173e-01	1.151730e+00	1.145001e+00	8.787821e-01	9.208324e-01	1.307706e+00	1.136030e+00	1.123662e+00	1.337685e+00	8.975892e-01	9.608546e-01	9.506921e-01	8.076133e-01	9.714274e-01	7.940419e-01	9.825366e-01	8.785899e-01	9.931509e-01	9.169682e-01	1.000584e+00	1.344675e+00	1.006062e+00	1.002970e+00	1.100298e+00	8.522785e-01	9.769385e-01	1.025341e+00	1.107408e+00	1.065590e+00	8.483108e-01	9.974618e-01	9.357834e-01	1.164153e+00	8.850760e-01	8.538130e-01	8.705842e-01	8.576510e-01	8.639228e-01	8.605963e-01	8.681769e-01	1.042884e+00	8.461876e-01	9.774090e-01	8.499766e-01	8.196899e-01	8.278002e-01	1.018592e+00	8.181634e-01	1.003583e+00	8.543287e-01	8.347074e-01	9.052315e-01	8.848385e-01	8.774421e-01	8.430500e-01	8.891287e-01	9.880448e-01	1.070027e+00	1.157659e+00	1.209180e+00	8.235184e-01	1.002324e+00	1.012746e+00	1.087642e+00	1.134106e+00	9.660730e-01	8.224286e-01	8.739332e-01	9.257695e-01	9.457047e-01	8.760752e-01	8.279121e-01	8.811721e-01	9.065559e-01	9.599431e-01	1.248733e+00	1.133778e+00	8.341509e-01	8.385891e-01	1.211158e+00	8.249648e-01	8.945543e-01	8.182732e-01	8.204097e-01	8.554204e-01	9.159735e-01	1.279833e+00	1.318481e+00	8.543083e-01	1.324629e+00	7.950207e-01	7.743084e-01	7.809432e-01	7.752113e-01	8.195293e-01	1.140203e+00	8.491775e-01	8.350787e-01	1.097224e+00	1.105881e+00	1.052308e+00	8.395167e-01	8.270719e-01	8.126889e-01	1.083668e+00	1.067070e+00	7.727128e-01	1.092462e+00	1.106630e+00	1.099082e+00	7.736180e-01	7.728822e-01	8.002564e-01	7.961663e-01	7.832651e-01	8.039882e-01	8.309760e-01	8.159536e-01	7.803845e-01	7.768056e-01	8.923720e-01	7.861819e-01	7.898174e-01	9.073049e-01	8.658086e-01	9.570031e-01	9.399101e-01	9.915247e-01	9.743018e-01	1.023954e+00	1.008254e+00	1.059468e+00	1.038460e+00	1.104249e+00	1.075206e+00	1.102349e+00	1.031348e+00	1.045388e+00	9.999813e-01	1.016252e+00	9.656483e-01	9.829559e-01	9.315230e-01	9.484094e-01	8.996594e-01	9.151996e-01	8.598036e-01	8.854459e-01	7.878964e-01	7.919016e-01	7.818876e-01	7.846660e-01	7.769258e-01	7.786659e-01	8.465813e-01	7.867356e-01	8.311844e-01	9.817427e-01	1.043714e+00	9.557348e-01	8.228116e-01	8.672903e-01	1.053708e+00	8.068626e-01	9.228512e-01	7.731794e-01	7.724665e-01	7.982403e-01	7.741804e-01	1.090278e+00	1.092349e+00	8.021815e-01	1.099346e+00	1.110399e+00	8.057309e-01	8.098853e-01	1.091910e+00	1.206471e+00	1.157945e+00	1.174451e+00	8.932928e-01	9.968695e-01	1.124399e+00	8.442482e-01	1.286677e+00	1.170364e+00	9.298975e-01	8.609744e-01	8.189467e-01	7.847967e-01	1.199731e+00	1.259641e+00	8.238105e-01	9.164554e-01	1.003288e+00	1.199612e+00	8.736306e-01	9.118067e-01	9.456324e-01	1.133364e+00	8.257748e-01	9.762516e-01	9.657282e-01	9.124812e-01	1.317255e+00	8.362941e-01	1.132779e+00	1.041615e+00	8.602453e-01	9.211859e-01	9.028334e-01	8.579983e-01	9.244275e-01	8.471726e-01	9.965145e-01	9.505263e-01	9.567060e-01	8.548663e-01	9.153447e-01	1.020562e+00	7.826734e-01	9.231792e-01	7.879487e-01	1.041878e+00	1.100586e+00	8.106115e-01	8.512417e-01	1.099660e+00	1.048692e+00	1.108335e+00	1.100937e+00	1.094574e+00	7.971996e-01	8.087802e-01	7.952437e-01	7.825535e-01	9.072745e-01	8.401287e-01	9.141155e-01	7.856402e-01	7.937666e-01	1.098095e+00	1.119012e+00	1.055567e+00	8.541060e-01	1.215365e+00	1.145810e+00	1.131600e+00	1.009299e+00	1.133700e+00	1.234079e+00	1.331048e+00	1.315107e+00	1.102201e+00	1.217657e+00	9.518447e-01	1.163051e+00	1.148585e+00	8.255738e-01	8.754821e-01	1.123042e+00	9.869113e-01	8.800811e-01	1.141672e+00	1.332390e+00	8.564673e-01	8.218891e-01	9.709381e-01	8.032106e-01	9.816112e-01	9.919620e-01	9.375005e-01	1.000325e+00	1.005595e+00	1.017415e+00	1.048552e+00	1.027448e+00	1.058813e+00	1.110028e+00	8.746200e-01	9.358638e-01	9.407663e-01	1.155393e+00	8.599177e-01	8.625513e-01	8.656690e-01	1.074265e+00	8.516734e-01	8.546326e-01	8.296191e-01	1.004156e+00	1.007874e+00	1.011305e+00	8.671270e-01	9.015770e-01	8.788929e-01	8.902719e-01	1.077039e+00	1.094521e+00	9.259896e-01	9.309222e-01	8.917209e-01	8.827682e-01	8.825188e-01	8.863099e-01	9.850734e-01	9.676886e-01	1.165312e+00	8.350678e-01	8.413179e-01	8.488694e-01	8.442766e-01	8.328331e-01	8.297697e-01	8.232131e-01	8.237540e-01	8.272140e-01	1.298427e+00	1.267559e+00	7.999712e-01	1.095881e+00	8.562407e-01	8.463910e-01	8.417479e-01	8.373764e-01	1.095737e+00	1.100207e+00	1.077331e+00	8.333163e-01	8.293988e-01	8.184513e-01	1.069923e+00	1.096265e+00	7.865085e-01	7.893653e-01	7.992077e-01	8.012125e-01	7.867880e-01	7.845401e-01	7.834433e-01	9.889733e-01	9.557320e-01	9.474442e-01	9.807410e-01	1.013000e+00	1.062611e+00	1.034965e+00	1.027870e+00	1.005230e+00	9.971948e-01	9.723988e-01	9.640539e-01	9.392476e-01	9.311439e-01	9.077095e-01	9.003281e-01	8.673409e-01	8.615294e-01	8.933068e-01	8.865848e-01	7.934012e-01	7.917741e-01	7.903614e-01	7.891311e-01	8.808803e-01	8.084697e-01	8.198910e-01	9.555079e-01	9.605863e-01	8.689429e-01	8.721811e-01	1.069930e+00	8.349738e-01	7.830060e-01	7.837425e-01	8.070110e-01	8.051535e-01	8.153845e-01	8.127547e-01	1.091056e+00	1.084544e+00	8.943332e-01	8.985332e-01	1.025199e+00	1.297443e+00	8.251830e-01	1.311624e+00	8.534891e-01	8.291371e-01	9.510194e-01	8.776588e-01	1.007414e+00	1.107305e+00	1.101240e+00	1.096617e+00	1.081351e+00	1.115960e+00	1.160557e+00	1.181451e+00	1.153149e+00	1.200927e+00	1.103851e+00	1.283319e+00	9.201447e-01	1.010823e+00	1.131566e+00	8.757311e-01	1.172917e+00	1.220854e+00	9.222149e-01	1.275980e+00	9.268836e-01	1.131311e+00	9.863238e-01	1.190691e+00	8.324823e-01	9.811944e-01	9.176085e-01	1.139461e+00	1.160709e+00	1.095985e+00	8.587893e-01	1.093268e+00	9.163210e-01	1.125955e+00	8.538003e-01	8.063408e-01	8.138380e-01	7.931500e-01	7.995440e-01	1.171568e+00	1.293322e+00	1.185008e+00	9.089448e-01	1.240834e+00	1.055112e+00	9.321870e-01	1.312164e+00	8.664108e-01	8.627111e-01	1.077958e+00	9.821095e-01	1.017762e+00	9.871987e-01	9.238856e-01	1.097510e+00	1.095658e+00	1.051760e+00	1.045134e+00	8.120279e-01	8.082959e-01	8.006571e-01	7.914291e-01	9.086562e-01	9.130831e-01	8.457184e-01	9.423004e-01	7.922927e-01	1.095965e+00	1.136234e+00	1.029137e+00	1.134371e+00	1.249580e+00	1.315025e+00	1.053611e+00	1.186192e+00	1.178453e+00	1.070321e+00	1.122731e+00	8.820750e-01	8.610865e-01	8.281574e-01	9.708340e-01	9.760050e-01	9.913124e-01	9.960022e-01	9.596759e-01	9.453588e-01	1.000251e+00	1.004033e+00	1.029612e+00	1.041154e+00	1.112218e+00	9.413912e-01	9.462182e-01	1.145979e+00	8.649781e-01	8.679437e-01	8.572336e-01	8.595258e-01	1.031526e+00	1.015010e+00	1.020982e+00	8.814148e-01	8.735625e-01	8.809940e-01	8.845085e-01	1.085515e+00	1.099629e+00	9.316628e-01	9.365744e-01	9.091205e-01	8.989076e-01	8.897223e-01	8.881943e-01	8.920568e-01	1.011437e+00	9.926957e-01	9.753831e-01	8.368167e-01	8.424573e-01	8.483645e-01	8.603778e-01	8.550424e-01	8.501981e-01	8.416976e-01	8.380878e-01	8.288586e-01	8.298231e-01	8.349894e-01	8.179774e-01	8.489010e-01	8.442325e-01	1.096482e+00	8.399586e-01	8.359029e-01	8.319701e-01	8.245788e-01	1.071782e+00	8.039630e-01	8.099884e-01	8.043819e-01	8.024914e-01	7.917210e-01	7.915476e-01	7.913880e-01	9.552915e-01	1.065128e+00	1.058383e+00	1.038470e+00	1.031757e+00	1.024928e+00	1.010361e+00	1.002838e+00	9.950847e-01	9.793191e-01	9.713267e-01	9.633075e-01	9.473342e-01	9.394140e-01	9.316074e-01	9.089333e-01	8.694984e-01	8.639903e-01	9.018427e-01	8.950436e-01	8.884787e-01	7.989562e-01	7.974059e-01	7.961126e-01	7.950066e-01	7.940678e-01	8.286282e-01	8.424944e-01	9.558702e-01	9.608265e-01	9.657790e-01	8.711461e-01	8.743771e-01	8.600465e-01	8.817640e-01	7.923234e-01	7.941435e-01	7.964681e-01	8.102117e-01	8.213254e-01	8.184471e-01	8.159128e-01	1.089404e+00	1.084294e+00	1.078305e+00	8.960311e-01	9.001296e-01	9.043324e-01	8.323831e-01	8.304162e-01	1.289962e+00	9.279715e-01	1.129348e+00	1.097668e+00	8.830461e-01	1.261957e+00	1.159460e+00	1.013154e+00	1.018081e+00	1.057347e+00	1.112683e+00	8.571251e-01	1.271281e+00	9.661499e-01	1.206341e+00	1.092420e+00	1.120619e+00	1.172138e+00	9.173053e-01	1.130734e+00	1.185407e+00	1.188066e+00	9.563502e-01	8.738282e-01	1.104057e+00	8.600131e-01	9.401266e-01	8.662498e-01	8.357139e-01	1.101023e+00	8.780535e-01	1.090340e+00	1.087308e+00	9.861844e-01	7.994793e-01	8.100661e-01	1.122124e+00	8.184640e-01	9.865532e-01	1.146687e+00	1.105988e+00	1.144061e+00	1.078630e+00	1.128344e+00	9.233484e-01	1.231575e+00	9.284596e-01	9.325533e-01	1.154367e+00	1.129956e+00	1.180666e+00	1.015168e+00	8.609733e-01	8.157622e-01	1.219497e+00	1.002521e+00	9.253789e-01	1.048434e+00	8.176337e-01	8.139046e-01	8.119529e-01	9.144238e-01	9.194243e-01	1.095696e+00	1.042677e+00	1.086712e+00	1.254726e+00	1.296793e+00	1.079992e+00	1.065695e+00	1.113097e+00	8.851303e-01	9.764474e-01	9.814346e-01	9.914278e-01	9.961630e-01	9.672854e-01	9.531652e-01	1.000585e+00	1.004850e+00	1.008980e+00	1.041498e+00	1.053079e+00	9.467590e-01	9.519865e-01	1.137244e+00	8.681688e-01	8.708560e-01	8.628870e-01	8.647297e-01	1.024006e+00	1.031666e+00	8.889794e-01	8.805021e-01	8.871375e-01	1.091101e+00	1.102748e+00	9.376743e-01	9.429485e-01	9.167798e-01	9.066449e-01	8.976658e-01	8.901152e-01	8.945013e-01	1.037278e+00	1.017840e+00	9.993114e-01	9.824641e-01	8.403292e-01	8.449091e-01	8.502753e-01	8.555082e-01	8.678252e-01	8.622618e-01	8.570310e-01	8.523360e-01	8.481201e-01	8.372530e-01	8.357489e-01	8.444490e-01	8.518821e-01	1.094596e+00	1.093694e+00	8.473466e-01	8.431087e-01	8.390448e-01	8.351236e-01	8.313939e-01	8.266203e-01	8.369347e-01	8.082116e-01	8.065543e-01	7.992775e-01	7.995932e-01	8.003717e-01	8.011393e-01	1.067044e+00	1.060931e+00	1.054755e+00	1.042075e+00	1.035742e+00	1.029387e+00	1.021917e+00	1.008927e+00	1.000864e+00	9.934252e-01	9.782110e-01	9.709561e-01	9.627852e-01	9.556126e-01	9.473544e-01	9.403524e-01	9.321375e-01	8.669495e-01	8.715428e-01	9.109052e-01	9.032075e-01	8.973218e-01	8.901264e-01	8.049494e-01	8.035712e-01	8.022340e-01	8.012059e-01	8.003062e-01	7.997111e-01	8.491057e-01	8.646536e-01	9.615575e-01	9.667233e-01	9.714797e-01	8.740345e-01	8.763695e-01	8.802876e-01	8.841454e-01	9.071533e-01	9.340381e-01	8.022647e-01	8.045773e-01	8.083988e-01	8.128634e-01	8.279485e-01	8.248850e-01	8.221510e-01	8.195928e-01	1.072942e+00	1.083252e+00	1.078481e+00	8.977570e-01	9.023754e-01	9.058715e-01	9.106950e-01	8.412520e-01	8.386676e-01	8.367405e-01	1.148030e+00	1.125335e+00	1.073699e+00	1.177463e+00	1.171246e+00	9.363318e-01	9.361757e-01	1.193489e+00	1.096509e+00	1.235374e+00	1.081013e+00	8.825773e-01	8.072939e-01	1.018803e+00	1.127269e+00	1.235053e+00	1.292366e+00	1.294414e+00	1.281567e+00	1.250863e+00	1.138728e+00	8.218997e-01	1.084566e+00	1.121535e+00	1.026527e+00	9.595305e-01	8.664453e-01	1.115917e+00	1.068639e+00	1.082007e+00	8.771305e-01	8.673352e-01	9.226790e-01	9.813334e-01	8.604034e-01	8.874415e-01	8.231018e-01	1.109665e+00	9.482674e-01	1.165196e+00	1.099791e+00	1.292614e+00	1.182391e+00	1.173231e+00	1.019698e+00	1.061168e+00	1.266791e+00	9.859687e-01	1.215154e+00	1.088031e+00	1.162121e+00	1.177067e+00	1.178081e+00	1.125440e+00	8.423128e-01	8.430284e-01	1.104110e+00	8.874129e-01	1.085391e+00	1.113481e+00	9.275023e-01	1.200261e+00	8.192852e-01	8.180732e-01	8.154771e-01	9.187185e-01	1.053391e+00	1.090109e+00	1.275333e+00	1.103653e+00	9.825256e-01	9.866446e-01	9.920242e-01	9.964534e-01	9.610873e-01	9.753517e-01	1.001581e+00	1.005576e+00	1.010520e+00	1.015592e+00	1.052029e+00	1.062699e+00	9.507515e-01	1.128578e+00	8.712541e-01	8.741193e-01	8.679733e-01	8.702678e-01	1.033962e+00	1.042175e+00	8.963185e-01	8.872482e-01	1.095032e+00	1.104731e+00	9.443100e-01	9.246477e-01	9.137797e-01	9.070774e-01	8.946451e-01	1.042253e+00	1.023650e+00	1.005839e+00	9.903302e-01	8.451602e-01	8.475453e-01	8.527241e-01	8.570447e-01	8.623069e-01	8.748038e-01	8.703692e-01	8.633161e-01	8.597962e-01	8.540934e-01	1.094054e+00	1.092108e+00	1.090216e+00	8.545695e-01	8.509237e-01	8.459296e-01	8.426033e-01	8.379410e-01	8.440935e-01	8.562617e-01	8.144752e-01	8.121206e-01	8.066874e-01	8.094923e-01	8.114956e-01	1.062747e+00	1.057314e+00	1.051241e+00	1.045405e+00	1.039191e+00	1.033247e+00	1.026409e+00	1.016515e+00	1.007110e+00	9.954184e-01	9.666541e-01	9.518660e-01	9.371712e-01	9.087156e-01	8.963992e-01	8.115136e-01	8.094124e-01	8.091858e-01	8.072528e-01	8.076152e-01	8.068907e-01	8.068715e-01	8.705489e-01	8.867489e-01	9.677031e-01	9.721835e-01	9.772306e-01	8.772200e-01	8.810647e-01	9.067044e-01	9.306002e-01	9.565878e-01	8.135007e-01	8.165115e-01	8.214126e-01	8.284606e-01	8.355975e-01	8.350946e-01	8.310542e-01	8.291552e-01	8.260891e-01	1.078212e+00	1.072954e+00	9.022618e-01	9.102866e-01	8.515440e-01	8.470498e-01	8.456600e-01	8.427196e-01	1.166080e+00	1.154370e+00	1.181130e+00	1.255049e+00	1.180682e+00	1.088607e+00	1.106548e+00	1.183484e+00	1.086405e+00	1.141048e+00	1.105941e+00	1.255366e+00	1.081771e+00	1.161514e+00	8.284316e-01	1.177727e+00	1.061064e+00	1.152432e+00	1.141395e+00	1.079417e+00	8.887524e-01	1.101709e+00	8.495984e-01	1.035151e+00	1.024777e+00	9.105580e-01	9.440940e-01	8.863830e-01	1.231237e+00	8.726174e-01	9.700572e-01	9.571994e-01	8.168988e-01	1.094242e+00	1.066042e+00	1.212969e+00	1.031109e+00	1.070049e+00	1.170729e+00	1.097577e+00	1.291399e+00	1.245020e+00	1.113744e+00	9.440953e-01	8.697683e-01	8.603140e-01	1.112123e+00	1.173868e+00	1.129515e+00	1.275292e+00	1.176733e+00	1.064204e+00	1.216975e+00	1.199798e+00	8.878626e-01	1.101506e+00	1.083950e+00	1.080344e+00	8.782896e-01	8.244889e-01	8.208410e-01	9.358167e-01	1.091942e+00	1.122867e+00	1.122149e+00	9.900920e-01	9.994595e-01	9.829120e-01	1.009033e+00	1.017488e+00	1.060609e+00	1.120998e+00	8.760240e-01	1.043350e+00	1.051488e+00	8.995293e-01	1.097455e+00	9.513125e-01	9.587041e-01	9.279217e-01	9.144750e-01	8.953860e-01	1.046592e+00	1.028026e+00	1.011249e+00	9.996864e-01	8.534145e-01	8.612289e-01	8.688017e-01	8.739428e-01	8.635799e-01	1.091455e+00	1.088962e+00	8.514413e-01	8.434061e-01	8.758991e-01	8.179327e-01	8.221928e-01	1.003216e+00	1.056083e+00	1.044856e+00	1.033317e+00	1.022730e+00	1.013338e+00	9.908715e-01	9.771872e-01	9.630932e-01	9.489550e-01	9.347964e-01	9.208472e-01	9.081901e-01	8.976751e-01	8.158339e-01	8.145002e-01	8.147051e-01	8.134409e-01	8.155176e-01	8.921239e-01	9.090015e-01	9.672051e-01	9.752889e-01	9.832237e-01	8.800218e-01	8.837419e-01	9.281719e-01	9.512631e-01	9.764086e-01	1.002523e+00	8.260316e-01	8.296578e-01	8.352414e-01	8.437589e-01	8.546434e-01	8.606607e-01	8.368656e-01	8.329933e-01	1.077805e+00	1.073301e+00	9.027952e-01	9.186734e-01	9.271597e-01	8.556996e-01	8.507142e-01	1.117383e+00	1.166020e+00	1.161180e+00	1.136247e+00	1.025407e+00	1.108364e+00	1.173797e+00	1.135623e+00	1.185602e+00	1.135169e+00	1.147606e+00	1.126778e+00	1.092581e+00	1.193674e+00	1.235658e+00	1.088366e+00	9.515421e-01	8.361785e-01	1.125038e+00	1.017107e+00	1.099422e+00	8.875542e-01	1.066736e+00	1.169560e+00	8.756669e-01	1.043559e+00	9.189457e-01	8.965901e-01	1.083527e+00	1.091446e+00	1.082147e+00	1.066969e+00	1.171388e+00	1.098731e+00	1.103068e+00	1.082833e+00	8.281960e-01	8.985254e-01	9.355377e-01	9.896694e-01	1.150513e+00	1.157254e+00	1.272048e+00	1.075358e+00	1.085452e+00	1.175644e+00	1.099194e+00	1.169106e+00	1.152257e+00	8.908154e-01	1.224930e+00	9.798891e-01	9.645893e-01	1.094845e+00	1.233655e+00	1.067205e+00	1.106563e+00	9.438558e-01	1.254348e+00	1.176116e+00	1.005182e+00	1.213112e+00	1.200159e+00	8.798498e-01	1.117576e+00	1.079354e+00	8.888770e-01	8.319319e-01	9.087249e-01	1.118404e+00	1.143505e+00	9.980024e-01	1.007554e+00	1.025380e+00	1.034291e+00	1.114271e+00	8.793465e-01	1.051236e+00	1.058994e+00	8.698489e-01	9.748318e-01	9.827665e-01	9.587924e-01	9.499541e-01	9.346789e-01	9.198726e-01	1.049006e+00	8.580609e-01	8.627905e-01	9.054646e-01	8.915413e-01	9.271180e-01	1.091448e+00	8.707708e-01	8.616315e-01	8.329018e-01	1.059497e+00	1.049556e+00	1.009824e+00	1.038892e+00	1.028587e+00	1.019162e+00	9.991335e-01	9.867911e-01	9.735749e-01	9.600990e-01	9.464969e-01	9.328557e-01	9.199825e-01	8.252424e-01	8.233649e-01	8.224498e-01	8.224741e-01	8.226647e-01	8.270648e-01	9.122670e-01	9.305183e-01	9.665679e-01	9.899895e-01	8.825806e-01	8.863015e-01	9.485026e-01	9.694283e-01	9.929758e-01	1.016494e+00	1.041072e+00	8.399962e-01	8.458272e-01	8.512039e-01	8.594485e-01	8.715788e-01	8.531839e-01	8.460684e-01	8.407056e-01	1.074564e+00	1.067826e+00	9.035372e-01	9.110913e-01	8.790568e-01	8.689506e-01	8.616569e-01	8.577280e-01	1.152324e+00	1.152980e+00	1.149679e+00	1.121125e+00	1.156131e+00	1.140378e+00	1.113653e+00	1.050474e+00	1.172799e+00	1.120686e+00	1.117932e+00	1.071722e+00	1.166003e+00	1.084786e+00	8.329399e-01	1.137609e+00	1.141599e+00	1.128279e+00	1.169440e+00	1.071004e+00	9.259672e-01	1.026978e+00	1.024928e+00	9.594320e-01	1.132804e+00	1.131992e+00	1.128181e+00	1.171840e+00	1.172195e+00	9.001025e-01	9.