# vtk DataFile Version 3.0
vtk output
ASCII
DATASET UNSTRUCTURED_GRID
POINTS 200 float
9.997500e-01	-3.633243e-05	0.0	9.990000e-01	-1.454724e-04	0.0	9.977600e-01	-3.275086e-04	0.0	9.960200e-01	-5.899339e-04	0.0	9.937800e-01	-9.471192e-04	0.0	9.910500e-01	-1.422164e-03	0.0	9.878400e-01	-2.045673e-03	0.0	9.841300e-01	-2.853982e-03	0.0	9.799500e-01	-3.859422e-03	0.0	9.752800e-01	-5.059156e-03	0.0	9.701500e-01	-6.406355e-03	0.0	9.645400e-01	-7.842522e-03	0.0	9.584700e-01	-9.292291e-03	0.0	9.519400e-01	-1.070028e-02	0.0	9.449600e-01	-1.203853e-02	0.0	9.375400e-01	-1.331143e-02	0.0	9.296900e-01	-1.454630e-02	0.0	9.214000e-01	-1.578142e-02	0.0	9.127000e-01	-1.704405e-02	0.0	9.035800e-01	-1.835523e-02	0.0	8.940600e-01	-1.971859e-02	0.0	8.841500e-01	-2.112953e-02	0.0	8.738500e-01	-2.257982e-02	0.0	8.631800e-01	-2.405737e-02	0.0	8.521600e-01	-2.555152e-02	0.0	8.407700e-01	-2.705910e-02	0.0	8.290500e-01	-2.857088e-02	0.0	8.170100e-01	-3.008302e-02	0.0	8.046400e-01	-3.159468e-02	0.0	7.919700e-01	-3.310023e-02	0.0	7.790100e-01	-3.459640e-02	0.0	7.657800e-01	-3.607857e-02	0.0	7.522800e-01	-3.754418e-02	0.0	7.385200e-01	-3.898939e-02	0.0	7.245300e-01	-4.040833e-02	0.0	7.103200e-01	-4.179735e-02	0.0	6.958900e-01	-4.315391e-02	0.0	6.812700e-01	-4.447281e-02	0.0	6.664700e-01	-4.575104e-02	0.0	6.515000e-01	-4.698583e-02	0.0	6.363800e-01	-4.817387e-02	0.0	6.211300e-01	-4.931225e-02	0.0	6.057600e-01	-5.039912e-02	0.0	5.902800e-01	-5.143284e-02	0.0	5.747100e-01	-5.241136e-02	0.0	5.590600e-01	-5.333353e-02	0.0	5.433600e-01	-5.419725e-02	0.0	5.276100e-01	-5.500234e-02	0.0	5.118400e-01	-5.574716e-02	0.0	4.960500e-01	-5.643165e-02	0.0	4.802700e-01	-5.705448e-02	0.0	4.645100e-01	-5.761525e-02	0.0	4.487800e-01	-5.811351e-02	0.0	4.331100e-01	-5.854818e-02	0.0	4.175000e-01	-5.891903e-02	0.0	4.019700e-01	-5.922518e-02	0.0	3.865400e-01	-5.946573e-02	0.0	3.712300e-01	-5.963981e-02	0.0	3.560400e-01	-5.974662e-02	0.0	3.409900e-01	-5.978502e-02	0.0	3.261100e-01	-5.975389e-02	0.0	3.114000e-01	-5.965209e-02	0.0	2.968700e-01	-5.947825e-02	0.0	2.825500e-01	-5.923129e-02	0.0	2.684500e-01	-5.890990e-02	0.0	2.545700e-01	-5.851242e-02	0.0	2.409400e-01	-5.803797e-02	0.0	2.275700e-01	-5.748527e-02	0.0	2.144700e-01	-5.685302e-02	0.0	2.016600e-01	-5.614053e-02	0.0	1.891400e-01	-5.534613e-02	0.0	1.769300e-01	-5.446939e-02	0.0	1.650400e-01	-5.350945e-02	0.0	1.534900e-01	-5.246654e-02	0.0	1.422900e-01	-5.134037e-02	0.0	1.314400e-01	-5.012966e-02	0.0	1.209500e-01	-4.883417e-02	0.0	1.108500e-01	-4.745667e-02	0.0	1.011300e-01	-4.599498e-02	0.0	9.181000e-02	-4.445120e-02	0.0	8.290000e-02	-4.282644e-02	0.0	7.440000e-02	-4.112006e-02	0.0	6.633000e-02	-3.933557e-02	0.0	5.869000e-02	-3.747268e-02	0.0	5.149000e-02	-3.553340e-02	0.0	4.474000e-02	-3.352024e-02	0.0	3.844000e-02	-3.143288e-02	0.0	3.260000e-02	-2.927418e-02	0.0	2.723000e-02	-2.704780e-02	0.0	2.232000e-02	-2.474871e-02	0.0	1.790000e-02	-2.239092e-02	0.0	1.395000e-02	-1.996361e-02	0.0	1.049000e-02	-1.747803e-02	0.0	7.520000e-03	-1.493512e-02	0.0	5.040000e-03	-1.233507e-02	0.0	3.050000e-03	-9.676376e-03	0.0	1.560000e-03	-6.974315e-03	0.0	5.600000e-04	-4.207807e-03	0.0	6.000000e-05	-1.384363e-03	0.0	0.000000e+00	0.000000e+00	0.0	6.000000e-05	1.264179e-03	0.0	5.600000e-04	3.627001e-03	0.0	1.560000e-03	5.792561e-03	0.0	3.050000e-03	7.812397e-03	0.0	5.040000e-03	9.731445e-03	0.0	7.520000e-03	1.155739e-02	0.0	1.049000e-02	1.330519e-02	0.0	1.395000e-02	1.498533e-02	0.0	1.790000e-02	1.660571e-02	0.0	2.232000e-02	1.816595e-02	0.0	2.723000e-02	1.967919e-02	0.0	3.260000e-02	2.114130e-02	0.0	3.844000e-02	2.255999e-02	0.0	4.474000e-02	2.393661e-02	0.0	5.149000e-02	2.527257e-02	0.0	5.869000e-02	2.657088e-02	0.0	6.633000e-02	2.783228e-02	0.0	7.440000e-02	2.905745e-02	0.0	8.290000e-02	3.024832e-02	0.0	9.181000e-02	3.140380e-02	0.0	1.011300e-01	3.252540e-02	0.0	1.108500e-01	3.361311e-02	0.0	1.209500e-01	3.466581e-02	0.0	1.314400e-01	3.568537e-02	0.0	1.422900e-01	3.666952e-02	0.0	1.534900e-01	3.761800e-02	0.0	1.650400e-01	3.853119e-02	0.0	1.769300e-01	3.940842e-02	0.0	1.891400e-01	4.024823e-02	0.0	2.016600e-01	4.104984e-02	0.0	2.144700e-01	4.181177e-02	0.0	2.275700e-01	4.253361e-02	0.0	2.409400e-01	4.321368e-02	0.0	2.545700e-01	4.385073e-02	0.0	2.684500e-01	4.444335e-02	0.0	2.825500e-01	4.498927e-02	0.0	2.968700e-01	4.548731e-02	0.0	3.114000e-01	4.593568e-02	0.0	3.261100e-01	4.633196e-02	0.0	3.409900e-01	4.667425e-02	0.0	3.560400e-01	4.696069e-02	0.0	3.712300e-01	4.718872e-02	0.0	3.865400e-01	4.735604e-02	0.0	4.019700e-01	4.746048e-02	0.0	4.175000e-01	4.749962e-02	0.0	4.331100e-01	4.747109e-02	0.0	4.487800e-01	4.737265e-02	0.0	4.645100e-01	4.720195e-02	0.0	4.802700e-01	4.695702e-02	0.0	4.960500e-01	4.663583e-02	0.0	5.118400e-01	4.623644e-02	0.0	5.276100e-01	4.575772e-02	0.0	5.433600e-01	4.519796e-02	0.0	5.590600e-01	4.455680e-02	0.0	5.747100e-01	4.383311e-02	0.0	5.902800e-01	4.302752e-02	0.0	6.057600e-01	4.214030e-02	0.0	6.211300e-01	4.117282e-02	0.0	6.363800e-01	4.012646e-02	0.0	6.515000e-01	3.900318e-02	0.0	6.664700e-01	3.780631e-02	0.0	6.812700e-01	3.654008e-02	0.0	6.958900e-01	3.520862e-02	0.0	7.103200e-01	3.381674e-02	0.0	7.245300e-01	3.237201e-02	0.0	7.385200e-01	3.087975e-02	0.0	7.522800e-01	2.934692e-02	0.0	7.657800e-01	2.778342e-02	0.0	7.790100e-01	2.619762e-02	0.0	7.919700e-01	2.459717e-02	0.0	8.046400e-01	2.299260e-02	0.0	8.170100e-01	2.139355e-02	0.0	8.290500e-01	1.981238e-02	0.0	8.407700e-01	1.825588e-02	0.0	8.521600e-01	1.673250e-02	0.0	8.631800e-01	1.525308e-02	0.0	8.738500e-01	1.381811e-02	0.0	8.841500e-01	1.243082e-02	0.0	8.940600e-01	1.109239e-02	0.0	9.035800e-01	9.801131e-03	0.0	9.127000e-01	8.559755e-03	0.0	9.214000e-01	7.379202e-03	0.0	9.296900e-01	6.276039e-03	0.0	9.375400e-01	5.281240e-03	0.0	9.449600e-01	4.423963e-03	0.0	9.519400e-01	3.729135e-03	0.0	9.584700e-01	3.202872e-03	0.0	9.645400e-01	2.824979e-03	0.0	9.701500e-01	2.550566e-03	0.0	9.752800e-01	2.323795e-03	0.0	9.799500e-01	2.092399e-03	0.0	9.841300e-01	1.826643e-03	0.0	9.878400e-01	1.519706e-03	0.0	9.910500e-01	1.190116e-03	0.0	9.937800e-01	8.629907e-04	0.0	9.960200e-01	5.666177e-04	0.0	9.977600e-01	3.231867e-04	0.0	9.990000e-01	1.450782e-04	0.0	9.997500e-01	3.632618e-05	0.0	1.000000e+00	0.000000e+00	0.0	
CELLS 200	600
2	149	150	2	150	151	2	151	152	2	152	153	2	153	154	2	154	155	2	155	156	2	156	157	2	157	158	2	158	159	2	159	160	2	160	161	2	161	162	2	162	163	2	163	164	2	164	165	2	165	166	2	166	167	2	167	168	2	168	169	2	169	170	2	170	171	2	171	172	2	172	173	2	173	174	2	174	175	2	175	176	2	176	177	2	177	178	2	178	179	2	179	180	2	180	181	2	181	182	2	31	32	2	32	33	2	33	34	2	34	35	2	35	36	2	36	37	2	37	38	2	38	39	2	39	40	2	40	41	2	41	42	2	42	43	2	43	44	2	44	45	2	45	46	2	46	47	2	47	48	2	48	49	2	49	50	2	50	51	2	51	52	2	52	53	2	53	54	2	54	55	2	55	56	2	56	57	2	57	58	2	58	59	2	59	60	2	60	61	2	61	62	2	62	63	2	63	64	2	64	65	2	65	66	2	66	67	2	67	68	2	68	69	2	69	70	2	70	71	2	71	72	2	72	73	2	73	74	2	74	75	2	75	76	2	76	77	2	77	78	2	78	79	2	79	80	2	80	81	2	81	82	2	82	83	2	83	84	2	113	114	2	114	115	2	115	116	2	116	117	2	117	118	2	118	119	2	119	120	2	120	121	2	121	122	2	122	123	2	123	124	2	124	125	2	125	126	2	126	127	2	127	128	2	128	129	2	129	130	2	130	131	2	131	132	2	132	133	2	133	134	2	134	135	2	135	136	2	136	137	2	137	138	2	138	139	2	139	140	2	140	141	2	141	142	2	142	143	2	143	144	2	144	145	2	145	146	2	146	147	2	147	148	2	148	149	2	84	85	2	85	86	2	86	87	2	87	88	2	88	89	2	89	90	2	90	91	2	91	92	2	92	93	2	93	94	2	94	95	2	95	96	2	96	97	2	97	98	2	98	99	2	99	100	2	100	101	2	101	102	2	102	103	2	103	104	2	104	105	2	105	106	2	106	107	2	107	108	2	108	109	2	109	110	2	110	111	2	111	112	2	112	113	2	199	0	2	0	1	2	1	2	2	2	3	2	3	4	2	4	5	2	5	6	2	6	7	2	182	183	2	183	184	2	184	185	2	185	186	2	186	187	2	187	188	2	188	189	2	189	190	2	190	191	2	191	192	2	192	193	2	193	194	2	194	195	2	195	196	2	196	197	2	197	198	2	198	199	2	7	8	2	8	9	2	9	10	2	10	11	2	11	12	2	12	13	2	13	14	2	14	15	2	15	16	2	16	17	2	17	18	2	18	19	2	19	20	2	20	21	2	21	22	2	22	23	2	23	24	2	24	25	2	25	26	2	26	27	2	27	28	2	28	29	2	29	30	2	30	31	
CELL_TYPES 200
3	3	3	3	3	3	3	3	3	3	3	3	3	3	3	3	3	3	3	3	3	3	3	3	3	3	3	3	3	3	3	3	3	3	3	3	3	3	3	3	3	3	3	3	3	3	3	3	3	3	3	3	3	3	3	3	3	3	3	3	3	3	3	3	3	3	3	3	3	3	3	3	3	3	3	3	3	3	3	3	3	3	3	3	3	3	3	3	3	3	3	3	3	3	3	3	3	3	3	3	3	3	3	3	3	3	3	3	3	3	3	3	3	3	3	3	3	3	3	3	3	3	3	3	3	3	3	3	3	3	3	3	3	3	3	3	3	3	3	3	3	3	3	3	3	3	3	3	3	3	3	3	3	3	3	3	3	3	3	3	3	3	3	3	3	3	3	3	3	3	3	3	3	3	3	3	3	3	3	3	3	3	3	3	3	3	3	3	3	3	3	3	3	3	3	3	3	3	3	3	
POINT_DATA 200

SCALARS Conservative_1 float 1
LOOKUP_TABLE default
1.199829e+00	1.181606e+00	1.171185e+00	1.164749e+00	1.160180e+00	1.155718e+00	1.148835e+00	1.137918e+00	1.121735e+00	1.100376e+00	1.075081e+00	1.048461e+00	1.024884e+00	1.008340e+00	9.999605e-01	9.978990e-01	9.990066e-01	1.000448e+00	1.000474e+00	9.984834e-01	9.946975e-01	9.896734e-01	9.839967e-01	9.781393e-01	9.723788e-01	9.668261e-01	9.614723e-01	9.562708e-01	9.511569e-01	9.460991e-01	9.410814e-01	9.360599e-01	9.310006e-01	9.259201e-01	9.208696e-01	9.158976e-01	9.110228e-01	9.062498e-01	9.015899e-01	8.970596e-01	8.926589e-01	8.883982e-01	8.842601e-01	8.802613e-01	8.764168e-01	8.727780e-01	8.693344e-01	8.660216e-01	8.626926e-01	8.593381e-01	8.561611e-01	8.535164e-01	8.515184e-01	8.498755e-01	8.479139e-01	8.448793e-01	8.402673e-01	8.342217e-01	8.276218e-01	8.217300e-01	8.174393e-01	8.149452e-01	8.139744e-01	8.140921e-01	8.149871e-01	8.164595e-01	8.184598e-01	8.209041e-01	8.237063e-01	8.267539e-01	8.300667e-01	8.338086e-01	8.382270e-01	8.433894e-01	8.492187e-01	8.555682e-01	8.625033e-01	8.702025e-01	8.787232e-01	8.881047e-01	8.984587e-01	9.098442e-01	9.224130e-01	9.362829e-01	9.516442e-01	9.687743e-01	9.879014e-01	1.009385e+00	1.033710e+00	1.061192e+00	1.092362e+00	1.127685e+00	1.167007e+00	1.209866e+00	1.254547e+00	1.298036e+00	1.331736e+00	1.350896e+00	1.339559e+00	1.308345e+00	1.284380e+00	1.221310e+00	1.099804e+00	1.002374e+00	9.263435e-01	8.705499e-01	8.324710e-01	8.073792e-01	7.904698e-01	7.790029e-01	7.712822e-01	7.661377e-01	7.630090e-01	7.611573e-01	7.602073e-01	7.601552e-01	7.608725e-01	7.621226e-01	7.635837e-01	7.649270e-01	7.661665e-01	7.676262e-01	7.695674e-01	7.718431e-01	7.740534e-01	7.759673e-01	7.776748e-01	7.793231e-01	7.810165e-01	7.828272e-01	7.848117e-01	7.869550e-01	7.891852e-01	7.914038e-01	7.935700e-01	7.956602e-01	7.976651e-01	7.995449e-01	8.013135e-01	8.031052e-01	8.051685e-01	8.076912e-01	8.107096e-01	8.140944e-01	8.176884e-01	8.213909e-01	8.251731e-01	8.291185e-01	8.333199e-01	8.378513e-01	8.426300e-01	8.476140e-01	8.528866e-01	8.586243e-01	8.648331e-01	8.713333e-01	8.779782e-01	8.848067e-01	8.919861e-01	8.995506e-01	9.074417e-01	9.155731e-01	9.238987e-01	9.324065e-01	9.410650e-01	9.498602e-01	9.587421e-01	9.676933e-01	9.766394e-01	9.855830e-01	9.944408e-01	1.003132e+00	1.011595e+00	1.019744e+00	1.027534e+00	1.034942e+00	1.042017e+00	1.048937e+00	1.055963e+00	1.063484e+00	1.071797e+00	1.080999e+00	1.090707e+00	1.100060e+00	1.107806e+00	1.112608e+00	1.113378e+00	1.109751e+00	1.102491e+00	1.093764e+00	1.086652e+00	1.084127e+00	1.088029e+00	1.098248e+00	1.112829e+00	1.130000e+00	1.148469e+00	1.168631e+00	1.192713e+00	1.181126e+00	
SCALARS Conservative_2 float 1
LOOKUP_TABLE default
7.195712e-01	7.459434e-01	7.640296e-01	7.748335e-01	7.807195e-01	7.854876e-01	7.912892e-01	8.009521e-01	8.159619e-01	8.363723e-01	8.604672e-01	8.849183e-01	9.060810e-01	9.215729e-01	9.308045e-01	9.347708e-01	9.355270e-01	9.351677e-01	9.351524e-01	9.360929e-01	9.380426e-01	9.407007e-01	9.436912e-01	9.467239e-01	9.496120e-01	9.522898e-01	9.547524e-01	9.570420e-01	9.591689e-01	9.611656e-01	9.630670e-01	9.648653e-01	9.665749e-01	9.681935e-01	9.697084e-01	9.711076e-01	9.724056e-01	9.735834e-01	9.746512e-01	9.756244e-01	9.764839e-01	9.772647e-01	9.779403e-01	9.785479e-01	9.790549e-01	9.795022e-01	9.798671e-01	9.802017e-01	9.804742e-01	9.807237e-01	9.808911e-01	9.810035e-01	9.810459e-01	9.810750e-01	9.811102e-01	9.811840e-01	9.812234e-01	9.811473e-01	9.808235e-01	9.803267e-01	9.798207e-01	9.794056e-01	9.791547e-01	9.790027e-01	9.789500e-01	9.789060e-01	9.788933e-01	9.788403e-01	9.787604e-01	9.785865e-01	9.783323e-01	9.779439e-01	9.774234e-01	9.766908e-01	9.757333e-01	9.744107e-01	9.727428e-01	9.706352e-01	9.678568e-01	9.642531e-01	9.597336e-01	9.540063e-01	9.468076e-01	9.377201e-01	9.262280e-01	9.116025e-01	8.929110e-01	8.690775e-01	8.385289e-01	7.991142e-01	7.483470e-01	6.831805e-01	5.999542e-01	4.964709e-01	3.727525e-01	2.365706e-01	1.074381e-01	1.083938e-02	-2.154169e-02	5.237915e-03	7.297415e-02	2.102682e-01	4.131580e-01	5.899264e-01	7.150221e-01	7.966846e-01	8.483357e-01	8.812876e-01	9.025798e-01	9.169208e-01	9.269623e-01	9.341269e-01	9.395918e-01	9.438630e-01	9.472882e-01	9.502243e-01	9.527341e-01	9.549040e-01	9.568313e-01	9.584938e-01	9.599765e-01	9.613937e-01	9.627623e-01	9.639943e-01	9.650940e-01	9.660589e-01	9.669449e-01	9.677574e-01	9.685389e-01	9.692868e-01	9.700334e-01	9.707585e-01	9.714655e-01	9.721235e-01	9.727459e-01	9.733180e-01	9.738521e-01	9.743395e-01	9.747968e-01	9.752434e-01	9.757319e-01	9.762386e-01	9.767589e-01	9.772588e-01	9.777184e-01	9.781355e-01	9.784986e-01	9.788388e-01	9.790970e-01	9.793079e-01	9.794304e-01	9.794745e-01	9.794124e-01	9.792293e-01	9.788725e-01	9.783201e-01	9.776046e-01	9.766652e-01	9.755029e-01	9.740605e-01	9.723375e-01	9.703090e-01	9.679791e-01	9.653315e-01	9.623612e-01	9.590625e-01	9.554339e-01	9.515155e-01	9.472412e-01	9.427225e-01	9.379659e-01	9.329902e-01	9.279112e-01	9.227839e-01	9.176632e-01	9.125753e-01	9.074642e-01	9.022073e-01	8.965116e-01	8.900809e-01	8.825792e-01	8.739992e-01	8.647668e-01	8.559652e-01	8.491351e-01	8.458434e-01	8.471001e-01	8.528101e-01	8.615135e-01	8.705432e-01	8.765908e-01	8.770120e-01	8.704993e-01	8.577864e-01	8.396067e-01	8.175093e-01	7.912066e-01	7.596636e-01	7.213333e-01	6.623574e-01	
SCALARS Conservative_3 float 1
LOOKUP_TABLE default
1.010189e-01	1.066664e-01	1.128621e-01	1.197597e-01	1.301762e-01	1.447966e-01	1.632744e-01	1.836960e-01	2.029121e-01	2.169995e-01	2.227746e-01	2.186594e-01	2.056198e-01	1.874507e-01	1.688789e-01	1.535738e-01	1.431744e-01	1.374401e-01	1.350190e-01	1.342786e-01	1.339227e-01	1.331878e-01	1.317884e-01	1.297521e-01	1.272475e-01	1.244742e-01	1.215657e-01	1.186113e-01	1.156366e-01	1.126294e-01	1.095782e-01	1.064626e-01	1.032711e-01	9.999628e-02	9.662401e-02	9.316926e-02	8.962846e-02	8.602010e-02	8.235060e-02	7.863192e-02	7.487731e-02	7.109366e-02	6.729948e-02	6.349632e-02	5.969169e-02	5.587701e-02	5.205609e-02	4.824104e-02	4.445546e-02	4.070366e-02	3.694933e-02	3.313562e-02	2.923997e-02	2.524929e-02	2.119564e-02	1.712311e-02	1.307712e-02	9.045139e-03	4.919528e-03	5.627308e-04	-4.062368e-03	-8.933991e-03	-1.404053e-02	-1.937045e-02	-2.496204e-02	-3.084344e-02	-3.707103e-02	-4.366170e-02	-5.064905e-02	-5.805310e-02	-6.592091e-02	-7.431676e-02	-8.331106e-02	-9.293635e-02	-1.032353e-01	-1.142600e-01	-1.261216e-01	-1.388870e-01	-1.526322e-01	-1.674815e-01	-1.835537e-01	-2.009611e-01	-2.198598e-01	-2.403845e-01	-2.626560e-01	-2.867925e-01	-3.128647e-01	-3.408177e-01	-3.702641e-01	-4.004714e-01	-4.299616e-01	-4.556249e-01	-4.723831e-01	-4.718178e-01	-4.410135e-01	-3.645561e-01	-2.307531e-01	-3.822433e-02	1.855441e-01	3.515406e-01	4.959946e-01	6.607600e-01	7.235187e-01	6.885393e-01	6.114939e-01	5.278605e-01	4.533711e-01	3.915687e-01	3.413336e-01	3.002758e-01	2.666600e-01	2.387004e-01	2.152221e-01	1.952720e-01	1.781133e-01	1.632313e-01	1.502402e-01	1.387878e-01	1.286197e-01	1.194638e-01	1.111206e-01	1.035206e-01	9.661452e-02	9.031029e-02	8.447791e-02	7.897057e-02	7.376197e-02	6.882746e-02	6.415781e-02	5.970293e-02	5.543082e-02	5.130996e-02	4.730859e-02	4.338904e-02	3.952683e-02	3.570240e-02	3.190183e-02	2.810298e-02	2.427528e-02	2.039792e-02	1.647603e-02	1.251734e-02	8.516229e-03	4.442048e-03	2.675779e-04	-4.027533e-03	-8.452994e-03	-1.300105e-02	-1.767096e-02	-2.244895e-02	-2.733687e-02	-3.236639e-02	-3.751210e-02	-4.276205e-02	-4.806525e-02	-5.343098e-02	-5.886397e-02	-6.434068e-02	-6.980708e-02	-7.522348e-02	-8.055053e-02	-8.577417e-02	-9.083497e-02	-9.570380e-02	-1.003111e-01	-1.046327e-01	-1.085981e-01	-1.121722e-01	-1.152997e-01	-1.179365e-01	-1.200420e-01	-1.215820e-01	-1.225577e-01	-1.229946e-01	-1.229654e-01	-1.226159e-01	-1.221209e-01	-1.216583e-01	-1.212999e-01	-1.208816e-01	-1.198713e-01	-1.173726e-01	-1.122682e-01	-1.036733e-01	-9.139835e-02	-7.636553e-02	-6.073840e-02	-4.760440e-02	-4.020958e-02	-4.075857e-02	-4.934709e-02	-6.373960e-02	-8.012749e-02	-9.478050e-02	-1.049765e-01	-1.097950e-01	-1.102834e-01	-1.062003e-01	-1.003434e-01	2.575870e-03	
SCALARS Conservative_4 float 1
LOOKUP_TABLE default
3.446401e+00	3.400797e+00	3.375516e+00	3.360006e+00	3.348865e+00	3.338000e+00	3.320909e+00	3.293721e+00	3.253345e+00	3.200006e+00	3.136724e+00	3.069889e+00	3.010517e+00	2.968838e+00	2.947754e+00	2.942558e+00	2.945300e+00	2.948855e+00	2.948826e+00	2.943690e+00	2.934012e+00	2.921191e+00	2.906698e+00	2.891729e+00	2.876985e+00	2.862750e+00	2.849002e+00	2.835631e+00	2.822464e+00	2.809425e+00	2.796482e+00	2.783513e+00	2.770431e+00	2.757280e+00	2.744192e+00	2.731291e+00	2.718633e+00	2.706222e+00	2.694091e+00	2.682288e+00	2.670806e+00	2.659684e+00	2.648865e+00	2.638406e+00	2.628334e+00	2.618798e+00	2.609761e+00	2.601069e+00	2.592325e+00	2.583516e+00	2.575157e+00	2.568189e+00	2.562907e+00	2.558559e+00	2.553382e+00	2.545405e+00	2.533285e+00	2.517382e+00	2.499965e+00	2.484367e+00	2.472974e+00	2.466323e+00	2.463720e+00	2.464007e+00	2.466371e+00	2.470262e+00	2.475563e+00	2.482032e+00	2.489452e+00	2.497513e+00	2.506275e+00	2.516156e+00	2.527815e+00	2.541414e+00	2.556759e+00	2.573433e+00	2.591632e+00	2.611817e+00	2.634091e+00	2.658542e+00	2.685480e+00	2.715018e+00	2.747541e+00	2.783315e+00	2.822792e+00	2.866631e+00	2.915345e+00	2.969816e+00	3.031196e+00	3.100134e+00	3.177892e+00	3.265514e+00	3.362357e+00	3.467229e+00	3.575812e+00	3.681268e+00	3.762465e+00	3.809714e+00	3.781299e+00	3.703049e+00	3.649927e+00	3.500355e+00	3.191634e+00	2.943874e+00	2.748812e+00	2.604844e+00	2.506354e+00	2.441374e+00	2.397420e+00	2.367515e+00	2.347351e+00	2.333852e+00	2.325661e+00	2.320835e+00	2.318388e+00	2.318345e+00	2.320335e+00	2.323729e+00	2.327697e+00	2.331349e+00	2.334734e+00	2.338722e+00	2.343990e+00	2.350116e+00	2.356057e+00	2.361205e+00	2.365809e+00	2.370251e+00	2.374815e+00	2.379687e+00	2.385022e+00	2.390773e+00	2.396755e+00	2.402698e+00	2.408500e+00	2.414095e+00	2.419461e+00	2.424491e+00	2.429227e+00	2.434026e+00	2.439554e+00	2.446295e+00	2.454343e+00	2.463352e+00	2.472904e+00	2.482737e+00	2.492772e+00	2.503241e+00	2.514368e+00	2.526361e+00	2.538991e+00	2.552154e+00	2.566062e+00	2.581177e+00	2.597503e+00	2.614562e+00	2.631981e+00	2.649845e+00	2.668601e+00	2.688323e+00	2.708860e+00	2.729981e+00	2.751565e+00	2.773578e+00	2.795937e+00	2.818603e+00	2.841444e+00	2.864426e+00	2.887330e+00	2.910193e+00	2.932794e+00	2.954918e+00	2.976427e+00	2.997105e+00	3.016840e+00	3.035582e+00	3.053447e+00	3.070893e+00	3.088557e+00	3.107426e+00	3.128223e+00	3.151202e+00	3.175409e+00	3.198729e+00	3.218087e+00	3.230184e+00	3.232289e+00	3.223429e+00	3.205423e+00	3.183631e+00	3.165715e+00	3.159142e+00	3.168597e+00	3.193956e+00	3.230104e+00	3.272633e+00	3.318081e+00	3.367481e+00	3.426995e+00	3.383858e+00	
SCALARS Pressure float 1
LOOKUP_TABLE default
1.290550e+00	1.264211e+00	1.248348e+00	1.238450e+00	1.231551e+00	1.224800e+00	1.214718e+00	1.198804e+00	1.175289e+00	1.144302e+00	1.107718e+00	1.069458e+00	1.035746e+00	1.012111e+00	1.000111e+00	9.971690e-01	9.987999e-01	1.000936e+00	1.001067e+00	9.983442e-01	9.930755e-01	9.860612e-01	9.781419e-01	9.699859e-01	9.619879e-01	9.543004e-01	9.469110e-01	9.397471e-01	9.327241e-01	9.257942e-01	9.189277e-01	9.120720e-01	9.051796e-01	8.982727e-01	8.914214e-01	8.846919e-01	8.781048e-01	8.716718e-01	8.654053e-01	8.593227e-01	8.534302e-01	8.477315e-01	8.422127e-01	8.368846e-01	8.317780e-01	8.269485e-01	8.223902e-01	8.180030e-01	8.136045e-01	8.091696e-01	8.049855e-01	8.015118e-01	7.989066e-01	7.967679e-01	7.942007e-01	7.901968e-01	7.841083e-01	7.761432e-01	7.675033e-01	7.598403e-01	7.542939e-01	7.510985e-01	7.498686e-01	7.500467e-01	7.512155e-01	7.531372e-01	7.557343e-01	7.589157e-01	7.625577e-01	7.665292e-01	7.708466e-01	7.757386e-01	7.815231e-01	7.883053e-01	7.959745e-01	8.043690e-01	8.135497e-01	8.237616e-01	8.351276e-01	8.477140e-01	8.616544e-01	8.770672e-01	8.941659e-01	9.131505e-01	9.343199e-01	9.581111e-01	9.849107e-01	1.015257e+00	1.049913e+00	1.089476e+00	1.134775e+00	1.186610e+00	1.245013e+00	1.309347e+00	1.377168e+00	1.443407e+00	1.495256e+00	1.523652e+00	1.507310e+00	1.462324e+00	1.420834e+00	1.321404e+00	1.150417e+00	1.013519e+00	9.084119e-01	8.321062e-01	7.802592e-01	7.461763e-01	7.233718e-01	7.080056e-01	6.976883e-01	6.908765e-01	6.867147e-01	6.842300e-01	6.829272e-01	6.827641e-01	6.836058e-01	6.851469e-01	6.869485e-01	6.885995e-01	6.901079e-01	6.918823e-01	6.942787e-01	6.971368e-01	6.999221e-01	7.023309e-01	7.044683e-01	7.065338e-01	7.086549e-01	7.109322e-01	7.134319e-01	7.161419e-01	7.189652e-01	7.217813e-01	7.245310e-01	7.271888e-01	7.297381e-01	7.321294e-01	7.343760e-01	7.366511e-01	7.392688e-01	7.424875e-01	7.463557e-01	7.507108e-01	7.553479e-01	7.601324e-01	7.650289e-01	7.701366e-01	7.755971e-01	7.814945e-01	7.877309e-01	7.942447e-01	8.011530e-01	8.086900e-01	8.168769e-01	8.254808e-01	8.342959e-01	8.433904e-01	8.529798e-01	8.631226e-01	8.737392e-01	8.847217e-01	8.960073e-01	9.075828e-01	9.194083e-01	9.314653e-01	9.436902e-01	9.560482e-01	9.684639e-01	9.809096e-01	9.932798e-01	1.005470e+00	1.017371e+00	1.028867e+00	1.039885e+00	1.050392e+00	1.060459e+00	1.070334e+00	1.080408e+00	1.091232e+00	1.103255e+00	1.116604e+00	1.130727e+00	1.144331e+00	1.155554e+00	1.162418e+00	1.163352e+00	1.157891e+00	1.147234e+00	1.134573e+00	1.124411e+00	1.121015e+00	1.126967e+00	1.141952e+00	1.163368e+00	1.188633e+00	1.216098e+00	1.246299e+00	1.281860e+00	1.279254e+00	
SCALARS Temperature float 1
LOOKUP_TABLE default
1.075612e+00	1.069909e+00	1.065884e+00	1.063276e+00	1.061517e+00	1.059774e+00	1.057348e+00	1.053506e+00	1.047742e+00	1.039919e+00	1.030358e+00	1.020026e+00	1.010599e+00	1.003740e+00	1.000151e+00	9.992685e-01	9.997931e-01	1.000488e+00	1.000593e+00	9.998606e-01	9.983694e-01	9.963501e-01	9.940500e-01	9.916643e-01	9.893139e-01	9.870446e-01	9.848552e-01	9.827207e-01	9.806207e-01	9.785383e-01	9.764593e-01	9.743735e-01	9.722653e-01	9.701406e-01	9.680214e-01	9.659289e-01	9.638670e-01	9.618450e-01	9.598659e-01	9.579327e-01	9.560542e-01	9.542247e-01	9.524490e-01	9.507229e-01	9.490668e-01	9.474900e-01	9.459998e-01	9.445527e-01	9.430989e-01	9.416196e-01	9.402266e-01	9.390702e-01	9.382141e-01	9.375113e-01	9.366526e-01	9.352778e-01	9.331653e-01	9.303800e-01	9.273600e-01	9.246837e-01	9.227522e-01	9.216552e-01	9.212434e-01	9.213290e-01	9.217515e-01	9.224429e-01	9.233615e-01	9.244876e-01	9.257641e-01	9.271553e-01	9.286563e-01	9.303557e-01	9.323526e-01	9.346872e-01	9.373022e-01	9.401577e-01	9.432425e-01	9.466320e-01	9.503875e-01	9.545203e-01	9.590363e-01	9.639751e-01	9.693770e-01	9.752934e-01	9.817954e-01	9.889931e-01	9.969727e-01	1.005817e+00	1.015675e+00	1.026653e+00	1.038827e+00	1.052253e+00	1.066843e+00	1.082225e+00	1.097741e+00	1.111993e+00	1.122787e+00	1.127883e+00	1.125228e+00	1.117690e+00	1.106241e+00	1.081956e+00	1.046020e+00	1.011119e+00	9.806426e-01	9.558397e-01	9.372809e-01	9.241955e-01	9.151162e-01	9.088613e-01	9.045823e-01	9.017654e-01	9.000087e-01	8.989337e-01	8.983434e-01	8.981904e-01	8.984498e-01	8.989983e-01	8.996374e-01	9.002159e-01	9.007283e-01	9.013271e-01	9.021675e-01	9.032105e-01	9.042298e-01	9.051038e-01	9.058649e-01	9.065993e-01	9.073494e-01	9.081598e-01	9.090485e-01	9.100164e-01	9.110222e-01	9.120266e-01	9.130020e-01	9.139439e-01	9.148428e-01	9.156827e-01	9.164652e-01	9.172535e-01	9.181541e-01	9.192715e-01	9.206203e-01	9.221421e-01	9.237600e-01	9.254210e-01	9.271133e-01	9.288619e-01	9.307315e-01	9.327366e-01	9.348478e-01	9.370359e-01	9.393430e-01	9.418438e-01	9.445486e-01	9.473766e-01	9.502467e-01	9.531917e-01	9.562702e-01	9.595042e-01	9.628599e-01	9.663037e-01	9.698111e-01	9.733767e-01	9.769870e-01	9.806341e-01	9.843003e-01	9.879661e-01	9.916289e-01	9.952583e-01	9.988325e-01	1.002330e+00	1.005710e+00	1.008946e+00	1.012020e+00	1.014928e+00	1.017698e+00	1.020399e+00	1.023150e+00	1.026092e+00	1.029350e+00	1.032938e+00	1.036691e+00	1.040244e+00	1.043102e+00	1.044768e+00	1.044885e+00	1.043380e+00	1.040584e+00	1.037311e+00	1.034748e+00	1.034025e+00	1.035787e+00	1.039794e+00	1.045415e+00	1.051887e+00	1.058887e+00	1.066461e+00	1.074743e+00	1.083080e+00	
SCALARS Pressure_Coefficient float 1
LOOKUP_TABLE default
6.485491e-01	5.897562e-01	5.543471e-01	5.322545e-01	5.168544e-01	5.017853e-01	4.792821e-01	4.437581e-01	3.912704e-01	3.221030e-01	2.404421e-01	1.550401e-01	7.979036e-02	2.703411e-02	2.484123e-04	-6.319239e-03	-2.678774e-03	2.089748e-03	2.381222e-03	-3.695975e-03	-1.545643e-02	-3.111335e-02	-4.879033e-02	-6.699585e-02	-8.484843e-02	-1.020079e-01	-1.185022e-01	-1.344930e-01	-1.501693e-01	-1.656380e-01	-1.809650e-01	-1.962679e-01	-2.116526e-01	-2.270699e-01	-2.423629e-01	-2.573841e-01	-2.720875e-01	-2.864469e-01	-3.004345e-01	-3.140118e-01	-3.271647e-01	-3.398850e-01	-3.522038e-01	-3.640969e-01	-3.754955e-01	-3.862758e-01	-3.964506e-01	-4.062432e-01	-4.160615e-01	-4.259607e-01	-4.353003e-01	-4.430539e-01	-4.488693e-01	-4.536431e-01	-4.593734e-01	-4.683107e-01	-4.819011e-01	-4.996803e-01	-5.189657e-01	-5.360708e-01	-5.484511e-01	-5.555836e-01	-5.583291e-01	-5.579316e-01	-5.553225e-01	-5.510329e-01	-5.452360e-01	-5.381346e-01	-5.300051e-01	-5.211401e-01	-5.115031e-01	-5.005835e-01	-4.876717e-01	-4.725328e-01	-4.554140e-01	-4.366762e-01	-4.161836e-01	-3.933894e-01	-3.680188e-01	-3.399242e-01	-3.088071e-01	-2.744036e-01	-2.362367e-01	-1.938604e-01	-1.466074e-01	-9.350207e-02	-3.368140e-02	3.405480e-02	1.114132e-01	1.997222e-01	3.008372e-01	4.165405e-01	5.469050e-01	6.905059e-01	8.418935e-01	9.897476e-01	1.105482e+00	1.168865e+00	1.132389e+00	1.031974e+00	9.393606e-01	7.174198e-01	3.357515e-01	3.017638e-02	-2.044377e-01	-3.747630e-01	-4.904929e-01	-5.665708e-01	-6.174737e-01	-6.517732e-01	-6.748030e-01	-6.900079e-01	-6.992975e-01	-7.048439e-01	-7.077517e-01	-7.081159e-01	-7.062371e-01	-7.027971e-01	-6.987757e-01	-6.950904e-01	-6.917235e-01	-6.877627e-01	-6.824136e-01	-6.760340e-01	-6.698167e-01	-6.644399e-01	-6.596689e-01	-6.550586e-01	-6.503240e-01	-6.452406e-01	-6.396609e-01	-6.336118e-01	-6.273098e-01	-6.210238e-01	-6.148862e-01	-6.089536e-01	-6.032631e-01	-5.979254e-01	-5.929107e-01	-5.878324e-01	-5.819893e-01	-5.748047e-01	-5.661703e-01	-5.564492e-01	-5.460985e-01	-5.354187e-01	-5.244890e-01	-5.130881e-01	-5.008994e-01	-4.877354e-01	-4.738150e-01	-4.592752e-01	-4.438548e-01	-4.270312e-01	-4.087569e-01	-3.895517e-01	-3.698752e-01	-3.495750e-01	-3.281701e-01	-3.055299e-01	-2.818320e-01	-2.573177e-01	-2.321266e-01	-2.062885e-01	-1.798923e-01	-1.529792e-01	-1.256916e-01	-9.810677e-02	-7.039309e-02	-4.261242e-02	-1.500035e-02	1.220908e-02	3.877450e-02	6.443415e-02	8.902858e-02	1.124829e-01	1.349531e-01	1.569966e-01	1.794831e-01	2.036426e-01	2.304789e-01	2.602778e-01	2.918003e-01	3.221674e-01	3.472184e-01	3.625394e-01	3.646239e-01	3.524357e-01	3.286476e-01	3.003865e-01	2.777020e-01	2.701217e-01	2.834078e-01	3.168568e-01	3.646603e-01	4.210551e-01	4.823626e-01	5.497745e-01	6.291509e-01	6.233353e-01	
SCALARS Mach float 1
LOOKUP_TABLE default
4.935154e-01	5.210640e-01	5.398251e-01	5.517158e-01	5.596247e-01	5.673788e-01	5.780407e-01	5.946271e-01	6.188966e-01	6.507905e-01	6.883721e-01	7.275291e-01	7.621552e-01	7.867760e-01	7.994877e-01	8.025957e-01	8.007486e-01	7.982986e-01	7.979288e-01	8.005107e-01	8.057559e-01	8.128294e-01	8.208472e-01	8.291198e-01	8.372287e-01	8.450201e-01	8.525031e-01	8.597675e-01	8.668856e-01	8.739167e-01	8.809096e-01	8.879000e-01	8.949399e-01	9.020100e-01	9.090377e-01	9.159536e-01	9.227470e-01	9.293884e-01	9.358702e-01	9.421842e-01	9.483036e-01	9.542482e-01	9.600047e-01	9.655880e-01	9.709338e-01	9.760134e-01	9.808052e-01	9.854508e-01	9.901099e-01	9.948430e-01	9.992931e-01	1.002982e+00	1.005711e+00	1.007949e+00	1.010681e+00	1.015050e+00	1.021752e+00	1.030569e+00	1.040103e+00	1.048531e+00	1.054601e+00	1.058045e+00	1.059337e+00	1.059068e+00	1.057743e+00	1.055572e+00	1.052687e+00	1.049147e+00	1.045131e+00	1.040748e+00	1.036014e+00	1.030646e+00	1.024328e+00	1.016925e+00	1.008614e+00	9.995130e-01	9.896500e-01	9.787733e-01	9.666716e-01	9.532886e-01	9.385819e-01	9.223912e-01	9.045451e-01	8.848202e-01	8.629074e-01	8.383322e-01	8.106522e-01	7.793662e-01	7.436320e-01	7.025755e-01	6.551549e-01	5.999627e-01	5.354023e-01	4.599077e-01	3.712838e-01	2.683342e-01	1.524484e-01	2.340546e-02	1.110985e-01	2.148210e-01	3.136496e-01	4.613121e-01	6.260174e-01	7.602692e-01	8.668115e-01	9.490011e-01	1.008682e+00	1.050066e+00	1.078511e+00	1.097999e+00	1.111286e+00	1.120015e+00	1.125451e+00	1.128776e+00	1.130600e+00	1.131073e+00	1.130271e+00	1.128576e+00	1.126600e+00	1.124810e+00	1.123225e+00	1.121371e+00	1.118769e+00	1.115538e+00	1.112379e+00	1.109668e+00	1.107307e+00	1.105027e+00	1.102697e+00	1.100179e+00	1.097417e+00	1.094406e+00	1.091275e+00	1.088147e+00	1.085107e+00	1.082170e+00	1.079364e+00	1.076742e+00	1.074297e+00	1.071832e+00	1.069015e+00	1.065517e+00	1.061290e+00	1.056517e+00	1.051435e+00	1.046211e+00	1.040881e+00	1.035365e+00	1.029458e+00	1.023111e+00	1.016415e+00	1.009462e+00	1.002113e+00	9.941260e-01	9.854637e-01	9.763781e-01	9.671262e-01	9.575986e-01	9.476004e-01	9.370529e-01	9.260573e-01	9.147164e-01	9.031041e-01	8.912316e-01	8.791371e-01	8.668402e-01	8.543945e-01	8.418605e-01	8.292422e-01	8.166405e-01	8.041288e-01	7.917828e-01	7.797491e-01	7.681300e-01	7.569951e-01	7.463733e-01	7.361707e-01	7.261406e-01	7.158349e-01	7.047095e-01	6.922528e-01	6.783691e-01	6.636384e-01	6.494870e-01	6.379509e-01	6.311556e-01	6.306777e-01	6.368209e-01	6.481225e-01	6.611860e-01	6.712932e-01	6.741240e-01	6.672071e-01	6.512925e-01	6.285032e-01	6.015164e-01	5.712948e-01	5.371683e-01	4.977895e-01	4.554126e-01	