# vtk DataFile Version 3.0
vtk output
ASCII
DATASET UNSTRUCTURED_GRID
POINTS 5233 float
9.997500e-01	-3.633247e-05	0.0	9.990000e-01	-1.454753e-04	0.0	9.977600e-01	-3.275400e-04	0.0	9.960200e-01	-5.901040e-04	0.0	9.937800e-01	-9.477360e-04	0.0	9.910500e-01	-1.423877e-03	0.0	9.878400e-01	-2.049595e-03	0.0	9.841300e-01	-2.861749e-03	0.0	9.799500e-01	-3.873029e-03	0.0	9.752800e-01	-5.080740e-03	0.0	9.701500e-01	-6.437755e-03	0.0	9.645400e-01	-7.885065e-03	0.0	9.584700e-01	-9.346582e-03	0.0	9.519400e-01	-1.076633e-02	0.0	9.449600e-01	-1.211596e-02	0.0	9.375400e-01	-1.339978e-02	0.0	9.296900e-01	-1.464518e-02	0.0	9.214000e-01	-1.589060e-02	0.0	9.127000e-01	-1.716334e-02	0.0	9.035800e-01	-1.848443e-02	0.0	8.940600e-01	-1.985737e-02	0.0	8.841500e-01	-2.127741e-02	0.0	8.738500e-01	-2.273620e-02	0.0	8.631800e-01	-2.422156e-02	0.0	8.521600e-01	-2.572279e-02	0.0	8.407700e-01	-2.723678e-02	0.0	8.290500e-01	-2.875430e-02	0.0	8.170100e-01	-3.027159e-02	0.0	8.046400e-01	-3.178786e-02	0.0	7.919700e-01	-3.329748e-02	0.0	7.790100e-01	-3.479720e-02	0.0	7.657800e-01	-3.628240e-02	0.0	7.522800e-01	-3.775051e-02	0.0	7.385200e-01	-3.919765e-02	0.0	7.245300e-01	-4.061792e-02	0.0	7.103200e-01	-4.200768e-02	0.0	6.958900e-01	-4.336435e-02	0.0	6.812700e-01	-4.468271e-02	0.0	6.664700e-01	-4.595977e-02	0.0	6.515000e-01	-4.719276e-02	0.0	6.363800e-01	-4.837840e-02	0.0	6.211300e-01	-4.951381e-02	0.0	6.057600e-01	-5.059720e-02	0.0	5.902800e-01	-5.162699e-02	0.0	5.747100e-01	-5.260122e-02	0.0	5.590600e-01	-5.351882e-02	0.0	5.433600e-01	-5.437782e-02	0.0	5.276100e-01	-5.517813e-02	0.0	5.118400e-01	-5.591823e-02	0.0	4.960500e-01	-5.659821e-02	0.0	4.802700e-01	-5.721686e-02	0.0	4.645100e-01	-5.777392e-02	0.0	4.487800e-01	-5.826906e-02	0.0	4.331100e-01	-5.870133e-02	0.0	4.175000e-01	-5.907062e-02	0.0	4.019700e-01	-5.937616e-02	0.0	3.865400e-01	-5.961715e-02	0.0	3.712300e-01	-5.979279e-02	0.0	3.560400e-01	-5.990236e-02	0.0	3.409900e-01	-5.994476e-02	0.0	3.261100e-01	-5.991891e-02	0.0	3.114000e-01	-5.982366e-02	0.0	2.968700e-01	-5.965766e-02	0.0	2.825500e-01	-5.941976e-02	0.0	2.684500e-01	-5.910861e-02	0.0	2.545700e-01	-5.872248e-02	0.0	2.409400e-01	-5.826038e-02	0.0	2.275700e-01	-5.772091e-02	0.0	2.144700e-01	-5.710263e-02	0.0	2.016600e-01	-5.640470e-02	0.0	1.891400e-01	-5.562526e-02	0.0	1.769300e-01	-5.476368e-02	0.0	1.650400e-01	-5.381891e-02	0.0	1.534900e-01	-5.279093e-02	0.0	1.422900e-01	-5.167923e-02	0.0	1.314400e-01	-5.048229e-02	0.0	1.209500e-01	-4.919961e-02	0.0	1.108500e-01	-4.783368e-02	0.0	1.011300e-01	-4.638208e-02	0.0	9.181000e-02	-4.484664e-02	0.0	8.290000e-02	-4.322820e-02	0.0	7.440000e-02	-4.152585e-02	0.0	6.633000e-02	-3.974286e-02	0.0	5.869000e-02	-3.787869e-02	0.0	5.149000e-02	-3.593512e-02	0.0	4.474000e-02	-3.391446e-02	0.0	3.844000e-02	-3.181618e-02	0.0	3.260000e-02	-2.964299e-02	0.0	2.723000e-02	-2.739845e-02	0.0	2.232000e-02	-2.507739e-02	0.0	1.790000e-02	-2.269392e-02	0.0	1.395000e-02	-2.023715e-02	0.0	1.049000e-02	-1.771863e-02	0.0	7.520000e-03	-1.513958e-02	0.0	5.040000e-03	-1.250068e-02	0.0	3.050000e-03	-9.801179e-03	0.0	1.560000e-03	-7.057837e-03	0.0	5.600000e-04	-4.251410e-03	0.0	6.000000e-05	-1.394118e-03	0.0	0.000000e+00	0.000000e+00	0.0	6.000000e-05	1.275566e-03	0.0	5.600000e-04	3.676816e-03	0.0	1.560000e-03	5.886403e-03	0.0	3.050000e-03	7.950533e-03	0.0	5.040000e-03	9.912142e-03	0.0	7.520000e-03	1.177740e-02	0.0	1.049000e-02	1.356056e-02	0.0	1.395000e-02	1.527175e-02	0.0	1.790000e-02	1.691868e-02	0.0	2.232000e-02	1.850083e-02	0.0	2.723000e-02	2.003154e-02	0.0	3.260000e-02	2.150676e-02	0.0	3.844000e-02	2.293444e-02	0.0	4.474000e-02	2.431619e-02	0.0	5.149000e-02	2.565367e-02	0.0	5.869000e-02	2.695019e-02	0.0	6.633000e-02	2.820682e-02	0.0	7.440000e-02	2.942451e-02	0.0	8.290000e-02	3.060549e-02	0.0	9.181000e-02	3.174898e-02	0.0	1.011300e-01	3.285678e-02	0.0	1.108500e-01	3.392913e-02	0.0	1.209500e-01	3.496520e-02	0.0	1.314400e-01	3.596706e-02	0.0	1.422900e-01	3.693271e-02	0.0	1.534900e-01	3.786208e-02	0.0	1.650400e-01	3.875574e-02	0.0	1.769300e-01	3.961316e-02	0.0	1.891400e-01	4.043308e-02	0.0	2.016600e-01	4.121482e-02	0.0	2.144700e-01	4.195704e-02	0.0	2.275700e-01	4.265941e-02	0.0	2.409400e-01	4.332033e-02	0.0	2.545700e-01	4.393862e-02	0.0	2.684500e-01	4.451293e-02	0.0	2.825500e-01	4.504103e-02	0.0	2.968700e-01	4.552175e-02	0.0	3.114000e-01	4.595334e-02	0.0	3.261100e-01	4.633338e-02	0.0	3.409900e-01	4.665998e-02	0.0	3.560400e-01	4.693127e-02	0.0	3.712300e-01	4.714468e-02	0.0	3.865400e-01	4.729793e-02	0.0	4.019700e-01	4.738883e-02	0.0	4.175000e-01	4.741494e-02	0.0	4.331100e-01	4.737389e-02	0.0	4.487800e-01	4.726346e-02	0.0	4.645100e-01	4.708128e-02	0.0	4.802700e-01	4.682538e-02	0.0	4.960500e-01	4.649375e-02	0.0	5.118400e-01	4.608447e-02	0.0	5.276100e-01	4.559640e-02	0.0	5.433600e-01	4.502787e-02	0.0	5.590600e-01	4.437854e-02	0.0	5.747100e-01	4.364729e-02	0.0	5.902800e-01	4.283479e-02	0.0	6.057600e-01	4.194133e-02	0.0	6.211300e-01	4.096831e-02	0.0	6.363800e-01	3.991713e-02	0.0	6.515000e-01	3.878975e-02	0.0	6.664700e-01	3.758955e-02	0.0	6.812700e-01	3.632073e-02	0.0	6.958900e-01	3.498746e-02	0.0	7.103200e-01	3.359453e-02	0.0	7.245300e-01	3.214949e-02	0.0	7.385200e-01	3.065768e-02	0.0	7.522800e-01	2.912603e-02	0.0	7.657800e-01	2.756440e-02	0.0	7.790100e-01	2.598117e-02	0.0	7.919700e-01	2.438395e-02	0.0	8.046400e-01	2.278327e-02	0.0	8.170100e-01	2.118877e-02	0.0	8.290500e-01	1.961282e-02	0.0	8.407700e-01	1.806223e-02	0.0	8.521600e-01	1.654549e-02	0.0	8.631800e-01	1.507341e-02	0.0	8.738500e-01	1.364646e-02	0.0	8.841500e-01	1.226779e-02	0.0	8.940600e-01	1.093843e-02	0.0	9.035800e-01	9.656537e-03	0.0	9.127000e-01	8.424652e-03	0.0	9.214000e-01	7.253661e-03	0.0	9.296900e-01	6.160267e-03	0.0	9.375400e-01	5.175705e-03	0.0	9.449600e-01	4.329534e-03	0.0	9.519400e-01	3.646962e-03	0.0	9.584700e-01	3.134075e-03	0.0	9.645400e-01	2.770204e-03	0.0	9.701500e-01	2.509598e-03	0.0	9.752800e-01	2.295331e-03	0.0	9.799500e-01	2.074301e-03	0.0	9.841300e-01	1.816245e-03	0.0	9.878400e-01	1.514429e-03	0.0	9.910500e-01	1.187803e-03	0.0	9.937800e-01	8.621558e-04	0.0	9.960200e-01	5.663870e-04	0.0	9.977600e-01	3.231440e-04	0.0	9.990000e-01	1.450743e-04	0.0	9.997500e-01	3.632612e-05	0.0	1.000000e+00	0.000000e+00	0.0	1.984229e+01	2.506660e+00	0.0	1.937166e+01	4.973800e+00	0.0	1.859553e+01	7.362490e+00	0.0	1.752613e+01	9.635070e+00	0.0	1.618034e+01	1.175571e+01	0.0	1.457937e+01	1.369094e+01	0.0	1.274848e+01	1.541027e+01	0.0	1.071654e+01	1.688656e+01	0.0	8.515590e+00	1.809654e+01	0.0	6.180340e+00	1.902113e+01	0.0	3.747630e+00	1.964575e+01	0.0	1.255810e+00	1.996053e+01	0.0	-1.255810e+00	1.996053e+01	0.0	-3.747630e+00	1.964574e+01	0.0	-6.180340e+00	1.902113e+01	0.0	-8.515590e+00	1.809654e+01	0.0	-1.071654e+01	1.688656e+01	0.0	-1.274848e+01	1.541026e+01	0.0	-1.457937e+01	1.369094e+01	0.0	-1.618034e+01	1.175570e+01	0.0	-1.752613e+01	9.635070e+00	0.0	-1.859553e+01	7.362490e+00	0.0	-1.937166e+01	4.973800e+00	0.0	-1.984229e+01	2.506660e+00	0.0	-2.000000e+01	0.000000e+00	0.0	-1.984229e+01	-2.506670e+00	0.0	-1.937166e+01	-4.973800e+00	0.0	-1.859553e+01	-7.362490e+00	0.0	-1.752613e+01	-9.635080e+00	0.0	-1.618034e+01	-1.175571e+01	0.0	-1.457937e+01	-1.369094e+01	0.0	-1.274848e+01	-1.541027e+01	0.0	-1.071653e+01	-1.688656e+01	0.0	-8.515580e+00	-1.809654e+01	0.0	-6.180340e+00	-1.902113e+01	0.0	-3.747620e+00	-1.964575e+01	0.0	-1.255810e+00	-1.996053e+01	0.0	1.255810e+00	-1.996053e+01	0.0	3.747630e+00	-1.964574e+01	0.0	6.180340e+00	-1.902113e+01	0.0	8.515590e+00	-1.809654e+01	0.0	1.071654e+01	-1.688656e+01	0.0	1.274848e+01	-1.541026e+01	0.0	1.457937e+01	-1.369094e+01	0.0	1.618034e+01	-1.175570e+01	0.0	1.752614e+01	-9.635070e+00	0.0	1.859553e+01	-7.362490e+00	0.0	1.937166e+01	-4.973790e+00	0.0	1.984229e+01	-2.506660e+00	0.0	2.000000e+01	0.000000e+00	0.0	6.073101e-02	-4.574059e-02	0.0	6.601899e-01	-6.023671e-02	0.0	4.255648e-01	6.162236e-02	0.0	6.897646e-01	4.887784e-02	0.0	3.791273e-01	-7.377026e-02	0.0	9.994677e-01	-7.276536e-04	0.0	9.985548e-01	-1.331697e-03	0.0	7.738183e-01	-4.760823e-02	0.0	6.898624e-01	-5.736509e-02	0.0	-1.157031e-03	5.591546e-03	0.0	7.467842e-01	-5.102103e-02	0.0	5.833366e-01	5.733455e-02	0.0	9.928170e-01	-3.738757e-03	0.0	9.899374e-01	-4.748794e-03	0.0	5.989120e-01	5.639338e-02	0.0	7.187679e-01	-5.428013e-02	0.0	-1.486079e-03	6.078648e-04	0.0	9.865746e-01	-5.914445e-03	0.0	9.827356e-01	-7.239274e-03	0.0	-1.329839e-03	-6.542229e-03	0.0	6.451063e-01	-6.158528e-02	0.0	8.244888e-01	-4.048828e-02	0.0	7.997482e-01	-4.409464e-02	0.0	3.484946e-01	6.058069e-02	0.0	8.479096e-01	-3.684541e-02	0.0	2.473807e-01	5.619860e-02	0.0	8.699502e-01	-3.319003e-02	0.0	1.043542e-02	1.761656e-02	0.0	8.905043e-01	-2.957832e-02	0.0	7.701434e-02	-5.011764e-02	0.0	9.094995e-01	-2.606559e-02	0.0	-1.790259e-03	-3.238585e-03	0.0	9.424904e-01	-1.925090e-02	0.0	9.268558e-01	-2.265460e-02	0.0	1.792278e-02	-2.781787e-02	0.0	4.257442e-01	-7.320001e-02	0.0	8.591115e-01	-3.501385e-02	0.0	9.563423e-01	-1.572693e-02	0.0	9.784124e-01	-8.744954e-03	0.0	9.683354e-01	-1.211853e-02	0.0	1.582692e-01	-6.390884e-02	0.0	9.002037e-01	-2.780755e-02	0.0	7.604341e-01	-4.933074e-02	0.0	9.971365e-01	-2.087936e-03	0.0	5.990505e-01	-6.524862e-02	0.0	4.414463e-01	-7.285170e-02	0.0	5.363200e-01	-6.916649e-02	0.0	4.730171e-01	-7.192450e-02	0.0	5.046775e-01	-7.069449e-02	0.0	4.888353e-01	-7.134622e-02	0.0	1.249513e-01	-5.944208e-02	0.0	2.782238e-02	-3.334339e-02	0.0	3.945725e-01	-7.366088e-02	0.0	4.620331e-02	-4.103167e-02	0.0	4.101128e-01	-7.347115e-02	0.0	3.187211e-01	-7.339592e-02	0.0	3.486178e-01	-7.375130e-02	0.0	3.348790e-02	-3.597416e-02	0.0	2.895179e-01	-7.270695e-02	0.0	9.348931e-01	-2.095973e-02	0.0	1.468093e-01	-6.251140e-02	0.0	1.946515e-01	-6.752291e-02	0.0	8.579057e-02	-5.217100e-02	0.0	1.045856e-01	-5.600305e-02	0.0	5.678225e-01	-6.735566e-02	0.0	1.700726e-01	-6.521201e-02	0.0	6.145281e-01	-6.409051e-02	0.0	8.804215e-01	-3.137604e-02	0.0	2.264463e-02	-3.062299e-02	0.0	9.952225e-01	-2.871456e-03	0.0	6.708313e-03	-1.904791e-02	0.0	1.846685e-02	2.184050e-02	0.0	9.183861e-01	-2.435073e-02	0.0	9.49647
[...]
POINT_DATA 5233

SCALARS Conservative_1 float 1
LOOKUP_TABLE default
1.199853e+00	1.181690e+00	1.171355e+00	1.165018e+00	1.160548e+00	1.156173e+00	1.149350e+00	1.138451e+00	1.122237e+00	1.100788e+00	1.075342e+00	1.048514e+00	1.024687e+00	1.007915e+00	9.993669e-01	9.971999e-01	9.982411e-01	9.996290e-01	9.995974e-01	9.975405e-01	9.936827e-01	9.885880e-01	9.828479e-01	9.769381e-01	9.711374e-01	9.655540e-01	9.601755e-01	9.549518e-01	9.498156e-01	9.447346e-01	9.396922e-01	9.346432e-01	9.295535e-01	9.244403e-01	9.193577e-01	9.143565e-01	9.094561e-01	9.046626e-01	8.999884e-01	8.954520e-01	8.910541e-01	8.868068e-01	8.826940e-01	8.787346e-01	8.749443e-01	8.713739e-01	8.680087e-01	8.647810e-01	8.615413e-01	8.582809e-01	8.552052e-01	8.526801e-01	8.508504e-01	8.494664e-01	8.478850e-01	8.453149e-01	8.411139e-01	8.352251e-01	8.283911e-01	8.219689e-01	8.170793e-01	8.140780e-01	8.127312e-01	8.125669e-01	8.132244e-01	8.144685e-01	8.162317e-01	8.184199e-01	8.209443e-01	8.236994e-01	8.267269e-01	8.302167e-01	8.344264e-01	8.394064e-01	8.450584e-01	8.512317e-01	8.580065e-01	8.655763e-01	8.739989e-01	8.833146e-01	8.936370e-01	9.050279e-01	9.176453e-01	9.316111e-01	9.471234e-01	9.644690e-01	9.838824e-01	1.005729e+00	1.030503e+00	1.058514e+00	1.090282e+00	1.126243e+00	1.166175e+00	1.209537e+00	1.254553e+00	1.298086e+00	1.331638e+00	1.350797e+00	1.340106e+00	1.310045e+00	1.287209e+00	1.226360e+00	1.108097e+00	1.011812e+00	9.349357e-01	8.770844e-01	8.366886e-01	8.095419e-01	7.908672e-01	7.779094e-01	7.689457e-01	7.627698e-01	7.587939e-01	7.562428e-01	7.547149e-01	7.541977e-01	7.545570e-01	7.555511e-01	7.568492e-01	7.580838e-01	7.592133e-01	7.605600e-01	7.624367e-01	7.647458e-01	7.670778e-01	7.691402e-01	7.709814e-01	7.727472e-01	7.745646e-01	7.765315e-01	7.787255e-01	7.811474e-01	7.837396e-01	7.864129e-01	7.891093e-01	7.917697e-01	7.944289e-01	7.973900e-01	8.015001e-01	8.079003e-01	8.169624e-01	8.268886e-01	8.344343e-01	8.375677e-01	8.365644e-01	8.332155e-01	8.296117e-01	8.274876e-01	8.280610e-01	8.319844e-01	8.387845e-01	8.469766e-01	8.548750e-01	8.617655e-01	8.679311e-01	8.739199e-01	8.801369e-01	8.867714e-01	8.938880e-01	9.013991e-01	9.092153e-01	9.172735e-01	9.255404e-01	9.339988e-01	9.426056e-01	9.513465e-01	9.601737e-01	9.690726e-01	9.779687e-01	9.868651e-01	9.956783e-01	1.004328e+00	1.012750e+00	1.020859e+00	1.028607e+00	1.035970e+00	1.042994e+00	1.049859e+00	1.056827e+00	1.064293e+00	1.072560e+00	1.081728e+00	1.091414e+00	1.100745e+00	1.108453e+00	1.113182e+00	1.113821e+00	1.109993e+00	1.102461e+00	1.093425e+00	1.086025e+00	1.083302e+00	1.087149e+00	1.097452e+00	1.112200e+00	1.129552e+00	1.148174e+00	1.168451e+00	1.192600e+00	1.181083e+00	9.999770e-01	9.999729e-01	9.999585e-01	9.999368e-01	9.999152e-01	9.998899e-01	9.998534e-01	9.998019e-01	9.997430e-01	9.996936e-01	9.996608e-01	9.996715e-01	9.997233e-01	9.998284e-01	9.999185e-01	9.999909e-01	1.000030e+00	1.000054e+00	1.000067e+00	1.000072e+00	1.000074e+00	1.000075e+00	1.000075e+00	1.000076e+00	1.000078e+00	1.000080e+00	1.000085e+00	1.000091e+00	1.000100e+00	1.000113e+00	1.000126e+00	1.000146e+00	1.000163e+00	1.000187e+00	1.000201e+00	1.000207e+00	1.000203e+00	1.000186e+00	1.000174e+00	1.000162e+00	1.000158e+00	1.000147e+00	1.000133e+00	1.000115e+00	1.000094e+00	1.000070e+00	1.000054e+00	1.000042e+00	1.000010e+00	9.999783e-01	9.398323e-01	9.004392e-01	8.391697e-01	9.249166e-01	8.416721e-01	1.183109e+00	1.173687e+00	9.393868e-01	9.096752e-01	1.220928e+00	9.293512e-01	8.751477e-01	1.152074e+00	1.145401e+00	8.811090e-01	9.193450e-01	1.309269e+00	1.136460e+00	1.124085e+00	1.337690e+00	8.960185e-01	9.595901e-01	9.493784e-01	8.151724e-01	9.702202e-01	7.887455e-01	9.814151e-01	8.825341e-01	9.921525e-01	9.124371e-01	9.997214e-01	1.344915e+00	1.005478e+00	1.002230e+00	1.098452e+00	8.520035e-01	9.757693e-01	1.025075e+00	1.107783e+00	1.065725e+00	8.444557e-01	9.965321e-01	9.343902e-01	1.164343e+00	8.835559e-01	8.532157e-01	8.693114e-01	8.567288e-01	8.628153e-01	8.595770e-01	8.638685e-01	1.040026e+00	8.468495e-01	9.734684e-01	8.501543e-01	8.189651e-01	8.282553e-01	1.015306e+00	8.166978e-01	1.002908e+00	8.503194e-01	8.314888e-01	9.006721e-01	8.803334e-01	8.760228e-01	8.393650e-01	8.875799e-01	9.869810e-01	1.067654e+00	1.157930e+00	1.208779e+00	8.242105e-01	1.001524e+00	1.012297e+00	1.087921e+00	1.139650e+00	9.648350e-01	8.202686e-01	8.725835e-01	9.243125e-01	9.443662e-01	8.716495e-01	8.252525e-01	8.796952e-01	9.050000e-01	9.557727e-01	1.248604e+00	1.132469e+00	8.350564e-01	8.351147e-01	1.211160e+00	8.225655e-01	8.900048e-01	8.171185e-01	8.184749e-01	8.546242e-01	9.144590e-01	1.282245e+00	1.318447e+00	8.551296e-01	1.325588e+00	7.929794e-01	7.689351e-01	7.769241e-01	7.681455e-01	8.417222e-01	1.139886e+00	8.466540e-01	8.309636e-01	1.097063e+00	1.106154e+00	1.053170e+00	8.331566e-01	8.352491e-01	8.348931e-01	1.084351e+00	1.067831e+00	7.662152e-01	1.092066e+00	1.107057e+00	1.099685e+00	7.668136e-01	7.670208e-01	7.966317e-01	7.913698e-01	7.766013e-01	8.025697e-01	8.320050e-01	8.407235e-01	7.734544e-01	7.696918e-01	8.942459e-01	7.797598e-01	7.838021e-01	9.090810e-01	8.692045e-01	9.584268e-01	9.414403e-01	9.927515e-01	9.756223e-01	1.025013e+00	1.009395e+00	1.060278e+00	1.039427e+00	1.104782e+00	1.075925e+00	1.102422e+00	1.032363e+00	1.046304e+00	1.001164e+00	1.017352e+00	9.670192e-01	9.842285e-01	9.331021e-01	9.498876e-01	9.014960e-01	9.168974e-01	8.627166e-01	8.874278e-01	7.816462e-01	7.861984e-01	7.750992e-01	7.781151e-01	7.721614e-01	7.716091e-01	8.488759e-01	7.836175e-01	8.282465e-01	9.882738e-01	1.043657e+00	9.544455e-01	8.226525e-01	8.660985e-01	1.060285e+00	8.060927e-01	9.283533e-01	7.665096e-01	7.662315e-01	7.940132e-01	7.672381e-01	1.089697e+00	1.091672e+00	7.993156e-01	1.098681e+00	1.109826e+00	8.074798e-01	8.252702e-01	1.092558e+00	1.206381e+00	1.157732e+00	1.174318e+00	8.917277e-01	9.932223e-01	1.123954e+00	8.387248e-01	1.286654e+00	1.169556e+00	9.254370e-01	8.568104e-01	8.172352e-01	7.787958e-01	1.203162e+00	1.262068e+00	8.221569e-01	9.149733e-01	1.002506e+00	1.199190e+00	8.766672e-01	9.103038e-01	9.443225e-01	1.133698e+00	8.252494e-01	9.751204e-01	9.645274e-01	9.082194e-01	1.317390e+00	8.334751e-01	1.131564e+00	1.041473e+00	8.564004e-01	9.197285e-01	9.013062e-01	8.572826e-01	9.202144e-01	8.479095e-01	9.956041e-01	9.492426e-01	9.610107e-01	8.556021e-01	9.170300e-01	1.021602e+00	7.757889e-01	9.247947e-01	7.811954e-01	1.042782e+00	1.100070e+00	8.152027e-01	8.474111e-01	1.100070e+00	1.049546e+00	1.107845e+00	1.101229e+00	1.094202e+00	7.916600e-01	8.088948e-01	7.893515e-01	7.758347e-01	9.057561e-01	8.370514e-01	9.173699e-01	7.786889e-01	7.893509e-01	1.098063e+00	1.118598e+00	1.056370e+00	8.503939e-01	1.215299e+00	1.145573e+00	1.131275e+00	1.014213e+00	1.138127e+00	1.233931e+00	1.331590e+00	1.316213e+00	1.100526e+00	1.217635e+00	9.478548e-01	1.163186e+00	1.148843e+00	8.440680e-01	8.741868e-01	1.123380e+00	9.858777e-01	8.826205e-01	1.141978e+00	1.332653e+00	8.559975e-01	8.448763e-01	9.697691e-01	7.992681e-01	9.805249e-01	9.909879e-01	9.333770e-01	9.994792e-01	1.004877e+00	1.016962e+00	1.045992e+00	1.027141e+00	1.058831e+00	1.110338e+00	8.705311e-01	9.344977e-01	9.394298e-01	1.155592e+00	8.590469e-01	8.615720e-01	8.646013e-01	1.072137e+00	8.520231e-01	8.545302e-01	8.296829e-01	1.000865e+00	1.007224e+00	1.010740e+00	8.631599e-01	8.973018e-01	8.775298e-01	8.887720e-01	1.077190e+00	1.094769e+00	9.245605e-01	9.295239e-01	8.874701e-01	8.785815e-01	8.810970e-01	8.848420e-01	9.815001e-01	9.638813e-01	1.164524e+00	8.356648e-01	8.421760e-01	8.453275e-01	8.409511e-01	8.302667e-01	8.274415e-01	8.218316e-01	8.227369e-01	8.251113e-01	1.300026e+00	1.267578e+00	7.963361e-01	1.095400e+00	8.555236e-01	8.406349e-01	8.366456e-01	8.358644e-01	1.095524e+00	1.100350e+00	1.077992e+00	8.377627e-01	8.410407e-01	8.417164e-01	1.070629e+00	1.096764e+00	7.809139e-01	7.842979e-01	7.941173e-01	7.966668e-01	7.799258e-01	7.775439e-01	7.764623e-01	9.901859e-01	9.571424e-01	9.489086e-01	9.820002e-01	1.014082e+00	1.063364e+00	1.035916e+00	1.028867e+00	1.006354e+00	9.983623e-01	9.737060e-01	9.654122e-01	9.407614e-01	9.327067e-01	9.094691e-01	9.021494e-01	8.704019e-01	8.634125e-01	8.952076e-01	8.886942e-01	7.872443e-01	7.854164e-01	7.838486e-01	7.824921e-01	8.828980e-01	8.057529e-01	8.182253e-01	9.542505e-01	9.593565e-01	8.677957e-01	8.709584e-01	1.074856e+00	8.344676e-01	7.764832e-01	7.774453e-01	8.048583e-01	8.019101e-01	8.341513e-01	8.241953e-01	1.091622e+00	1.085161e+00	8.928139e-01	8.970054e-01	1.022246e+00	1.297527e+00	8.232992e-01	1.312034e+00	8.539806e-01	8.275520e-01	9.497721e-01	8.764120e-01	1.006719e+00	1.106922e+00	1.100861e+00	1.096800e+00	1.085309e+00	1.115612e+00	1.160382e+00	1.181361e+00	1.153292e+00	1.200884e+00	1.102375e+00	1.284785e+00	9.161811e-01	1.010197e+00	1.131820e+00	8.787010e-01	1.173001e+00	1.220721e+00	9.207946e-01	1.276154e+00	9.254898e-01	1.130228e+00	9.853255e-01	1.190300e+00	8.321457e-01	9.801471e-01	9.161654e-01	1.139685e+00	1.159998e+00	1.095760e+00	8.565691e-01	1.093665e+00	9.179772e-01	1.125668e+00	8.490702e-01	8.020930e-01	8.160064e-01	7.863587e-01	7.943216e-01	1.171455e+00	1.293584e+00	1.187989e+00	9.108778e-01	1.243051e+00	1.055051e+00	9.282936e-01	1.313201e+00	8.627177e-01	8.618935e-01	1.076087e+00	9.857049e-01	1.018776e+00	9.883862e-01	9.254712e-01	1.097185e+00	1.095958e+00	1.052547e+00	1.045969e+00	8.109800e-01	8.047374e-01	7.949294e-01	7.848453e-01	9.071808e-01	9.116208e-01	8.427656e-01	9.451786e-01	7.854480e-01	1.095872e+00	1.135996e+00	1.033105e+00	1.138005e+00	1.249631e+00	1.315660e+00	1.051347e+00	1.186197e+00	1.178481e+00	1.070377e+00	1.122995e+00	8.847985e-01	8.604626e-01	8.485519e-01	9.697058e-01	9.749147e-01	9.903692e-01	9.951181e-01	9.560366e-01	9.415718e-01	9.994291e-01	1.003274e+00	1.029283e+00	1.040960e+00	1.112470e+00	9.400893e-01	9.449436e-01	1.146160e+00	8.640332e-01	8.669067e-01	8.573098e-01	8.592007e-01	1.028904e+00	1.014463e+00	1.020534e+00	8.775469e-01	8.697814e-01	8.796838e-01	8.831414e-01	1.085664e+00	1.099843e+00	9.302975e-01	9.352423e-01	9.051257e-01	8.949130e-01	8.857680e-01	8.867797e-01	8.906082e-01	1.008503e+00	9.894863e-01	9.719370e-01	8.370443e-01	8.431008e-01	8.490967e-01	8.568103e-01	8.516508e-01	8.470168e-01	8.389789e-01	8.356002e-01	8.275805e-01	8.289564e-01	8.327255e-01	8.148327e-01	8.434803e-01	8.409382e-01	1.096530e+00	8.414290e-01	8.438445e-01	8.467764e-01	8.473953e-01	1.072423e+00	7.993213e-01	8.060425e-01	7.995399e-01	7.971503e-01	7.848710e-01	7.847394e-01	7.846586e-01	9.566757e-01	1.065818e+00	1.059121e+00	1.039353e+00	1.032685e+00	1.025900e+00	1.011416e+00	1.003936e+00	9.962277e-01	9.805536e-01	9.726087e-01	9.646411e-01	9.487709e-01	9.408966e-01	9.331396e-01	9.106590e-01	8.719105e-01	8.645787e-01	9.036403e-01	8.969843e-01	8.907373e-01	7.929339e-01	7.911592e-01	7.896860e-01	7.884262e-01	7.873649e-01	8.263921e-01	8.412622e-01	9.546499e-01	9.596357e-01	9.646184e-01	8.700338e-01	8.731959e-01	8.598793e-01	8.826587e-01	7.859794e-01	7.881049e-01	7.907894e-01	8.075490e-01	8.421649e-01	8.333393e-01	8.236278e-01	1.089879e+00	1.084832e+00	1.078898e+00	8.945605e-01	8.986487e-01	9.028500e-01	8.303358e-01	8.285884e-01	1.290448e+00	9.243174e-01	1.129132e+00	1.097466e+00	8.817841e-01	1.263528e+00	1.159557e+00	1.012556e+00	1.017559e+00	1.055358e+00	1.112407e+00	8.524564e-01	1.271629e+00	9.686002e-01	1.206223e+00	1.092627e+00	1.120369e+00	1.174746e+00	9.189008e-01	1.133718e+00	1.185342e+00	1.188048e+00	9.551643e-01	8.703103e-01	1.102766e+00	8.602168e-01	9.365563e-01	8.655071e-01	8.342175e-01	1.100763e+00	8.806208e-01	1.090642e+00	1.087691e+00	9.873343e-01	7.927553e-01	8.055369e-01	1.122323e+00	8.143179e-01	9.855985e-01	1.146503e+00	1.105704e+00	1.144195e+00	1.078697e+00	1.127383e+00	9.219638e-01	1.231655e+00	9.271075e-01	9.312202e-01	1.153727e+00	1.130141e+00	1.180311e+00	1.016154e+00	8.575004e-01	8.141013e-01	1.221622e+00	1.005452e+00	9.269095e-01	1.049194e+00	8.183298e-01	8.109241e-01	8.081150e-01	9.129998e-01	9.180261e-01	1.095582e+00	1.045839e+00	1.089880e+00	1.254957e+00	1.297484e+00	1.078352e+00	1.065679e+00	1.113292e+00	8.880365e-01	9.754036e-01	9.804318e-01	9.905241e-01	9.953151e-01	9.639938e-01	9.497169e-01	9.997948e-01	1.004121e+00	1.008314e+00	1.041272e+00	1.052963e+00	9.455184e-01	9.507814e-01	1.137407e+00	8.672680e-01	8.698483e-01	8.627104e-01	8.642213e-01	1.023571e+00	1.031329e+00	8.853505e-01	8.769155e-01	8.858254e-01	1.091231e+00	1.102920e+00	9.363790e-01	9.416888e-01	9.130666e-01	9.029170e-01	8.939793e-01	8.887496e-01	8.931056e-01	1.034978e+00	1.015253e+00	9.964485e-01	9.793622e-01	8.401429e-01	8.451979e-01	8.508217e-01	8.560124e-01	8.644433e-01	8.590442e-01	8.540051e-01	8.495072e-01	8.455015e-01	8.365460e-01	8.345957e-01	8.420392e-01	8.478780e-01	1.094587e+00	1.093795e+00	8.467016e-01	8.477596e-01	8.499530e-01	8.518646e-01	8.518936e-01	8.232151e-01	8.343443e-01	8.031273e-01	8.010354e-01	7.925908e-01	7.929922e-01	7.938751e-01	7.947904e-01	1.067661e+00	1.061596e+00	1.055469e+00	1.042882e+00	1.036592e+00	1.030280e+00	1.022854e+00	1.009944e+00	1.001928e+00	9.945395e-01	9.794151e-01	9.721995e-01	9.640885e-01	9.569585e-01	9.487601e-01	9.417954e-01	9.336348e-01	8.659362e-01	8.729409e-01	9.125523e-01	9.049883e-01	8.993975e-01	8.926414e-01	7.991023e-01	7.974753e-01	7.959303e-01	7.947309e-01	7.936777e-01	7.929981e-01	8.473623e-01	8.638079e-01	9.604108e-01	9.656091e-01	9.703976e-01	8.729490e-01	8.752251e-01	8.790867e-01	8.842333e-01	9.081313e-01	9.358064e-01	7.961550e-01	7.988386e-01	8.031254e-01	8.081052e-01	8.488106e-01	8.422054e-01	8.331763e-01	8.244424e-01	1.073508e+00	1.083705e+00	1.078994e+00	8.963303e-01	9.009436e-01	9.044298e-01	9.092667e-01	8.390534e-01	8.366800e-01	8.349784e-01	1.147473e+00	1.125134e+00	1.073705e+00	1.177374e+00	1.170943e+00	9.350563e-01	9.328324e-01	1.193403e+00	1.096399e+00	1.235641e+00	1.079587e+00	8.792586e-01	8.007669e-01	1.021210e+00	1.129784e+00	1.236661e+00	1.293492e+00	1.295447e+00	1.282790e+00	1.251261e+00	1.138854e+00	8.215894e-01	1.084629e+00	1.121681e+00	1.026109e+00	9.584055e-01	8.664072e-01	1.115714e+00	1.069181e+00	1.082371e+00	8.777534e-01	8.641793e-01	9.241348e-01	9.824676e-01	8.564591e-01	8.862066e-01	8.256581e-01	1.109455e+00	9.450274e-01	1.165071e+00	1.099626e+00	1.293567e+00	1.182399e+00	1.173274e+00	1.019194e+00	1.059448e+00	1.267342e+00	9.880380e-01	1.215257e+00	1.088250e+00	1.164402e+00	1.177018e+00	1.178048e+00	1.124611e+00	8.412768e-01	8.416191e-01	1.103913e+00	8.902024e-01	1.085688e+00	1.113628e+00	9.261756e-01	1.202234e+00	8.170493e-01	8.147628e-01	8.112851e-01	9.173501e-01	1.055973e+00	1.092722e+00	1.276054e+00	1.102541e+00	9.815749e-01	9.857270e-01	9.911677e-01	9.956401e-01	9.579748e-01	9.724216e-01	1.000834e+00	1.004876e+00	1.009890e+00	1.015031e+00	1.051879e+00	1.062632e+00	9.495709e-01	1.128714e+00	8.704093e-01	8.731436e-01	8.676093e-01	8.696347e-01	1.033633e+00	1.041934e+00	8.929252e-01	8.838316e-01	1.095138e+00	1.104865e+00	9.430893e-01	9.212311e-01	9.103017e-01	9.036588e-01	8.933180e-01	1.040258e+00	1.021379e+00	1.003308e+00	9.875956e-01	8.445458e-01	8.474325e-01	8.529362e-01	8.574676e-01	8.625906e-01	8.715854e-01	8.673113e-01	8.604144e-01	8.570725e-01	8.515563e-01	1.094017e+00	1.092155e+00	1.090350e+00	8.525116e-01	8.535713e-01	8.538763e-01	8.561449e-01	8.558944e-01	8.412429e-01	8.542034e-01	8.096731e-01	8.068165e-01	8.002558e-01	8.032802e-01	8.054811e-01	1.063329e+00	1.057953e+00	1.051917e+00	1.046136e+00	1.039957e+00	1.034064e+00	1.027263e+00	1.017436e+00	1.008085e+00	9.964672e-01	9.678880e-01	9.532052e-01	9.385810e-01	9.104776e-01	8.989774e-01	8.058602e-01	8.034663e-01	8.030292e-01	8.009009e-01	8.011288e-01	8.002767e-01	8.002609e-01	8.692854e-01	8.862489e-01	9.666357e-01	9.711420e-01	9.762359e-01	8.761455e-01	8.799218e-01	9.069748e-01	9.316008e-01	9.581817e-01	8.077481e-01	8.111620e-01	8.166100e-01	8.242877e-01	8.320498e-01	8.542711e-01	8.492969e-01	8.427711e-01	8.333473e-01	1.078638e+00	1.073436e+00	9.008797e-01	9.088954e-01	8.491970e-01	8.449096e-01	8.437255e-01	8.410257e-01	1.166163e+00	1.154201e+00	1.181078e+00	1.256363e+00	1.180669e+00	1.088660e+00	1.106399e+00	1.185303e+00	1.086559e+00	1.141152e+00	1.106042e+00	1.256104e+00	1.080548e+00	1.161263e+00	8.311072e-01	1.177659e+00	1.063191e+00	1.154425e+00	1.140924e+00	1.079430e+00	8.875824e-01	1.101581e+00	8.484561e-01	1.034829e+00	1.024339e+00	9.092172e-01	9.410736e-01	8.832948e-01	1.231666e+00	8.722584e-01	9.673108e-01	9.543195e-01	8.108469e-01	1.094200e+00	1.066526e+00	1.214569e+00	1.033093e+00	1.070012e+00	1.170627e+00	1.097485e+00	1.292453e+00	1.245595e+00	1.113853e+00	9.429050e-01	8.659703e-01	8.598252e-01	1.111967e+00	1.173828e+00	1.129341e+00	1.276194e+00	1.176753e+00	1.062734e+00	1.217263e+00	1.199924e+00	8.895828e-01	1.100551e+00	1.084169e+00	1.080628e+00	8.767013e-01	8.226135e-01	8.167535e-01	9.345738e-01	1.094110e+00	1.124988e+00	1.121451e+00	9.892480e-01	9.987164e-01	9.803233e-01	1.008402e+00	1.016963e+00	1.060510e+00	1.121105e+00	8.752015e-01	1.043110e+00	1.051319e+00	8.963376e-01	1.097537e+00	9.501716e-01	9.576123e-01	9.247613e-01	9.113179e-01	8.941385e-01	1.044875e+00	1.026046e+00	1.009012e+00	9.973189e-01	8.530483e-01	8.614101e-01	8.688890e-01	8.710927e-01	8.610360e-01	1.091472e+00	1.089046e+00	8.601019e-01	8.596923e-01	8.743185e-01	8.126925e-01	8.165952e-01	1.004165e+00	1.056661e+00	1.045525e+00	1.034074e+00	1.023555e+00	1.014223e+00	9.918969e-01	9.783040e-01	9.643221e-01	9.502737e-01	9.361193e-01	9.222985e-01	9.102942e-01	9.004423e-01	8.099501e-01	8.082239e-01	8.082448e-01	8.069363e-01	8.091897e-01	8.912711e-01	9.088012e-01	9.661703e-01	9.743124e-01	9.823187e-01	8.789722e-01	8.826216e-01	9.285626e-01	9.522135e-01	9.778095e-01	1.004259e+00	8.207908e-01	8.248237e-01	8.309742e-01	8.401837e-01	8.517985e-01	8.583183e-01	8.527465e-01	8.425104e-01	1.078153e+00	1.073698e+00	9.014793e-01	9.173470e-01	9.258694e-01	8.535174e-01	8.489716e-01	1.117229e+00	1.166074e+00	1.161256e+00	1.136079e+00	1.023580e+00	1.108246e+00	1.173742e+00	1.135724e+00	1.185752e+00	1.134790e+00	1.147701e+00	1.126879e+00	1.094412e+00	1.195202e+00	1.236395e+00	1.088418e+00	9.504390e-01	8.417066e-01	1.124873e+00	1.016592e+00	1.098615e+00	8.860947e-01	1.068516e+00	1.169547e+00	8.754773e-01	1.043318e+00	9.176673e-01	8.954121e-01	1.083541e+00	1.091489e+00	1.081120e+00	1.065749e+00	1.171300e+00	1.098658e+00	1.102970e+00	1.082992e+00	8.252005e-01	9.008100e-01	9.343324e-01	9.873759e-01	1.150356e+00	1.157120e+00	1.273134e+00	1.075336e+00	1.085558e+00	1.175620e+00	1.099256e+00	1.170766e+00	1.152065e+00	8.896873e-01	1.225515e+00	9.775070e-01	9.620274e-01	1.094806e+00	1.235015e+00	1.067139e+00	1.106638e+00	9.427004e-01	1.255251e+00	1.176123e+00	1.003114e+00	1.213556e+00	1.200462e+00	8.772182e-01	1.116993e+00	1.079572e+00	8.890218e-01	8.321536e-01	9.110887e-01	1.120222e+00	1.145261e+00	9.972759e-01	1.006932e+00	1.024958e+00	1.033962e+00	1.114354e+00	8.787301e-01	1.051060e+00	1.058875e+00	8.698738e-01	9.738924e-01	9.818944e-01	9.577391e-01	9.472224e-01	9.318331e-01	9.169601e-01	1.047540e+00	8.571562e-01	8.625353e-01	9.025324e-01	8.887063e-01	9.258696e-01	1.091451e+00	8.688357e-01	8.659189e-01	8.277173e-01	1.059973e+00	1.050123e+00	1.010685e+00	1.039547e+00	1.029320e+00	1.019959e+00	1.000066e+00	9.878043e-01	9.746910e-01	9.613278e-01	9.477654e-01	9.341405e-01	9.216282e-01	8.205942e-01	8.178416e-01	8.164335e-01	8.162361e-01	8.164960e-01	8.213275e-01	9.117239e-01	9.305316e-01	9.655674e-01	9.891839e-01	8.816340e-01	8.852166e-01	9.489632e-01	9.702945e-01	9.941920e-01	1.017963e+00	1.042729e+00	8.353797e-01	8.416918e-01	8.475741e-01	8.564495e-01	8.693083e-01	8.652978e-01	8.612288e-01	8.524629e-01	1.074869e+00	1.068214e+00	9.022954e-01	9.098107e-01	8.764206e-01	8.665893e-01	8.596501e-01	8.561908e-01	1.152190e+00	1.153082e+00	1.149808e+00	1.120942e+00	1.157636e+00	1.140196e+00	1.115223e+00	1.050292e+00	1.172792e+00	1.120773e+00	1.118005e+00	1.071674e+00	1.165903e+00	1.084862e+00	8.291408e-01	1.137693e+00	1.141681e+00	1.127982e+00	1.169369e+00	1.072510e+00	9.233158e-01	1.025402e+00	1.024515e+00	9.584254e-01	1.132922e+00	1.131844e+00	1.128035e+00	1.171860e+00	1.172371e+00	9.013685e-01	9.