# vtk DataFile Version 3.0
vtk output
ASCII
DATASET UNSTRUCTURED_GRID
POINTS 200 float
9.997500e-01	-3.633247e-05	0.0	9.990000e-01	-1.454753e-04	0.0	9.977600e-01	-3.275400e-04	0.0	9.960200e-01	-5.901040e-04	0.0	9.937800e-01	-9.477360e-04	0.0	9.910500e-01	-1.423877e-03	0.0	9.878400e-01	-2.049595e-03	0.0	9.841300e-01	-2.861749e-03	0.0	9.799500e-01	-3.873029e-03	0.0	9.752800e-01	-5.080740e-03	0.0	9.701500e-01	-6.437755e-03	0.0	9.645400e-01	-7.885065e-03	0.0	9.584700e-01	-9.346582e-03	0.0	9.519400e-01	-1.076633e-02	0.0	9.449600e-01	-1.211596e-02	0.0	9.375400e-01	-1.339978e-02	0.0	9.296900e-01	-1.464518e-02	0.0	9.214000e-01	-1.589060e-02	0.0	9.127000e-01	-1.716334e-02	0.0	9.035800e-01	-1.848443e-02	0.0	8.940600e-01	-1.985737e-02	0.0	8.841500e-01	-2.127741e-02	0.0	8.738500e-01	-2.273620e-02	0.0	8.631800e-01	-2.422156e-02	0.0	8.521600e-01	-2.572279e-02	0.0	8.407700e-01	-2.723678e-02	0.0	8.290500e-01	-2.875430e-02	0.0	8.170100e-01	-3.027159e-02	0.0	8.046400e-01	-3.178786e-02	0.0	7.919700e-01	-3.329748e-02	0.0	7.790100e-01	-3.479720e-02	0.0	7.657800e-01	-3.628240e-02	0.0	7.522800e-01	-3.775051e-02	0.0	7.385200e-01	-3.919765e-02	0.0	7.245300e-01	-4.061792e-02	0.0	7.103200e-01	-4.200768e-02	0.0	6.958900e-01	-4.336435e-02	0.0	6.812700e-01	-4.468271e-02	0.0	6.664700e-01	-4.595977e-02	0.0	6.515000e-01	-4.719276e-02	0.0	6.363800e-01	-4.837840e-02	0.0	6.211300e-01	-4.951381e-02	0.0	6.057600e-01	-5.059720e-02	0.0	5.902800e-01	-5.162699e-02	0.0	5.747100e-01	-5.260122e-02	0.0	5.590600e-01	-5.351882e-02	0.0	5.433600e-01	-5.437782e-02	0.0	5.276100e-01	-5.517813e-02	0.0	5.118400e-01	-5.591823e-02	0.0	4.960500e-01	-5.659821e-02	0.0	4.802700e-01	-5.721686e-02	0.0	4.645100e-01	-5.777392e-02	0.0	4.487800e-01	-5.826906e-02	0.0	4.331100e-01	-5.870133e-02	0.0	4.175000e-01	-5.907062e-02	0.0	4.019700e-01	-5.937616e-02	0.0	3.865400e-01	-5.961715e-02	0.0	3.712300e-01	-5.979279e-02	0.0	3.560400e-01	-5.990236e-02	0.0	3.409900e-01	-5.994476e-02	0.0	3.261100e-01	-5.991891e-02	0.0	3.114000e-01	-5.982366e-02	0.0	2.968700e-01	-5.965766e-02	0.0	2.825500e-01	-5.941976e-02	0.0	2.684500e-01	-5.910861e-02	0.0	2.545700e-01	-5.872248e-02	0.0	2.409400e-01	-5.826038e-02	0.0	2.275700e-01	-5.772091e-02	0.0	2.144700e-01	-5.710263e-02	0.0	2.016600e-01	-5.640470e-02	0.0	1.891400e-01	-5.562526e-02	0.0	1.769300e-01	-5.476368e-02	0.0	1.650400e-01	-5.381891e-02	0.0	1.534900e-01	-5.279093e-02	0.0	1.422900e-01	-5.167923e-02	0.0	1.314400e-01	-5.048229e-02	0.0	1.209500e-01	-4.919961e-02	0.0	1.108500e-01	-4.783368e-02	0.0	1.011300e-01	-4.638208e-02	0.0	9.181000e-02	-4.484664e-02	0.0	8.290000e-02	-4.322820e-02	0.0	7.440000e-02	-4.152585e-02	0.0	6.633000e-02	-3.974286e-02	0.0	5.869000e-02	-3.787869e-02	0.0	5.149000e-02	-3.593512e-02	0.0	4.474000e-02	-3.391446e-02	0.0	3.844000e-02	-3.181618e-02	0.0	3.260000e-02	-2.964299e-02	0.0	2.723000e-02	-2.739845e-02	0.0	2.232000e-02	-2.507739e-02	0.0	1.790000e-02	-2.269392e-02	0.0	1.395000e-02	-2.023715e-02	0.0	1.049000e-02	-1.771863e-02	0.0	7.520000e-03	-1.513958e-02	0.0	5.040000e-03	-1.250068e-02	0.0	3.050000e-03	-9.801179e-03	0.0	1.560000e-03	-7.057837e-03	0.0	5.600000e-04	-4.251410e-03	0.0	6.000000e-05	-1.394118e-03	0.0	0.000000e+00	0.000000e+00	0.0	6.000000e-05	1.275566e-03	0.0	5.600000e-04	3.676816e-03	0.0	1.560000e-03	5.886403e-03	0.0	3.050000e-03	7.950533e-03	0.0	5.040000e-03	9.912142e-03	0.0	7.520000e-03	1.177740e-02	0.0	1.049000e-02	1.356056e-02	0.0	1.395000e-02	1.527175e-02	0.0	1.790000e-02	1.691868e-02	0.0	2.232000e-02	1.850083e-02	0.0	2.723000e-02	2.003154e-02	0.0	3.260000e-02	2.150676e-02	0.0	3.844000e-02	2.293444e-02	0.0	4.474000e-02	2.431619e-02	0.0	5.149000e-02	2.565367e-02	0.0	5.869000e-02	2.695019e-02	0.0	6.633000e-02	2.820682e-02	0.0	7.440000e-02	2.942451e-02	0.0	8.290000e-02	3.060549e-02	0.0	9.181000e-02	3.174898e-02	0.0	1.011300e-01	3.285678e-02	0.0	1.108500e-01	3.392913e-02	0.0	1.209500e-01	3.496520e-02	0.0	1.314400e-01	3.596706e-02	0.0	1.422900e-01	3.693271e-02	0.0	1.534900e-01	3.786208e-02	0.0	1.650400e-01	3.875574e-02	0.0	1.769300e-01	3.961316e-02	0.0	1.891400e-01	4.043308e-02	0.0	2.016600e-01	4.121482e-02	0.0	2.144700e-01	4.195704e-02	0.0	2.275700e-01	4.265941e-02	0.0	2.409400e-01	4.332033e-02	0.0	2.545700e-01	4.393862e-02	0.0	2.684500e-01	4.451293e-02	0.0	2.825500e-01	4.504103e-02	0.0	2.968700e-01	4.552175e-02	0.0	3.114000e-01	4.595334e-02	0.0	3.261100e-01	4.633338e-02	0.0	3.409900e-01	4.665998e-02	0.0	3.560400e-01	4.693127e-02	0.0	3.712300e-01	4.714468e-02	0.0	3.865400e-01	4.729793e-02	0.0	4.019700e-01	4.738883e-02	0.0	4.175000e-01	4.741494e-02	0.0	4.331100e-01	4.737389e-02	0.0	4.487800e-01	4.726346e-02	0.0	4.645100e-01	4.708128e-02	0.0	4.802700e-01	4.682538e-02	0.0	4.960500e-01	4.649375e-02	0.0	5.118400e-01	4.608447e-02	0.0	5.276100e-01	4.559640e-02	0.0	5.433600e-01	4.502787e-02	0.0	5.590600e-01	4.437854e-02	0.0	5.747100e-01	4.364729e-02	0.0	5.902800e-01	4.283479e-02	0.0	6.057600e-01	4.194133e-02	0.0	6.211300e-01	4.096831e-02	0.0	6.363800e-01	3.991713e-02	0.0	6.515000e-01	3.878975e-02	0.0	6.664700e-01	3.758955e-02	0.0	6.812700e-01	3.632073e-02	0.0	6.958900e-01	3.498746e-02	0.0	7.103200e-01	3.359453e-02	0.0	7.245300e-01	3.214949e-02	0.0	7.385200e-01	3.065768e-02	0.0	7.522800e-01	2.912603e-02	0.0	7.657800e-01	2.756440e-02	0.0	7.790100e-01	2.598117e-02	0.0	7.919700e-01	2.438395e-02	0.0	8.046400e-01	2.278327e-02	0.0	8.170100e-01	2.118877e-02	0.0	8.290500e-01	1.961282e-02	0.0	8.407700e-01	1.806223e-02	0.0	8.521600e-01	1.654549e-02	0.0	8.631800e-01	1.507341e-02	0.0	8.738500e-01	1.364646e-02	0.0	8.841500e-01	1.226779e-02	0.0	8.940600e-01	1.093843e-02	0.0	9.035800e-01	9.656537e-03	0.0	9.127000e-01	8.424652e-03	0.0	9.214000e-01	7.253661e-03	0.0	9.296900e-01	6.160267e-03	0.0	9.375400e-01	5.175705e-03	0.0	9.449600e-01	4.329534e-03	0.0	9.519400e-01	3.646962e-03	0.0	9.584700e-01	3.134075e-03	0.0	9.645400e-01	2.770204e-03	0.0	9.701500e-01	2.509598e-03	0.0	9.752800e-01	2.295331e-03	0.0	9.799500e-01	2.074301e-03	0.0	9.841300e-01	1.816245e-03	0.0	9.878400e-01	1.514429e-03	0.0	9.910500e-01	1.187803e-03	0.0	9.937800e-01	8.621558e-04	0.0	9.960200e-01	5.663870e-04	0.0	9.977600e-01	3.231440e-04	0.0	9.990000e-01	1.450743e-04	0.0	9.997500e-01	3.632612e-05	0.0	1.000000e+00	0.000000e+00	0.0	
CELLS 200	600
2	149	150	2	150	151	2	151	152	2	152	153	2	153	154	2	154	155	2	155	156	2	156	157	2	157	158	2	158	159	2	159	160	2	160	161	2	161	162	2	162	163	2	163	164	2	164	165	2	165	166	2	166	167	2	167	168	2	168	169	2	169	170	2	170	171	2	171	172	2	172	173	2	173	174	2	174	175	2	175	176	2	176	177	2	177	178	2	178	179	2	179	180	2	180	181	2	181	182	2	31	32	2	32	33	2	33	34	2	34	35	2	35	36	2	36	37	2	37	38	2	38	39	2	39	40	2	40	41	2	41	42	2	42	43	2	43	44	2	44	45	2	45	46	2	46	47	2	47	48	2	48	49	2	49	50	2	50	51	2	51	52	2	52	53	2	53	54	2	54	55	2	55	56	2	56	57	2	57	58	2	58	59	2	59	60	2	60	61	2	61	62	2	62	63	2	63	64	2	64	65	2	65	66	2	66	67	2	67	68	2	68	69	2	69	70	2	70	71	2	71	72	2	72	73	2	73	74	2	74	75	2	75	76	2	76	77	2	77	78	2	78	79	2	79	80	2	80	81	2	81	82	2	82	83	2	83	84	2	113	114	2	114	115	2	115	116	2	116	117	2	117	118	2	118	119	2	119	120	2	120	121	2	121	122	2	122	123	2	123	124	2	124	125	2	125	126	2	126	127	2	127	128	2	128	129	2	129	130	2	130	131	2	131	132	2	132	133	2	133	134	2	134	135	2	135	136	2	136	137	2	137	138	2	138	139	2	139	140	2	140	141	2	141	142	2	142	143	2	143	144	2	144	145	2	145	146	2	146	147	2	147	148	2	148	149	2	84	85	2	85	86	2	86	87	2	87	88	2	88	89	2	89	90	2	90	91	2	91	92	2	92	93	2	93	94	2	94	95	2	95	96	2	96	97	2	97	98	2	98	99	2	99	100	2	100	101	2	101	102	2	102	103	2	103	104	2	104	105	2	105	106	2	106	107	2	107	108	2	108	109	2	109	110	2	110	111	2	111	112	2	112	113	2	199	0	2	0	1	2	1	2	2	2	3	2	3	4	2	4	5	2	5	6	2	6	7	2	182	183	2	183	184	2	184	185	2	185	186	2	186	187	2	187	188	2	188	189	2	189	190	2	190	191	2	191	192	2	192	193	2	193	194	2	194	195	2	195	196	2	196	197	2	197	198	2	198	199	2	7	8	2	8	9	2	9	10	2	10	11	2	11	12	2	12	13	2	13	14	2	14	15	2	15	16	2	16	17	2	17	18	2	18	19	2	19	20	2	20	21	2	21	22	2	22	23	2	23	24	2	24	25	2	25	26	2	26	27	2	27	28	2	28	29	2	29	30	2	30	31	
CELL_TYPES 200
3	3	3	3	3	3	3	3	3	3	3	3	3	3	3	3	3	3	3	3	3	3	3	3	3	3	3	3	3	3	3	3	3	3	3	3	3	3	3	3	3	3	3	3	3	3	3	3	3	3	3	3	3	3	3	3	3	3	3	3	3	3	3	3	3	3	3	3	3	3	3	3	3	3	3	3	3	3	3	3	3	3	3	3	3	3	3	3	3	3	3	3	3	3	3	3	3	3	3	3	3	3	3	3	3	3	3	3	3	3	3	3	3	3	3	3	3	3	3	3	3	3	3	3	3	3	3	3	3	3	3	3	3	3	3	3	3	3	3	3	3	3	3	3	3	3	3	3	3	3	3	3	3	3	3	3	3	3	3	3	3	3	3	3	3	3	3	3	3	3	3	3	3	3	3	3	3	3	3	3	3	3	3	3	3	3	3	3	3	3	3	3	3	3	3	3	3	3	3	3	
POINT_DATA 200

SCALARS Conservative_1 float 1
LOOKUP_TABLE default
1.199853e+00	1.181690e+00	1.171355e+00	1.165018e+00	1.160548e+00	1.156173e+00	1.149350e+00	1.138451e+00	1.122237e+00	1.100788e+00	1.075342e+00	1.048514e+00	1.024687e+00	1.007915e+00	9.993669e-01	9.971999e-01	9.982411e-01	9.996290e-01	9.995974e-01	9.975405e-01	9.936827e-01	9.885880e-01	9.828479e-01	9.769381e-01	9.711374e-01	9.655540e-01	9.601755e-01	9.549518e-01	9.498156e-01	9.447346e-01	9.396922e-01	9.346432e-01	9.295535e-01	9.244403e-01	9.193577e-01	9.143565e-01	9.094561e-01	9.046626e-01	8.999884e-01	8.954520e-01	8.910541e-01	8.868068e-01	8.826940e-01	8.787346e-01	8.749443e-01	8.713739e-01	8.680087e-01	8.647810e-01	8.615413e-01	8.582809e-01	8.552052e-01	8.526801e-01	8.508504e-01	8.494664e-01	8.478850e-01	8.453149e-01	8.411139e-01	8.352251e-01	8.283911e-01	8.219689e-01	8.170793e-01	8.140780e-01	8.127312e-01	8.125669e-01	8.132244e-01	8.144685e-01	8.162317e-01	8.184199e-01	8.209443e-01	8.236994e-01	8.267269e-01	8.302167e-01	8.344264e-01	8.394064e-01	8.450584e-01	8.512317e-01	8.580065e-01	8.655763e-01	8.739989e-01	8.833146e-01	8.936370e-01	9.050279e-01	9.176453e-01	9.316111e-01	9.471234e-01	9.644690e-01	9.838824e-01	1.005729e+00	1.030503e+00	1.058514e+00	1.090282e+00	1.126243e+00	1.166175e+00	1.209537e+00	1.254553e+00	1.298086e+00	1.331638e+00	1.350797e+00	1.340106e+00	1.310045e+00	1.287209e+00	1.226360e+00	1.108097e+00	1.011812e+00	9.349357e-01	8.770844e-01	8.366886e-01	8.095419e-01	7.908672e-01	7.779094e-01	7.689457e-01	7.627698e-01	7.587939e-01	7.562428e-01	7.547149e-01	7.541977e-01	7.545570e-01	7.555511e-01	7.568492e-01	7.580838e-01	7.592133e-01	7.605600e-01	7.624367e-01	7.647458e-01	7.670778e-01	7.691402e-01	7.709814e-01	7.727472e-01	7.745646e-01	7.765315e-01	7.787255e-01	7.811474e-01	7.837396e-01	7.864129e-01	7.891093e-01	7.917697e-01	7.944289e-01	7.973900e-01	8.015001e-01	8.079003e-01	8.169624e-01	8.268886e-01	8.344343e-01	8.375677e-01	8.365644e-01	8.332155e-01	8.296117e-01	8.274876e-01	8.280610e-01	8.319844e-01	8.387845e-01	8.469766e-01	8.548750e-01	8.617655e-01	8.679311e-01	8.739199e-01	8.801369e-01	8.867714e-01	8.938880e-01	9.013991e-01	9.092153e-01	9.172735e-01	9.255404e-01	9.339988e-01	9.426056e-01	9.513465e-01	9.601737e-01	9.690726e-01	9.779687e-01	9.868651e-01	9.956783e-01	1.004328e+00	1.012750e+00	1.020859e+00	1.028607e+00	1.035970e+00	1.042994e+00	1.049859e+00	1.056827e+00	1.064293e+00	1.072560e+00	1.081728e+00	1.091414e+00	1.100745e+00	1.108453e+00	1.113182e+00	1.113821e+00	1.109993e+00	1.102461e+00	1.093425e+00	1.086025e+00	1.083302e+00	1.087149e+00	1.097452e+00	1.112200e+00	1.129552e+00	1.148174e+00	1.168451e+00	1.192600e+00	1.181083e+00	
SCALARS Conservative_2 float 1
LOOKUP_TABLE default
7.194780e-01	7.457379e-01	7.636976e-01	7.743580e-01	7.800894e-01	7.847135e-01	7.904000e-01	7.999961e-01	8.150087e-01	8.354992e-01	8.597474e-01	8.844027e-01	9.057764e-01	9.214524e-01	9.308263e-01	9.348913e-01	9.357136e-01	9.354026e-01	9.354284e-01	9.364064e-01	9.383897e-01	9.410745e-01	9.440832e-01	9.471246e-01	9.500139e-01	9.526870e-01	9.551411e-01	9.574201e-01	9.595351e-01	9.615192e-01	9.634079e-01	9.651930e-01	9.668896e-01	9.684942e-01	9.699938e-01	9.713766e-01	9.726564e-01	9.738153e-01	9.748625e-01	9.758142e-01	9.766510e-01	9.774085e-01	9.780600e-01	9.786434e-01	9.791261e-01	9.795506e-01	9.798943e-01	9.802101e-01	9.804658e-01	9.807009e-01	9.808566e-01	9.809603e-01	9.809954e-01	9.810149e-01	9.810375e-01	9.811050e-01	9.811610e-01	9.811254e-01	9.808401e-01	9.803322e-01	9.797757e-01	9.792989e-01	9.789965e-01	9.788074e-01	9.787323e-01	9.786748e-01	9.786571e-01	9.786054e-01	9.785342e-01	9.783748e-01	9.781437e-01	9.777901e-01	9.773202e-01	9.766545e-01	9.757797e-01	9.745531e-01	9.729944e-01	9.710109e-01	9.683641e-01	9.649016e-01	9.605291e-01	9.549464e-01	9.478851e-01	9.389143e-01	9.275036e-01	9.129076e-01	8.941673e-01	8.701786e-01	8.393375e-01	7.994596e-01	7.480406e-01	6.820566e-01	5.979374e-01	4.937078e-01	3.697905e-01	2.342943e-01	1.066206e-01	1.142947e-02	-2.069140e-02	5.241342e-03	7.072939e-02	2.040843e-01	4.034901e-01	5.803526e-01	7.076894e-01	7.916996e-01	8.451824e-01	8.793008e-01	9.012628e-01	9.159446e-01	9.261186e-01	9.332886e-01	9.386980e-01	9.428829e-01	9.462073e-01	9.490520e-01	9.514903e-01	9.536097e-01	9.555064e-01	9.571413e-01	9.585901e-01	9.599841e-01	9.613580e-01	9.626253e-01	9.637759e-01	9.647858e-01	9.657075e-01	9.665546e-01	9.673795e-01	9.681837e-01	9.690015e-01	9.698152e-01	9.706241e-01	9.713982e-01	9.721417e-01	9.728474e-01	9.735602e-01	9.743513e-01	9.753481e-01	9.765533e-01	9.777477e-01	9.784560e-01	9.786393e-01	9.785926e-01	9.785062e-01	9.784733e-01	9.784920e-01	9.786236e-01	9.788460e-01	9.792114e-01	9.795196e-01	9.795807e-01	9.793425e-01	9.789640e-01	9.785268e-01	9.779813e-01	9.772941e-01	9.763592e-01	9.751735e-01	9.736955e-01	9.719365e-01	9.698768e-01	9.675134e-01	9.648338e-01	9.618320e-01	9.585058e-01	9.548513e-01	9.509096e-01	9.466132e-01	9.420741e-01	9.372990e-01	9.323063e-01	9.272132e-01	9.220758e-01	9.169505e-01	9.118653e-01	9.067648e-01	9.015249e-01	8.958486e-01	8.894333e-01	8.819358e-01	8.733457e-01	8.640928e-01	8.552764e-01	8.484624e-01	8.452448e-01	8.466540e-01	8.525983e-01	8.615985e-01	8.709426e-01	8.772559e-01	8.778369e-01	8.713547e-01	8.585637e-01	8.402344e-01	8.179583e-01	7.914872e-01	7.597992e-01	7.213491e-01	6.623190e-01	
SCALARS Conservative_3 float 1
LOOKUP_TABLE default
1.010163e-01	1.066559e-01	1.128605e-01	1.198018e-01	1.303118e-01	1.450878e-01	1.637792e-01	1.844553e-01	2.039433e-01	2.182846e-01	2.242588e-01	2.202610e-01	2.072392e-01	1.890043e-01	1.703247e-01	1.549069e-01	1.444103e-01	1.385975e-01	1.361091e-01	1.353025e-01	1.348750e-01	1.340614e-01	1.325787e-01	1.304588e-01	1.278744e-01	1.250279e-01	1.220539e-01	1.190411e-01	1.160136e-01	1.129574e-01	1.098597e-01	1.066985e-01	1.034621e-01	1.001423e-01	9.672470e-02	9.322442e-02	8.963821e-02	8.598526e-02	8.227231e-02	7.851226e-02	7.471880e-02	7.090002e-02	6.707474e-02	6.324547e-02	5.941983e-02	5.559038e-02	5.176140e-02	4.794609e-02	4.416801e-02	4.043241e-02	3.670446e-02	3.292849e-02	2.908116e-02	2.514367e-02	2.113687e-02	1.710098e-02	1.309068e-02	9.119641e-03	5.100044e-03	8.626406e-04	-3.655097e-03	-8.433010e-03	-1.345229e-02	-1.869502e-02	-2.419848e-02	-2.999207e-02	-3.613493e-02	-4.264494e-02	-4.955664e-02	-5.689229e-02	-6.470394e-02	-7.306112e-02	-8.203593e-02	-9.166118e-02	-1.019799e-01	-1.130497e-01	-1.249870e-01	-1.378642e-01	-1.517594e-01	-1.668038e-01	-1.831204e-01	-2.008270e-01	-2.200855e-01	-2.410342e-01	-2.637979e-01	-2.884942e-01	-3.151872e-01	-3.438066e-01	-3.739338e-01	-4.047792e-01	-4.347791e-01	-4.606923e-01	-4.772896e-01	-4.760481e-01	-4.441204e-01	-3.665784e-01	-2.325481e-01	-4.134587e-02	1.798172e-01	3.433285e-01	4.863113e-01	6.517237e-01	7.201321e-01	6.916902e-01	6.185463e-01	5.360108e-01	4.609194e-01	3.978749e-01	3.462570e-01	3.039082e-01	2.691819e-01	2.402975e-01	2.160632e-01	1.955007e-01	1.778477e-01	1.625680e-01	1.492619e-01	1.375651e-01	1.272128e-01	1.179264e-01	1.094850e-01	1.018080e-01	9.484903e-02	8.852368e-02	8.270424e-02	7.722792e-02	7.205328e-02	6.715251e-02	6.252108e-02	5.811289e-02	5.389395e-02	4.983215e-02	4.589090e-02	4.203597e-02	3.823834e-02	3.447191e-02	3.069120e-02	2.685070e-02	2.293852e-02	1.905795e-02	1.540346e-02	1.198425e-02	8.379562e-03	4.342443e-03	-6.590667e-05	-4.678687e-03	-9.351278e-03	-1.403810e-02	-1.875922e-02	-2.348563e-02	-2.816398e-02	-3.288845e-02	-3.780725e-02	-4.302328e-02	-4.840577e-02	-5.383473e-02	-5.926275e-02	-6.468128e-02	-7.007634e-02	-7.543158e-02	-8.070817e-02	-8.588175e-02	-9.088798e-02	-9.569970e-02	-1.002499e-01	-1.045154e-01	-1.084246e-01	-1.119425e-01	-1.150134e-01	-1.175933e-01	-1.196401e-01	-1.211191e-01	-1.220305e-01	-1.223990e-01	-1.222977e-01	-1.218740e-01	-1.213060e-01	-1.207759e-01	-1.203592e-01	-1.198927e-01	-1.188389e-01	-1.162888e-01	-1.111070e-01	-1.023922e-01	-8.994834e-02	-7.470812e-02	-5.886690e-02	-4.556336e-02	-3.810527e-02	-3.874818e-02	-4.759793e-02	-6.237695e-02	-7.919261e-02	-9.422835e-02	-1.047043e-01	-1.096892e-01	-1.102556e-01	-1.061943e-01	-1.003335e-01	2.616308e-03	
SCALARS Conservative_4 float 1
LOOKUP_TABLE default
3.446450e+00	3.400991e+00	3.375923e+00	3.360656e+00	3.349761e+00	3.339112e+00	3.322168e+00	3.295029e+00	3.254576e+00	3.201014e+00	3.137360e+00	3.070003e+00	3.010003e+00	2.967742e+00	2.946232e+00	2.940768e+00	2.943340e+00	2.946758e+00	2.946582e+00	2.941275e+00	2.931412e+00	2.918408e+00	2.903751e+00	2.888644e+00	2.873792e+00	2.859475e+00	2.845659e+00	2.832227e+00	2.818998e+00	2.805896e+00	2.792885e+00	2.779840e+00	2.766675e+00	2.753435e+00	2.740260e+00	2.727279e+00	2.714549e+00	2.702081e+00	2.689908e+00	2.678085e+00	2.666606e+00	2.655514e+00	2.644757e+00	2.634397e+00	2.624463e+00	2.615103e+00	2.606268e+00	2.597797e+00	2.589284e+00	2.580721e+00	2.572627e+00	2.565973e+00	2.561131e+00	2.557463e+00	2.553281e+00	2.546523e+00	2.535487e+00	2.520007e+00	2.501987e+00	2.484995e+00	2.472017e+00	2.464018e+00	2.460414e+00	2.459950e+00	2.461683e+00	2.464970e+00	2.469644e+00	2.475438e+00	2.482128e+00	2.489420e+00	2.497434e+00	2.506656e+00	2.517774e+00	2.530904e+00	2.545796e+00	2.562023e+00	2.579820e+00	2.599688e+00	2.621729e+00	2.646036e+00	2.672921e+00	2.702505e+00	2.735189e+00	2.771249e+00	2.811155e+00	2.855589e+00	2.905078e+00	2.960519e+00	3.023079e+00	3.093396e+00	3.172700e+00	3.261951e+00	3.360334e+00	3.466467e+00	3.575889e+00	3.681452e+00	3.762261e+00	3.809464e+00	3.782612e+00	3.707204e+00	3.656753e+00	3.512685e+00	3.212696e+00	2.968431e+00	2.771519e+00	2.622277e+00	2.517714e+00	2.447295e+00	2.398639e+00	2.364745e+00	2.341246e+00	2.324970e+00	2.314493e+00	2.307777e+00	2.303764e+00	2.302462e+00	2.303484e+00	2.306185e+00	2.309711e+00	2.313067e+00	2.316152e+00	2.319838e+00	2.324937e+00	2.331160e+00	2.337432e+00	2.342980e+00	2.347944e+00	2.352703e+00	2.357604e+00	2.362900e+00	2.368804e+00	2.375309e+00	2.382266e+00	2.389432e+00	2.396655e+00	2.403780e+00	2.410912e+00	2.418865e+00	2.429894e+00	2.446986e+00	2.471056e+00	2.497264e+00	2.517096e+00	2.525295e+00	2.522629e+00	2.513835e+00	2.504403e+00	2.498900e+00	2.500504e+00	2.510945e+00	2.528930e+00	2.550519e+00	2.571276e+00	2.589370e+00	2.605567e+00	2.621289e+00	2.637595e+00	2.654954e+00	2.673542e+00	2.693117e+00	2.713451e+00	2.734374e+00	2.755798e+00	2.777676e+00	2.799893e+00	2.822412e+00	2.845105e+00	2.867945e+00	2.890714e+00	2.913450e+00	2.935931e+00	2.957942e+00	2.979342e+00	2.999914e+00	3.019538e+00	3.038161e+00	3.055893e+00	3.073196e+00	3.090711e+00	3.109438e+00	3.130115e+00	3.153006e+00	3.177152e+00	3.200414e+00	3.219677e+00	3.231592e+00	3.233376e+00	3.224020e+00	3.205341e+00	3.182776e+00	3.164135e+00	3.157060e+00	3.166371e+00	3.191942e+00	3.228511e+00	3.271493e+00	3.317326e+00	3.367009e+00	3.426687e+00	3.383731e+00	
SCALARS Pressure float 1
LOOKUP_TABLE default
1.290594e+00	1.264347e+00	1.248612e+00	1.238859e+00	1.232107e+00	1.225484e+00	1.215489e+00	1.199602e+00	1.176040e+00	1.144920e+00	1.108115e+00	1.069551e+00	1.035485e+00	1.011527e+00	9.992899e-01	9.961992e-01	9.977374e-01	9.997993e-01	9.998503e-01	9.970360e-01	9.916687e-01	9.845584e-01	9.765540e-01	9.683291e-01	9.602794e-01	9.525536e-01	9.451341e-01	9.379438e-01	9.308944e-01	9.239368e-01	9.170406e-01	9.101516e-01	9.032219e-01	8.962751e-01	8.893848e-01	8.826202e-01	8.760030e-01	8.695469e-01	8.632659e-01	8.571794e-01	8.512951e-01	8.456186e-01	8.401377e-01	8.348661e-01	8.298356e-01	8.251004e-01	8.206494e-01	8.163777e-01	8.120996e-01	8.077910e-01	8.037418e-01	8.004269e-01	7.980443e-01	7.962492e-01	7.941871e-01	7.907984e-01	7.852489e-01	7.774803e-01	7.685196e-01	7.601564e-01	7.538299e-01	7.499793e-01	7.482661e-01	7.480821e-01	7.489444e-01	7.505696e-01	7.528567e-01	7.557019e-01	7.589779e-01	7.625631e-01	7.665021e-01	7.710576e-01	7.765596e-01	7.830910e-01	7.905127e-01	7.986583e-01	8.076081e-01	8.176259e-01	8.288377e-01	8.413096e-01	8.551777e-01	8.705654e-01	8.876944e-01	9.067721e-01	9.281089e-01	9.521559e-01	9.793107e-01	1.010122e+00	1.045367e+00	1.085640e+00	1.131758e+00	1.184480e+00	1.243748e+00	1.308810e+00	1.377112e+00	1.443419e+00	1.495075e+00	1.523513e+00	1.508155e+00	1.464882e+00	1.425178e+00	1.329012e+00	1.162094e+00	1.026227e+00	9.196271e-01	8.404711e-01	7.855505e-01	7.487941e-01	7.237223e-01	7.064578e-01	6.945684e-01	6.864621e-01	6.812414e-01	6.778858e-01	6.758665e-01	6.751267e-01	6.755239e-01	6.767473e-01	6.783464e-01	6.798644e-01	6.812382e-01	6.828697e-01	6.851793e-01	6.880731e-01	6.910071e-01	6.936018e-01	6.959077e-01	6.981201e-01	7.003938e-01	7.028630e-01	7.056215e-01	7.086776e-01	7.119548e-01	7.153438e-01	7.187658e-01	7.221442e-01	7.255109e-01	7.292481e-01	7.344455e-01	7.426219e-01	7.543291e-01	7.673099e-01	7.772686e-01	7.814409e-01	7.801453e-01	7.757179e-01	7.709221e-01	7.680395e-01	7.686990e-01	7.737472e-01	7.826094e-01	7.933631e-01	8.037895e-01	8.128983e-01	8.210439e-01	8.289657e-01	8.372046e-01	8.460386e-01	8.555478e-01	8.656263e-01	8.761507e-01	8.870419e-01	8.982560e-01	9.097718e-01	9.215346e-01	9.335246e-01	9.456816e-01	9.579744e-01	9.703278e-01	9.827145e-01	9.950286e-01	1.007165e+00	1.019016e+00	1.030460e+00	1.041424e+00	1.051871e+00	1.061870e+00	1.071670e+00	1.081665e+00	1.092413e+00	1.104374e+00	1.117681e+00	1.131775e+00	1.145351e+00	1.156520e+00	1.163275e+00	1.164014e+00	1.158256e+00	1.147201e+00	1.134090e+00	1.123513e+00	1.119837e+00	1.125716e+00	1.140824e+00	1.162479e+00	1.188003e+00	1.215691e+00	1.246060e+00	1.281724e+00	1.279209e+00	
SCALARS Temperature float 1
LOOKUP_TABLE default
1.075627e+00	1.069948e+00	1.065955e+00	1.063382e+00	1.061660e+00	1.059949e+00	1.057545e+00	1.053714e+00	1.047943e+00	1.040091e+00	1.030476e+00	1.020065e+00	1.010538e+00	1.003584e+00	9.999229e-01	9.989965e-01	9.994953e-01	1.000170e+00	1.000253e+00	9.994943e-01	9.979732e-01	9.959239e-01	9.935963e-01	9.911877e-01	9.888192e-01	9.865358e-01	9.843348e-01	9.821897e-01	9.800791e-01	9.779856e-01	9.758947e-01	9.737958e-01	9.716729e-01	9.695326e-01	9.673979e-01	9.652911e-01	9.632164e-01	9.611837e-01	9.591966e-01	9.572589e-01	9.553798e-01	9.535545e-01	9.517882e-01	9.500777e-01	9.484440e-01	9.468959e-01	9.454392e-01	9.440282e-01	9.426125e-01	9.411731e-01	9.398233e-01	9.387188e-01	9.379373e-01	9.373522e-01	9.366684e-01	9.355075e-01	9.335821e-01	9.308632e-01	9.277255e-01	9.247995e-01	9.225908e-01	9.212623e-01	9.206809e-01	9.206406e-01	9.209566e-01	9.215453e-01	9.223566e-01	9.233670e-01	9.245181e-01	9.257783e-01	9.271527e-01	9.287425e-01	9.306508e-01	9.329104e-01	9.354533e-01	9.382384e-01	9.412610e-01	9.446029e-01	9.483281e-01	9.524462e-01	9.569632e-01	9.619210e-01	9.673612e-01	9.733376e-01	9.799240e-01	9.872333e-01	9.953534e-01	1.004368e+00	1.014425e+00	1.025626e+00	1.038041e+00	1.051709e+00	1.066520e+00	1.082076e+00	1.097691e+00	1.111960e+00	1.122734e+00	1.127862e+00	1.125400e+00	1.118192e+00	1.107184e+00	1.083705e+00	1.048730e+00	1.014246e+00	9.836260e-01	9.582558e-01	9.388803e-01	9.249603e-01	9.150995e-01	9.081492e-01	9.032738e-01	8.999597e-01	8.977951e-01	8.963864e-01	8.955256e-01	8.951589e-01	8.952589e-01	8.957001e-01	8.962768e-01	8.968196e-01	8.972948e-01	8.978512e-01	8.986705e-01	8.997410e-01	9.008306e-01	9.017885e-01	9.026257e-01	9.034262e-01	9.042420e-01	9.051313e-01	9.061235e-01	9.072265e-01	9.084073e-01	9.096288e-01	9.108570e-01	9.120635e-01	9.132484e-01	9.145439e-01	9.163386e-01	9.191999e-01	9.233339e-01	9.279483e-01	9.314916e-01	9.329883e-01	9.325586e-01	9.309931e-01	9.292565e-01	9.281583e-01	9.283120e-01	9.300021e-01	9.330279e-01	9.367001e-01	9.402421e-01	9.432941e-01	9.459782e-01	9.485602e-01	9.512209e-01	9.540661e-01	9.571084e-01	9.603141e-01	9.636339e-01	9.670420e-01	9.705206e-01	9.740610e-01	9.776460e-01	9.812667e-01	9.849068e-01	9.885477e-01	9.921869e-01	9.957941e-01	9.993475e-01	1.002826e+00	1.006187e+00	1.009405e+00	1.012461e+00	1.015349e+00	1.018098e+00	1.020775e+00	1.023502e+00	1.026422e+00	1.029662e+00	1.033236e+00	1.036980e+00	1.040524e+00	1.043364e+00	1.044999e+00	1.045064e+00	1.043480e+00	1.040582e+00	1.037190e+00	1.034519e+00	1.033726e+00	1.035475e+00	1.039520e+00	1.045206e+00	1.051747e+00	1.058804e+00	1.066420e+00	1.074731e+00	1.083082e+00	
SCALARS Pressure_Coefficient float 1
LOOKUP_TABLE default
6.486469e-01	5.900608e-01	5.549368e-01	5.331680e-01	5.180962e-01	5.033121e-01	4.810024e-01	4.455403e-01	3.929464e-01	3.234811e-01	2.413282e-01	1.552488e-01	7.920866e-02	2.573020e-02	-1.585070e-03	-8.483995e-03	-5.050541e-03	-4.479779e-04	-3.341119e-04	-6.616085e-03	-1.859664e-02	-3.446785e-02	-5.233474e-02	-7.069404e-02	-8.866214e-02	-1.059072e-01	-1.224685e-01	-1.385184e-01	-1.542535e-01	-1.697839e-01	-1.851772e-01	-2.005545e-01	-2.160226e-01	-2.315289e-01	-2.469090e-01	-2.620086e-01	-2.767791e-01	-2.911899e-01	-3.052101e-01	-3.187960e-01	-3.319306e-01	-3.446013e-01	-3.568356e-01	-3.686024e-01	-3.798312e-01	-3.904009e-01	-4.003361e-01	-4.098713e-01	-4.194206e-01	-4.290380e-01	-4.380763e-01	-4.454757e-01	-4.507940e-01	-4.548008e-01	-4.594038e-01	-4.669678e-01	-4.793551e-01	-4.966957e-01	-5.166974e-01	-5.353651e-01	-5.494869e-01	-5.580818e-01	-5.619061e-01	-5.623167e-01	-5.603920e-01	-5.567643e-01	-5.516592e-01	-5.453082e-01	-5.379957e-01	-5.299932e-01	-5.212006e-01	-5.110322e-01	-4.987509e-01	-4.841719e-01	-4.676056e-01	-4.494235e-01	-4.294463e-01	-4.070851e-01	-3.820586e-01	-3.542197e-01	-3.232641e-01	-2.889165e-01	-2.506821e-01	-2.080979e-01	-1.604711e-01	-1.067948e-01	-4.618155e-02	2.259435e-02	1.012660e-01	1.911599e-01	2.941029e-01	4.117854e-01	5.440812e-01	6.893080e-01	8.417669e-01	9.897744e-01	1.105078e+00	1.168556e+00	1.134276e+00	1.037683e+00	9.490578e-01	7.344028e-01	3.618168e-01	5.854211e-02	-1.794038e-01	-3.560912e-01	-4.786820e-01	-5.607275e-01	-6.166914e-01	-6.552282e-01	-6.817669e-01	-6.998613e-01	-7.115147e-01	-7.190049e-01	-7.235122e-01	-7.251635e-01	-7.242769e-01	-7.215463e-01	-7.179768e-01	-7.145885e-01	-7.115219e-01	-7.078801e-01	-7.027248e-01	-6.962653e-01	-6.897162e-01	-6.839246e-01	-6.787776e-01	-6.738391e-01	-6.687638e-01	-6.632523e-01	-6.570949e-01	-6.502732e-01	-6.429581e-01	-6.353932e-01	-6.277550e-01	-6.202139e-01	-6.126989e-01	-6.043569e-01	-5.927556e-01	-5.745048e-01	-5.483726e-01	-5.193976e-01	-4.971683e-01	-4.878552e-01	-4.907470e-01	-5.006297e-01	-5.113347e-01	-5.177691e-01	-5.162970e-01	-5.050286e-01	-4.852469e-01	-4.612431e-01	-4.379699e-01	-4.176378e-01	-3.994556e-01	-3.817730e-01	-3.633825e-01	-3.436638e-01	-3.224380e-01	-2.999413e-01	-2.764494e-01	-2.521386e-01	-2.271071e-01	-2.014023e-01	-1.751460e-01	-1.483825e-01	-1.212465e-01	-9.380706e-02	-6.623257e-02	-3.858377e-02	-1.109686e-02	1.599409e-02	4.244600e-02	6.799141e-02	9.246464e-02	1.157843e-01	1.381022e-01	1.599773e-01	1.822877e-01	2.062800e-01	2.329782e-01	2.626805e-01	2.941407e-01	3.244447e-01	3.493756e-01	3.644520e-01	3.661030e-01	3.532495e-01	3.285739e-01	2.993076e-01	2.756988e-01	2.674944e-01	2.806154e-01	3.143384e-01	3.626757e-01	4.196490e-01	4.814541e-01	5.492403e-01	6.288489e-01	6.232351e-01	
SCALARS Mach float 1
LOOKUP_TABLE default
4.934392e-01	5.208758e-01	5.394991e-01	5.512350e-01	5.589861e-01	5.666059e-01	5.771786e-01	5.937392e-01	6.180639e-01	6.501011e-01	6.879147e-01	7.273874e-01	7.623757e-01	7.873306e-01	8.002911e-01	8.035526e-01	8.017972e-01	7.994189e-01	7.991271e-01	8.018009e-01	8.071463e-01	8.143183e-01	8.224237e-01	8.307673e-01	8.389302e-01	8.467620e-01	8.542770e-01	8.615702e-01	8.687170e-01	8.757785e-01	8.828045e-01	8.898318e-01	8.969138e-01	9.040287e-01	9.111007e-01	9.180574e-01	9.248861e-01	9.315564e-01	9.380580e-01	9.443810e-01	9.504965e-01	9.564228e-01	9.621439e-01	9.676720e-01	9.729413e-01	9.779247e-01	9.826059e-01	9.871325e-01	9.916672e-01	9.962701e-01	1.000580e+00	1.004102e+00	1.006592e+00	1.008455e+00	1.010631e+00	1.014321e+00	1.020431e+00	1.029041e+00	1.038951e+00	1.048166e+00	1.055108e+00	1.059277e+00	1.061101e+00	1.061227e+00	1.060236e+00	1.058390e+00	1.055843e+00	1.052670e+00	1.049051e+00	1.045086e+00	1.040756e+00	1.035742e+00	1.029713e+00	1.022560e+00	1.014493e+00	1.005633e+00	9.959892e-01	9.852896e-01	9.733146e-01	9.600141e-01	9.453444e-01	9.291391e-01	9.112223e-01	8.913625e-01	8.692410e-01	8.443736e-01	8.163090e-01	7.845401e-01	7.482194e-01	7.064765e-01	6.582850e-01	6.022698e-01	5.368958e-01	4.606888e-01	3.715971e-01	2.686167e-01	1.532339e-01	2.527203e-02	1.076046e-01	2.094846e-01	3.066455e-01	4.521046e-01	6.147886e-01	7.488731e-01	8.566902e-01	9.411303e-01	1.003588e+00	1.047660e+00	1.078563e+00	1.100213e+00	1.115342e+00	1.125603e+00	1.132295e+00	1.136646e+00	1.139303e+00	1.140435e+00	1.140126e+00	1.138765e+00	1.136984e+00	1.135308e+00	1.133840e+00	1.132121e+00	1.129589e+00	1.126279e+00	1.122908e+00	1.119943e+00	1.117350e+00	1.114870e+00	1.112341e+00	1.109583e+00	1.106504e+00	1.103079e+00	1.099410e+00	1.095612e+00	1.091790e+00	1.088032e+00	1.084339e+00	1.080297e+00	1.074692e+00	1.065741e+00	1.052774e+00	1.038248e+00	1.027053e+00	1.022314e+00	1.023675e+00	1.028630e+00	1.034119e+00	1.037585e+00	1.037100e+00	1.031764e+00	1.022188e+00	1.010530e+00	9.992439e-01	9.894847e-01	9.808748e-01	9.725667e-01	9.639785e-01	9.547630e-01	9.448712e-01	9.344040e-01	9.235136e-01	9.122777e-01	9.007475e-01	8.889453e-01	8.769213e-01	8.646992e-01	8.523272e-01	8.398636e-01	8.273113e-01	8.147714e-01	8.023175e-01	7.900250e-01	7.780421e-01	7.664733e-01	7.553916e-01	7.448288e-01	7.346931e-01	7.247370e-01	7.145077e-01	7.034536e-01	6.910532e-01	6.772054e-01	6.624946e-01	6.483655e-01	6.368837e-01	6.302082e-01	6.299445e-01	6.364106e-01	6.481324e-01	6.616628e-01	6.721895e-01	6.752915e-01	6.684338e-01	6.523886e-01	6.293591e-01	6.021097e-01	5.716598e-01	5.373548e-01	4.978490e-01	4.554027e-01	