TITLE = "Visualization of the volumetric solution"
VARIABLES = "x""y""Conservative_1""Conservative_2""Conservative_3""Conservative_4""Pressure""Temperature""C<sub>p</sub>""Mach"
ZONE NODES= 5233, ELEMENTS= 10216, DATAPACKING=POINT, ZONETYPE=FEQUADRILATERAL
9.997500e-01	-3.633245e-05	1.199854e+00	7.195047e-01	1.010168e-01	3.446460e+00	1.290591e+00	1.075623e+00	6.486413e-01	4.934574e-01	
9.990000e-01	-1.454738e-04	1.181660e+00	7.458330e-01	1.066587e-01	3.400925e+00	1.264295e+00	1.069931e+00	5.899435e-01	5.209585e-01	
9.977600e-01	-3.275234e-04	1.171277e+00	7.638654e-01	1.128598e-01	3.375738e+00	1.248487e+00	1.065920e+00	5.546587e-01	5.396601e-01	
9.960200e-01	-5.900137e-04	1.164884e+00	7.746072e-01	1.197786e-01	3.360334e+00	1.238653e+00	1.063327e+00	5.327076e-01	5.514834e-01	
9.937800e-01	-9.474081e-04	1.160358e+00	7.804262e-01	1.302397e-01	3.349300e+00	1.231817e+00	1.061584e+00	5.174497e-01	5.593241e-01	
9.910500e-01	-1.422965e-03	1.155932e+00	7.851328e-01	1.449334e-01	3.338526e+00	1.225120e+00	1.059855e+00	5.025007e-01	5.670218e-01	
9.878400e-01	-2.047502e-03	1.149073e+00	7.908872e-01	1.635109e-01	3.321491e+00	1.215072e+00	1.057437e+00	4.800719e-01	5.776494e-01	
9.841300e-01	-2.857593e-03	1.138158e+00	8.005266e-01	1.840500e-01	3.294311e+00	1.199161e+00	1.053598e+00	4.445569e-01	5.942330e-01	
9.799500e-01	-3.865719e-03	1.121953e+00	8.155465e-01	2.033891e-01	3.253880e+00	1.175614e+00	1.047828e+00	3.919949e-01	6.185393e-01	
9.752800e-01	-5.069086e-03	1.100542e+00	8.360035e-01	2.175873e-01	3.200414e+00	1.144551e+00	1.039988e+00	3.226594e-01	6.505130e-01	
9.701500e-01	-6.420693e-03	1.075167e+00	8.601784e-01	2.234429e-01	3.136933e+00	1.107850e+00	1.030398e+00	2.407373e-01	6.882167e-01	
9.645400e-01	-7.861770e-03	1.048441e+00	8.847303e-01	2.193654e-01	3.069830e+00	1.069436e+00	1.020025e+00	1.549907e-01	7.275335e-01	
9.584700e-01	-9.316583e-03	1.024743e+00	9.059927e-01	2.063136e-01	3.010154e+00	1.035554e+00	1.010549e+00	7.936050e-02	7.623339e-01	
9.519400e-01	-1.072946e-02	1.008098e+00	9.215672e-01	1.880935e-01	2.968216e+00	1.011775e+00	1.003648e+00	2.628289e-02	7.871042e-01	
9.449600e-01	-1.207226e-02	9.996528e-01	9.308578e-01	1.694545e-01	2.946968e+00	9.996829e-01	1.000030e+00	-7.078235e-04	7.999134e-01	
9.375400e-01	-1.334936e-02	9.975607e-01	9.348597e-01	1.540856e-01	2.941694e+00	9.966975e-01	9.991347e-01	-7.371630e-03	8.030664e-01	
9.296900e-01	-1.458815e-02	9.986575e-01	9.356350e-01	1.436359e-01	2.944408e+00	9.983135e-01	9.996555e-01	-3.764508e-03	8.012331e-01	
9.214000e-01	-1.582703e-02	1.000093e+00	9.352867e-01	1.378657e-01	2.947947e+00	1.000442e+00	1.000349e+00	9.863659e-04	7.987894e-01	
9.127000e-01	-1.709333e-02	1.000108e+00	9.352805e-01	1.354183e-01	2.947892e+00	1.000558e+00	1.000450e+00	1.246543e-03	7.984326e-01	
9.035800e-01	-1.840810e-02	9.981005e-01	9.362302e-01	1.346550e-01	2.942711e+00	9.978119e-01	9.997108e-01	-4.884102e-03	8.010383e-01	
8.940600e-01	-1.977497e-02	9.942917e-01	9.381895e-01	1.342750e-01	2.932973e+00	9.925120e-01	9.982101e-01	-1.671432e-02	8.063151e-01	
8.841500e-01	-2.118926e-02	9.892427e-01	9.408559e-01	1.335130e-01	2.920088e+00	9.854639e-01	9.961802e-01	-3.244656e-02	8.134233e-01	
8.738500e-01	-2.264271e-02	9.835423e-01	9.438525e-01	1.320840e-01	2.905533e+00	9.775129e-01	9.938697e-01	-5.019447e-02	8.214739e-01	
8.631800e-01	-2.412316e-02	9.776645e-01	9.468882e-01	1.300172e-01	2.890511e+00	9.693300e-01	9.914751e-01	-6.845980e-02	8.297741e-01	
8.521600e-01	-2.561995e-02	9.718880e-01	9.497766e-01	1.274827e-01	2.875723e+00	9.613114e-01	9.891174e-01	-8.635859e-02	8.379047e-01	
8.407700e-01	-2.712991e-02	9.663228e-01	9.524525e-01	1.246814e-01	2.861455e+00	9.536083e-01	9.868424e-01	-1.035529e-01	8.457125e-01	
8.290500e-01	-2.864382e-02	9.609590e-01	9.549117e-01	1.217476e-01	2.847680e+00	9.462066e-01	9.846483e-01	-1.200745e-01	8.532086e-01	
8.170100e-01	-3.015784e-02	9.557486e-01	9.571971e-01	1.187703e-01	2.834284e+00	9.390321e-01	9.825096e-01	-1.360891e-01	8.604845e-01	
8.046400e-01	-3.167118e-02	9.506259e-01	9.593192e-01	1.157749e-01	2.821093e+00	9.319987e-01	9.804054e-01	-1.517886e-01	8.676140e-01	
7.919700e-01	-3.317819e-02	9.455590e-01	9.613108e-01	1.127482e-01	2.808029e+00	9.250580e-01	9.783186e-01	-1.672813e-01	8.746569e-01	
7.790100e-01	-3.467561e-02	9.405318e-01	9.632070e-01	1.096786e-01	2.795060e+00	9.181801e-01	9.762351e-01	-1.826337e-01	8.816625e-01	
7.657800e-01	-3.615882e-02	9.354998e-01	9.650000e-01	1.065449e-01	2.782062e+00	9.113117e-01	9.741442e-01	-1.979649e-01	8.886669e-01	
7.522800e-01	-3.762525e-02	9.304290e-01	9.667043e-01	1.033356e-01	2.768949e+00	9.044053e-01	9.720304e-01	-2.133811e-01	8.957228e-01	
7.385200e-01	-3.907106e-02	9.253361e-01	9.683172e-01	1.000429e-01	2.755764e+00	8.974833e-01	9.698998e-01	-2.288319e-01	9.028098e-01	
7.245300e-01	-4.049036e-02	9.202736e-01	9.698259e-01	9.665266e-02	2.742642e+00	8.906175e-01	9.677747e-01	-2.441574e-01	9.098541e-01	
7.103200e-01	-4.187951e-02	9.152907e-01	9.712184e-01	9.317990e-02	2.729712e+00	8.838750e-01	9.656768e-01	-2.592076e-01	9.167852e-01	
6.958900e-01	-4.323594e-02	9.104064e-01	9.725091e-01	8.962117e-02	2.717027e+00	8.772769e-01	9.636102e-01	-2.739356e-01	9.235916e-01	
6.812700e-01	-4.455445e-02	9.056260e-01	9.736793e-01	8.599523e-02	2.704595e+00	8.708356e-01	9.615842e-01	-2.883133e-01	9.302435e-01	
6.664700e-01	-4.583204e-02	9.009610e-01	9.747388e-01	8.230862e-02	2.692449e+00	8.645643e-01	9.596023e-01	-3.023119e-01	9.367322e-01	
6.515000e-01	-4.706595e-02	8.964289e-01	9.757035e-01	7.857366e-02	2.680640e+00	8.584808e-01	9.576675e-01	-3.158910e-01	9.430491e-01	
6.363800e-01	-4.825286e-02	8.920296e-01	9.765539e-01	7.480376e-02	2.669160e+00	8.525921e-01	9.557889e-01	-3.290356e-01	9.491663e-01	
6.211300e-01	-4.938990e-02	8.877744e-01	9.773255e-01	7.100627e-02	2.658050e+00	8.469023e-01	9.539612e-01	-3.417358e-01	9.551035e-01	
6.057600e-01	-5.047522e-02	8.836462e-01	9.779916e-01	6.719981e-02	2.647256e+00	8.413983e-01	9.521891e-01	-3.540217e-01	9.608463e-01	
5.902800e-01	-5.150721e-02	8.796625e-01	9.785896e-01	6.338627e-02	2.636835e+00	8.360919e-01	9.504690e-01	-3.658663e-01	9.664084e-01	
5.747100e-01	-5.248385e-02	8.758386e-01	9.790870e-01	5.957319e-02	2.626815e+00	8.310144e-01	9.488213e-01	-3.772001e-01	9.717251e-01	
5.590600e-01	-5.340404e-02	8.722258e-01	9.795253e-01	5.575242e-02	2.617346e+00	8.262207e-01	9.472554e-01	-3.879003e-01	9.767682e-01	
5.433600e-01	-5.426570e-02	8.688119e-01	9.798819e-01	5.192796e-02	2.608385e+00	8.217030e-01	9.457779e-01	-3.979843e-01	9.815182e-01	
5.276100e-01	-5.506871e-02	8.655312e-01	9.802091e-01	4.811237e-02	2.599776e+00	8.173595e-01	9.443443e-01	-4.076798e-01	9.861190e-01	
5.118400e-01	-5.581146e-02	8.622362e-01	9.804748e-01	4.432916e-02	2.591120e+00	8.130068e-01	9.429050e-01	-4.173955e-01	9.907307e-01	
4.960500e-01	-5.649395e-02	8.589185e-01	9.807183e-01	4.058285e-02	2.582407e+00	8.086215e-01	9.414414e-01	-4.271843e-01	9.954127e-01	
4.802700e-01	-5.711489e-02	8.557822e-01	9.808807e-01	3.683757e-02	2.574155e+00	8.044917e-01	9.400659e-01	-4.364025e-01	9.998062e-01	
4.645100e-01	-5.767395e-02	8.531852e-01	9.809894e-01	3.303691e-02	2.567312e+00	8.010813e-01	9.389302e-01	-4.440149e-01	1.003429e+00	
4.487800e-01	-5.817070e-02	8.512504e-01	9.810289e-01	2.915816e-02	2.562195e+00	7.985598e-01	9.381021e-01	-4.496433e-01	1.006068e+00	
4.331100e-01	-5.860413e-02	8.496991e-01	9.810545e-01	2.518643e-02	2.558088e+00	7.965426e-01	9.374408e-01	-4.541460e-01	1.008173e+00	
4.175000e-01	-5.897403e-02	8.478672e-01	9.810854e-01	2.115018e-02	2.553250e+00	7.941477e-01	9.366415e-01	-4.594918e-01	1.010716e+00	
4.019700e-01	-5.927958e-02	8.449892e-01	9.811570e-01	1.709205e-02	2.545685e+00	7.903511e-01	9.353387e-01	-4.679662e-01	1.014857e+00	
3.865400e-01	-5.951992e-02	8.405173e-01	9.812016e-01	1.306033e-02	2.533934e+00	7.844463e-01	9.332900e-01	-4.811466e-01	1.021357e+00	
3.712300e-01	-5.969420e-02	8.345308e-01	9.811385e-01	9.050875e-03	2.518190e+00	7.765560e-01	9.305300e-01	-4.987590e-01	1.030095e+00	
3.560400e-01	-5.980164e-02	8.278647e-01	9.808272e-01	4.962363e-03	2.500603e+00	7.678248e-01	9.274762e-01	-5.182483e-01	1.039737e+00	
3.409900e-01	-5.984112e-02	8.218096e-01	9.803272e-01	6.470834e-04	2.484576e+00	7.599461e-01	9.247228e-01	-5.358346e-01	1.048408e+00	
3.261100e-01	-5.981154e-02	8.173294e-01	9.798056e-01	-3.939870e-03	2.472681e+00	7.541527e-01	9.227035e-01	-5.487664e-01	1.054754e+00	
3.114000e-01	-5.971176e-02	8.146700e-01	9.793709e-01	-8.777346e-03	2.465591e+00	7.507436e-01	9.215310e-01	-5.563758e-01	1.058434e+00	
2.968700e-01	-5.954042e-02	8.135722e-01	9.791033e-01	-1.385167e-02	2.462650e+00	7.493502e-01	9.210617e-01	-5.594862e-01	1.059906e+00	
2.825500e-01	-5.929639e-02	8.135912e-01	9.789390e-01	-1.914945e-02	2.462674e+00	7.494014e-01	9.211031e-01	-5.593719e-01	1.059777e+00	
2.684500e-01	-5.897838e-02	8.144014e-01	9.788786e-01	-2.470873e-02	2.464814e+00	7.504608e-01	9.214876e-01	-5.570072e-01	1.058571e+00	
2.545700e-01	-5.858468e-02	8.157924e-01	9.788299e-01	-3.055805e-02	2.468489e+00	7.522767e-01	9.221423e-01	-5.529537e-01	1.056516e+00	
2.409400e-01	-5.811439e-02	8.177088e-01	9.788154e-01	-3.675470e-02	2.473568e+00	7.547641e-01	9.230230e-01	-5.474016e-01	1.053751e+00	
2.275700e-01	-5.756617e-02	8.200631e-01	9.787630e-01	-4.331592e-02	2.479800e+00	7.578273e-01	9.241085e-01	-5.405640e-01	1.050339e+00	
2.144700e-01	-5.693869e-02	8.227679e-01	9.786864e-01	-5.027560e-02	2.486965e+00	7.613410e-01	9.253411e-01	-5.327210e-01	1.046462e+00	
2.016600e-01	-5.623119e-02	8.257127e-01	9.785179e-01	-5.765451e-02	2.494755e+00	7.651767e-01	9.266863e-01	-5.241593e-01	1.042226e+00	
1.891400e-01	-5.544194e-02	8.289246e-01	9.782721e-01	-6.550141e-02	2.503252e+00	7.693601e-01	9.281425e-01	-5.148212e-01	1.037635e+00	
1.769300e-01	-5.457044e-02	8.325763e-01	9.778962e-01	-7.388242e-02	2.512898e+00	7.741316e-01	9.298027e-01	-5.041705e-01	1.032394e+00	
1.650400e-01	-5.361576e-02	8.369191e-01	9.773937e-01	-8.286860e-02	2.524361e+00	7.798140e-01	9.317674e-01	-4.914867e-01	1.026180e+00	
1.534900e-01	-5.257805e-02	8.420153e-01	9.766847e-01	-9.249265e-02	2.537789e+00	7.865052e-01	9.340747e-01	-4.765508e-01	1.018869e+00	
1.422900e-01	-5.145692e-02	8.477806e-01	9.757564e-01	-1.027974e-01	2.552971e+00	7.940853e-01	9.366637e-01	-4.596311e-01	1.010646e+00	
1.314400e-01	-5.025104e-02	8.540668e-01	9.744678e-01	-1.138367e-01	2.569484e+00	8.023905e-01	9.394938e-01	-4.410927e-01	1.001631e+00	
1.209500e-01	-4.896004e-02	8.609441e-01	9.728386e-01	-1.257237e-01	2.587538e+00	8.114882e-01	9.425561e-01	-4.207854e-01	9.918475e-01	
1.108500e-01	-4.758662e-02	8.685963e-01	9.707748e-01	-1.385271e-01	2.607607e+00	8.216297e-01	9.459282e-01	-3.981480e-01	9.810354e-01	
1.011300e-01	-4.612850e-02	8.770808e-01	9.680430e-01	-1.523236e-01	2.629795e+00	8.329393e-01	9.496722e-01	-3.729033e-01	9.689807e-01	
9.181000e-02	-4.458769e-02	8.864374e-01	9.644891e-01	-1.672401e-01	2.654191e+00	8.454832e-01	9.537991e-01	-3.449036e-01	9.556293e-01	
8.290000e-02	-4.296520e-02	8.967786e-01	9.600216e-01	-1.833966e-01	2.681105e+00	8.593960e-01	9.583146e-01	-3.138481e-01	9.409382e-01	
7.440000e-02	-4.126030e-02	9.081644e-01	9.543455e-01	-2.009076e-01	2.710655e+00	8.747979e-01	9.632594e-01	-2.794690e-01	9.247448e-01	
6.633000e-02	-3.947642e-02	9.207487e-01	9.471954e-01	-2.199311e-01	2.743230e+00	8.919052e-01	9.686739e-01	-2.412830e-01	9.068763e-01	
5.869000e-02	-3.761317e-02	9.346508e-01	9.381494e-01	-2.406030e-01	2.779101e+00	9.109206e-01	9.746107e-01	-1.988379e-01	8.871064e-01	
5.149000e-02	-3.567249e-02	9.500636e-01	9.266865e-01	-2.630456e-01	2.818725e+00	9.321470e-01	9.811417e-01	-1.514576e-01	8.651225e-01	
4.474000e-02	-3.365680e-02	9.672681e-01	9.120720e-01	-2.873769e-01	2.862769e+00	9.560264e-01	9.883779e-01	-9.815529e-02	8.404467e-01	
3.844000e-02	-3.156573e-02	9.864947e-01	8.933640e-01	-3.136653e-01	2.911753e+00	9.829495e-01	9.964063e-01	-3.805922e-02	8.126332e-01	
3.260000e-02	-2.940206e-02	1.008105e+00	8.694767e-01	-3.418506e-01	2.966562e+00	1.013458e+00	1.005310e+00	3.004002e-02	7.811789e-01	
2.723000e-02	-2.716944e-02	1.032587e+00	8.388258e-01	-3.715345e-01	3.028354e+00	1.048321e+00	1.015237e+00	1.078589e-01	7.452391e-01	
2.232000e-02	-2.486279e-02	1.060255e+00	7.992483e-01	-4.019647e-01	3.097777e+00	1.088133e+00	1.026294e+00	1.967259e-01	7.039407e-01	
1.790000e-02	-2.249613e-02	1.091636e+00	7.482506e-01	-4.316328e-01	3.176080e+00	1.133722e+00	1.038554e+00	2.984874e-01	6.562468e-01	
1.395000e-02	-2.005863e-02	1.127186e+00	6.827929e-01	-4.573825e-01	3.264280e+00	1.185873e+00	1.052065e+00	4.148947e-01	6.007605e-01	
1.049000e-02	-1.756164e-02	1.166726e+00	5.992447e-01	-4.740808e-01	3.361673e+00	1.244586e+00	1.066734e+00	5.459517e-01	5.359058e-01	
7.520000e-03	-1.500620e-02	1.209767e+00	4.954849e-01	-4.732689e-01	3.467001e+00	1.309184e+00	1.082179e+00	6.901426e-01	4.601479e-01	
5.040000e-03	-1.239267e-02	1.254572e+00	3.716762e-01	-4.420483e-01	3.575892e+00	1.377183e+00	1.097732e+00	8.419273e-01	3.713409e-01	
3.050000e-03	-9.719794e-03	1.298080e+00	2.357133e-01	-3.651673e-01	3.681396e+00	1.443452e+00	1.111990e+00	9.898493e-01	2.683546e-01	
1.560000e-03	-7.003383e-03	1.331724e+00	1.070794e-01	-2.312152e-01	3.762448e+00	1.495229e+00	1.122776e+00	1.105421e+00	1.526110e-01	
5.600000e-04	-4.222988e-03	1.350866e+00	1.098017e-02	-3.905746e-02	3.809637e+00	1.523611e+00	1.127877e+00	1.168774e+00	2.390090e-02	
6.000000e-05	-1.387761e-03	1.339717e+00	-2.128815e-02	1.839196e-01	3.781677e+00	1.507553e+00	1.125278e+00	1.132931e+00	1.101060e-01	
0.000000e+00	0.000000e+00	1.308843e+00	5.240071e-03	3.491617e-01	3.704268e+00	1.463074e+00	1.117837e+00	1.033647e+00	2.132723e-01	
6.000000e-05	1.267558e-03	1.285215e+00	7.231616e-02	4.931536e-01	3.651941e+00	1.422117e+00	1.106520e+00	9.422250e-01	3.115893e-01	
5.600000e-04	3.641682e-03	1.222822e+00	2.084450e-01	6.580973e-01	3.504050e+00	1.323679e+00	1.082478e+00	7.224971e-01	4.585781e-01	
1.560000e-03	5.820106e-03	1.102298e+00	4.103151e-01	7.225304e-01	3.197974e+00	1.153922e+00	1.046833e+00	3.435768e-01	6.226604e-01	
3.050000e-03	7.852840e-03	1.005233e+00	5.871198e-01	6.894732e-01	2.951317e+00	1.017364e+00	1.012068e+00	3.875848e-02	7.568214e-01	
5.040000e-03	9.784277e-03	9.289876e-01	7.128748e-01	6.135682e-01	2.755799e+00	9.118638e-01	9.815672e-01	-1.967327e-01	8.636810e-01	
7.520000e-03	1.162170e-02	8.726336e-01	7.952240e-01	5.302617e-01	2.610397e+00	8.347792e-01	9.566205e-01	-3.687965e-01	9.464604e-01	
1.049000e-02	1.337991e-02	8.339293e-01	8.474150e-01	4.556151e-01	2.510271e+00	7.820999e-01	9.378491e-01	-4.863842e-01	1.006873e+00	
1.395000e-02	1.506931e-02	8.082954e-01	8.807186e-01	3.934793e-01	2.443859e+00	7.473083e-01	9.245485e-01	-5.640439e-01	1.048956e+00	
1.790000e-02	1.669780e-02	7.909303e-01	9.022222e-01	3.428755e-01	2.398695e+00	7.239152e-01	9.152705e-01	-6.162607e-01	1.078029e+00	
2.232000e-02	1.826497e-02	7.790866e-01	9.166809e-01	3.014768e-01	2.367784e+00	7.080666e-01	9.088419e-01	-6.516371e-01	1.098059e+00	
2.723000e-02	1.978406e-02	7.710596e-01	9.267805e-01	2.675711e-01	2.346800e+00	6.973597e-01	9.044174e-01	-6.755364e-01	1.111797e+00	
3.260000e-02	2.125097e-02	7.656682e-01	9.339667e-01	2.393731e-01	2.332638e+00	6.902365e-01	9.014825e-01	-6.914364e-01	1.120890e+00	
3.844000e-02	2.267350e-02	7.623430e-01	9.394343e-01	2.157022e-01	2.323919e+00	6.858282e-01	8.996321e-01	-7.012763e-01	1.126616e+00	
4.474000e-02	2.405309e-02	7.603351e-01	9.436984e-01	1.955978e-01	2.318671e+00	6.831484e-01	8.984834e-01	-7.072579e-01	1.130168e+00	
5.149000e-02	2.539121e-02	7.592621e-01	9.471112e-01	1.783158e-01	2.315890e+00	6.816931e-01	8.978364e-01	-7.105064e-01	1.132167e+00	
5.869000e-02	2.669097e-02	7.591165e-01	9.500356e-01	1.633353e-01	2.315594e+00	6.814144e-01	8.976415e-01	-7.111285e-01	1.132769e+00	
6.633000e-02	2.795320e-02	7.597659e-01	9.525365e-01	1.502664e-01	2.317400e+00	6.821724e-01	8.978719e-01	-7.094367e-01	1.132058e+00	
7.440000e-02	2.917863e-02	7.609695e-01	9.547004e-01	1.387529e-01	2.320668e+00	6.836566e-01	8.984021e-01	-7.061236e-01	1.130419e+00	
8.290000e-02	3.036926e-02	7.624020e-01	9.566245e-01	1.285372e-01	2.324556e+00	6.854233e-01	8.990314e-01	-7.021801e-01	1.128474e+00	
9.181000e-02	3.152406e-02	7.637263e-01	9.582837e-01	1.193449e-01	2.328156e+00	6.870517e-01	8.996047e-01	-6.985452e-01	1.126701e+00	
1.011300e-01	3.264462e-02	7.649463e-01	9.597616e-01	1.109720e-01	2.331488e+00	6.885369e-01	9.001114e-01	-6.952301e-01	1.125134e+00	
1.108500e-01	3.373094e-02	7.663856e-01	9.611757e-01	1.033466e-01	2.335421e+00	6.902860e-01	9.007033e-01	-6.913258e-01	1.123302e+00	
1.209500e-01	3.478196e-02	7.683130e-01	9.625452e-01	9.641956e-02	2.340652e+00	6.926646e-01	9.015397e-01	-6.860164e-01	1.120713e+00	
1.314400e-01	3.579956e-02	7.705881e-01	9.637822e-01	9.009932e-02	2.346777e+00	6.955214e-01	9.025853e-01	-6.796396e-01	1.117475e+00	
1.422900e-01	3.678151e-02	7.728077e-01	9.648880e-01	8.425580e-02	2.352743e+00	6.983182e-01	9.036118e-01	-6.733970e-01	1.114295e+00	
1.534900e-01	3.772755e-02	7.747297e-01	9.658566e-01	7.873887e-02	2.357912e+00	7.007374e-01	9.044928e-01	-6.679969e-01	1.111563e+00	
1.650400e-01	3.863808e-02	7.764377e-01	9.667442e-01	7.351995e-02	2.362517e+00	7.028756e-01	9.052569e-01	-6.632241e-01	1.109193e+00	
1.769300e-01	3.951242e-02	7.780782e-01	9.675568e-01	6.857372e-02	2.366938e+00	7.049312e-01	9.059901e-01	-6.586357e-01	1.106918e+00	
1.891400e-01	4.034912e-02	7.797584e-01	9.683390e-01	6.389209e-02	2.371468e+00	7.070348e-01	9.067358e-01	-6.539401e-01	1.104603e+00	
2.016600e-01	4.114738e-02	7.815525e-01	9.690875e-01	5.942508e-02	2.376296e+00	7.092903e-01	9.075402e-01	-6.489056e-01	1.102105e+00	
2.144700e-01	4.190572e-02	7.835196e-01	9.698360e-01	5.514078e-02	2.381586e+00	7.117667e-01	9.084223e-01	-6.433780e-01	1.099364e+00	
2.275700e-01	4.262372e-02	7.856450e-01	9.705633e-01	5.100724e-02	2.387291e+00	7.144527e-01	9.093837e-01	-6.373823e-01	1.096374e+00	
2.409400e-01	4.329966e-02	7.878574e-01	9.712735e-01	4.699251e-02	2.393226e+00	7.172520e-01	9.103830e-01	-6.311339e-01	1.093265e+00	
2.545700e-01	4.393231e-02	7.900592e-01	9.719351e-01	4.305858e-02	2.399126e+00	7.200450e-01	9.113811e-01	-6.248995e-01	1.090158e+00	
2.684500e-01	4.452024e-02	7.922127e-01	9.725627e-01	3.918099e-02	2.404896e+00	7.227768e-01	9.123520e-01	-6.188017e-01	1.087133e+00	
2.825500e-01	4.506116e-02	7.942991e-01	9.731408e-01	3.534104e-02	2.410482e+00	7.254283e-01	9.132936e-01	-6.128834e-01	1.084198e+00	
2.968700e-01	4.555388e-02	7.963107e-01	9.736825e-01	3.152582e-02	2.415867e+00	7.279848e-01	9.141969e-01	-6.071768e-01	1.081380e+00	
3.114000e-01	4.599663e-02	7.982006e-01	9.741766e-01	2.771276e-02	2.420925e+00	7.303879e-01	9.150430e-01	-6.018128e-01	1.078739e+00	
3.261100e-01	4.638697e-02	7.999769e-01	9.746442e-01	2.386821e-02	2.425684e+00	7.326416e-01	9.158285e-01	-5.967821e-01	1.076286e+00	
3.409900e-01	4.672303e-02	8.017971e-01	9.751114e-01	1.996505e-02	2.430564e+00	7.349483e-01	9.166264e-01	-5.916332e-01	1.073793e+00	
3.560400e-01	4.700294e-02	8.040082e-01	9.756535e-01	1.600792e-02	2.436496e+00	7.377459e-01	9.175852e-01	-5.853885e-01	1.070795e+00	
3.712300e-01	4.722417e-02	8.069646e-01	9.762575e-01	1.201259e-02	2.444402e+00	7.415117e-01	9.188900e-01	-5.769829e-01	1.066712e+00	
3.865400e-01	4.738445e-02	8.108617e-01	9.769175e-01	7.995163e-03	2.454794e+00	7.465058e-01	9.206327e-01	-5.658352e-01	1.061252e+00	
4.019700e-01	4.748165e-02	8.155591e-01	9.775565e-01	3.947373e-03	2.467282e+00	7.525627e-01	9.227568e-01	-5.523153e-01	1.054587e+00	
4.175000e-01	4.751337e-02	8.206014e-01	9.780917e-01	-1.590714e-04	2.480653e+00	7.590996e-01	9.250527e-01	-5.377242e-01	1.047370e+00	
4.331100e-01	4.747730e-02	8.253730e-01	9.784826e-01	-4.383075e-03	2.493281e+00	7.653090e-01	9.272280e-01	-5.238639e-01	1.040519e+00	
4.487800e-01	4.737126e-02	8.294201e-01	9.787486e-01	-8.786028e-03	2.503985e+00	7.705831e-01	9.290625e-01	-5.120913e-01	1.034731e+00	
4.645100e-01	4.719294e-02	8.327616e-01	9.789751e-01	-1.337345e-02	2.512840e+00	7.749210e-01	9.305436e-01	-5.024086e-01	1.030052e+00	
4.802700e-01	4.694043e-02	8.358024e-01	9.791529e-01	-1.811506e-02	2.520902e+00	7.788642e-01	9.318760e-01	-4.936067e-01	1.025836e+00	
4.960500e-01	4.661176e-02	8.391192e-01	9.793291e-01	-2.295843e-02	2.529700e+00	7.831609e-01	9.333131e-01	-4.840159e-01	1.021284e+00	
5.118400e-01	4.620506e-02	8.430902e-01	9.794599e-01	-2.787255e-02	2.540214e+00	7.883240e-01	9.350411e-01	-4.724911e-01	1.015802e+00	
5.276100e-01	4.571926e-02	8.478604e-01	9.795235e-01	-3.287532e-02	2.552823e+00	7.945479e-01	9.371211e-01	-4.585984e-01	1.009190e+00	
5.433600e-01	4.515271e-02	8.533614e-01	9.794551e-01	-3.795673e-02	2.567331e+00	8.017586e-01	9.395299e-01	-4.425032e-01	1.001516e+00	
5.590600e-01	4.450511e-02	8.594584e-01	9.792394e-01	-4.314040e-02	2.583383e+00	8.097773e-01	9.421949e-01	-4.246041e-01	9.930032e-01	
5.747100e-01	4.377538e-02	8.659108e-01	9.788327e-01	-4.839948e-02	2.600337e+00	8.182976e-01	9.450138e-01	-4.055857e-01	9.839715e-01	
5.902800e-01	4.296419e-02	8.724831e-01	9.782395e-01	-5.374301e-02	2.617577e+00	8.270056e-01	9.478757e-01	-3.861482e-01	9.747716e-01	
6.057600e-01	4.207187e-02	8.790949e-01	9.774960e-01	-5.915840e-02	2.634903e+00	8.357827e-01	9.507309e-01	-3.665565e-01	9.655623e-01	
6.211300e-01	4.109981e-02	8.858708e-01	9.765389e-01	-6.460919e-02	2.652626e+00	8.448107e-01	9.536500e-01	-3.464047e-01	9.561128e-01	
6.363800e-01	4.004943e-02	8.930113e-01	9.753587e-01	-7.003975e-02	2.671276e+00	8.543518e-01	9.567089e-01	-3.251076e-01	9.461726e-01	
6.515000e-01	3.892268e-02	9.005446e-01	9.738978e-01	-7.541635e-02	2.690913e+00	8.644568e-01	9.599267e-01	-3.025519e-01	9.356714e-01	
6.664700e-01	3.772293e-02	9.083984e-01	9.721564e-01	-8.070443e-02	2.711349e+00	8.750277e-01	9.632642e-01	-2.789561e-01	9.247289e-01	
6.812700e-01	3.645437e-02	9.164862e-01	9.701126e-01	-8.589055e-02	2.732352e+00	8.859554e-01	9.666872e-01	-2.545638e-01	9.134500e-01	
6.958900e-01	3.512115e-02	9.247673e-01	9.677689e-01	-9.091428e-02	2.753816e+00	8.971850e-01	9.701738e-01	-2.294978e-01	9.018999e-01	
7.103200e-01	3.372806e-02	9.332334e-01	9.651097e-01	-9.574625e-02	2.775718e+00	9.087076e-01	9.737196e-01	-2.037777e-01	8.900864e-01	
7.245300e-01	3.228262e-02	9.418515e-01	9.621286e-01	-1.003176e-01	2.797968e+00	9.204819e-01	9.773111e-01	-1.774957e-01	8.780479e-01	
7.385200e-01	3.079016e-02	9.506072e-01	9.588214e-01	-1.046050e-01	2.820529e+00	9.324883e-01	9.809397e-01	-1.506957e-01	8.658062e-01	
7.522800e-01	2.925757e-02	9.594500e-01	9.551855e-01	-1.085380e-01	2.843266e+00	9.446629e-01	9.845879e-01	-1.235203e-01	8.534144e-01	
7.657800e-01	2.769473e-02	9.683637e-01	9.512617e-01	-1.120817e-01	2.866148e+00	9.569724e-01	9.882366e-01	-9.604369e-02	8.409320e-01	
7.790100e-01	2.610997e-02	9.772742e-01	9.469830e-01	-1.151804e-01	2.888958e+00	9.693420e-01	9.918833e-01	-6.843307e-02	8.283623e-01	
7.919700e-01	2.451091e-02	9.861846e-01	9.424610e-01	-1.177901e-01	2.911734e+00	9.817445e-01	9.954977e-01	-4.074885e-02	8.158056e-01	
8.046400e-01	2.290804e-02	9.950117e-01	9.377020e-01	-1.198694e-01	2.934253e+00	9.940745e-01	9.990581e-01	-1.322653e-02	8.033357e-01	
8.170100e-01	2.131099e-02	1.003675e+00	9.327244e-01	-1.213839e-01	2.956303e+00	1.006227e+00	1.002543e+00	1.390011e-02	7.910275e-01	
8.290500e-01	1.973209e-02	1.012111e+00	9.276444e-01	-1.223341e-01	2.977743e+00	1.018094e+00	1.005912e+00	4.038931e-02	7.790285e-01	
8.407700e-01	1.817814e-02	1.020236e+00	9.225174e-01	-1.227451e-01	2.998357e+00	1.029558e+00	1.009137e+00	6.597697e-02	7.674419e-01	
8.521600e-01	1.665757e-02	1.028002e+00	9.173987e-01	-1.226897e-01	3.018030e+00	1.040544e+00	1.012201e+00	9.050097e-02	7.563386e-01	
8.631800e-01	1.518121e-02	1.035387e+00	9.123151e-01	-1.223140e-01	3.036711e+00	1.051020e+00	1.015099e+00	1.138838e-01	7.457487e-01	
8.738500e-01	1.374952e-02	1.042437e+00	9.072106e-01	-1.217943e-01	3.054512e+00	1.061053e+00	1.017858e+00	1.362800e-01	7.355791e-01	
8.841500e-01	1.236570e-02	1.049333e+00	9.019618e-01	-1.213098e-01	3.071894e+00	1.070895e+00	1.020548e+00	1.582478e-01	7.255828e-01	
8.940600e-01	1.103086e-02	1.056335e+00	8.962740e-01	-1.209336e-01	3.089496e+00	1.080936e+00	1.023289e+00	1.806609e-01	7.153092e-01	
9.035800e-01	9.743247e-03	1.063834e+00	8.898480e-01	-1.205015e-01	3.108310e+00	1.091731e+00	1.026223e+00	2.047563e-01	7.042113e-01	
9.127000e-01	8.505515e-03	1.072132e+00	8.823449e-01	-1.194783e-01	3.129066e+00	1.103733e+00	1.029475e+00	2.315462e-01	6.917734e-01	
9.214000e-01	7.328595e-03	1.081324e+00	8.737563e-01	-1.169619e-01	3.152021e+00	1.117071e+00	1.033059e+00	2.613203e-01	6.778980e-01	
9.296900e-01	6.229133e-03	1.091029e+00	8.645101e-01	-1.118264e-01	3.176216e+00	1.131190e+00	1.036810e+00	2.928350e-01	6.631677e-01	
9.375400e-01	5.238238e-03	1.100378e+00	8.556971e-01	-1.031802e-01	3.199527e+00	1.144791e+00	1.040361e+00	3.231941e-01	6.490175e-01	
9.449600e-01	4.385260e-03	1.108113e+00	8.488691e-01	-9.083086e-02	3.218857e+00	1.155999e+00	1.043213e+00	3.482114e-01	6.374968e-01	
9.519400e-01	3.695266e-03	1.112889e+00	8.456050e-01	-7.570542e-02	3.230888e+00	1.162822e+00	1.044868e+00	3.634430e-01	6.307458e-01	
9.584700e-01	3.174373e-03	1.113607e+00	8.469240e-01	-5.998153e-02	3.232865e+00	1.163679e+00	1.044964e+00	3.653543e-01	6.303538e-01	
9.645400e-01	2.802190e-03	1.109896e+00	8.527323e-01	-4.676900e-02	3.223800e+00	1.158095e+00	1.043426e+00	3.528905e-01	6.366308e-01	
9.701500e-01	2.533461e-03	1.102522e+00	8.615619e-01	-3.934072e-02	3.205510e+00	1.147270e+00	1.040587e+00	3.287284e-01	6.481094e-01	
9.752800e-01	2.311877e-03	1.093663e+00	8.707265e-01	-3.992351e-02	3.183389e+00	1.134417e+00	1.037264e+00	3.000390e-01	6.613715e-01	
9.799500e-01	2.084805e-03	1.086427e+00	8.768892e-01	-4.861785e-02	3.165162e+00	1.124077e+00	1.034654e+00	2.769569e-01	6.716591e-01	
9.841300e-01	1.822272e-03	1.083816e+00	8.773811e-01	-6.317055e-02	3.158370e+00	1.120558e+00	1.033901e+00	2.691033e-01	6.746089e-01	
9.878400e-01	1.517485e-03	1.087692e+00	8.708843e-01	-7.973742e-02	3.167756e+00	1.126475e+00	1.035656e+00	2.823095e-01	6.677218e-01	
9.910500e-01	1.189141e-03	1.097944e+00	8.581409e-01	-9.455143e-02	3.193197e+00	1.141508e+00	1.039678e+00	3.158652e-01	6.517567e-01	
9.937800e-01	8.626388e-04	1.112593e+00	8.399002e-01	-1.048657e-01	3.229518e+00	1.163022e+00	1.045326e+00	3.638876e-01	6.288696e-01	
9.960200e-01	5.665204e-04	1.129839e+00	8.177291e-01	-1.097547e-01	3.272235e+00	1.188394e+00	1.051826e+00	4.205227e-01	6.017747e-01	
9.977600e-01	3.231687e-04	1.148372e+00	7.913566e-01	-1.102763e-01	3.317844e+00	1.215953e+00	1.058850e+00	4.820385e-01	5.714586e-01	
9.990000e-01	1.450765e-04	1.168582e+00	7.597537e-01	-1.062029e-01	3.367364e+00	1.246224e+00	1.066441e+00	5.496077e-01	5.372585e-01	
9.997500e-01	3.632616e-05	1.192695e+00	7.213765e-01	-1.003415e-01	3.426954e+00	1.281831e+00	1.074735e+00	6.290875e-01	4.978278e-01	
1.000000e+00	0.000000e+00	1.181130e+00	6.623457e-01	2.588252e-03	3.383867e+00	1.279261e+00	1.083082e+00	6.233496e-01	4.554027e-01	
1.984229e+01	2.506660e+00	9.999768e-01	9.463570e-01	2.027201e-02	2.947955e+00	9.999775e-01	1.000001e+00	-5.011814e-05	8.000193e-01	
1.937166e+01	4.973800e+00	9.999708e-01	9.463944e-01	2.026334e-02	2.947947e+00	9.999589e-01	9.999881e-01	-9.165818e-05	8.000607e-01	
1.859553e+01	7.362490e+00	9.999550e-01	9.464101e-01	2.025587e-02	2.947911e+00	9.999357e-01	9.999807e-01	-1.436155e-04	8.000895e-01	
1.752613e+01	9.635070e+00	9.999319e-01	9.464224e-01	2.024208e-02	2.947856e+00	9.999053e-01	9.999734e-01	-2.113333e-04	8.001210e-01	
1.618034e+01	1.175571e+01	9.999087e-01	9.464438e-01	2.021960e-02	2.947806e+00	9.998731e-01	9.999644e-01	-2.832439e-04	8.001608e-01	
1.457937e+01	1.369094e+01	9.998817e-01	9.464667e-01	2.020028e-02	2.947740e+00	9.998335e-01	9.999518e-01	-3.717457e-04	8.002065e-01	
1.274848e+01	1.541027e+01	9.998433e-01	9.464734e-01	2.017584e-02	2.947628e+00	9.997795e-01	9.999362e-01	-4.922487e-04	8.002487e-01	
1.071654e+01	1.688656e+01	9.997895e-01	9.464699e-01	2.014888e-02	2.947464e+00	9.997055e-01	9.999161e-01	-6.572785e-04	8.002964e-01	
8.515590e+00	1.809654e+01	9.997282e-01	9.464553e-01	2.012667e-02	2.947266e+00	9.996212e-01	9.998929e-01	-8.456459e-04	8.003419e-01	
6.180340e+00	1.902113e+01	9.996772e-01	9.464450e-01	2.010412e-02	2.947101e+00	9.995500e-01	9.998728e-01	-1.004406e-03	8.003817e-01	
3.747630e+00	1.964575e+01	9.996434e-01	9.464343e-01	2.013260e-02	2.946980e+00	9.994992e-01	9.998558e-01	-1.117778e-03	8.004071e-01	
1.255810e+00	1.996053e+01	9.996545e-01	9.464090e-01	2.021297e-02	2.946993e+00	9.995155e-01	9.998609e-01	-1.081453e-03	8.003762e-01	
-1.255810e+00	1.996053e+01	9.997080e-01	9.463397e-01	2.031965e-02	2.947096e+00	9.995918e-01	9.998838e-01	-9.111497e-04	8.002675e-01	
-3.747630e+00	1.964574e+01	9.998165e-01	9.463089e-01	2.044298e-02	2.947402e+00	9.997441e-01	9.999276e-01	-5.711418e-04	8.001394e-01	
-6.180340e+00	1.902113e+01	9.999097e-01	9.463231e-01	2.054568e-02	2.947702e+00	9.998748e-01	9.999652e-01	-2.793902e-04	8.000637e-01	
-8.515590e+00	1.809654e+01	9.999848e-01	9.463643e-01	2.063282e-02	2.947967e+00	9.999779e-01	9.999931e-01	-4.936066e-05	8.000288e-01	
-1.071654e+01	1.688656e+01	1.000026e+00	9.463607e-01	2.067064e-02	2.948093e+00	1.000037e+00	1.000011e+00	8.218631e-05	7.999865e-01	
-1.274848e+01	1.541026e+01	1.000051e+00	9.463570e-01	2.069262e-02	2.948165e+00	1.000071e+00	1.000021e+00	1.590882e-04	7.999600e-01	
-1.457937e+01	1.369094e+01	1.000065e+00	9.463529e-01	2.069922e-02	2.948204e+00	1.000091e+00	1.000026e+00	2.028228e-04	7.999432e-01	
-1.618034e+01	1.175570e+01	1.000071e+00	9.463459e-01	2.069694e-02	2.948216e+00	1.000099e+00	1.000028e+00	2.212948e-04	7.999316e-01	
-1.752613e+01	9.635070e+00	1.000073e+00	9.463405e-01	2.069074e-02	2.948218e+00	1.000103e+00	1.000029e+00	2.294794e-04	7.999243e-01	
-1.859553e+01	7.362490e+00	1.000074e+00	9.463362e-01	2.068223e-02	2.948216e+00	1.000104e+00	1.000030e+00	2.315391e-04	7.999200e-01	
-1.937166e+01	4.973800e+00	1.000074e+00	9.463328e-01	2.067209e-02	2.948214e+00	1.000104e+00	1.000030e+00	2.324663e-04	7.999166e-01	
-1.984229e+01	2.506660e+00	1.000076e+00	9.463302e-01	2.066100e-02	2.948216e+00	1.000106e+00	1.000030e+00	2.375038e-04	7.999126e-01	