# vtk DataFile Version 3.0
vtk output
ASCII
DATASET UNSTRUCTURED_GRID
POINTS 5233 float
9.997500e-01	-3.633243e-05	0.0	9.990000e-01	-1.454723e-04	0.0	9.977600e-01	-3.275073e-04	0.0	9.960200e-01	-5.899266e-04	0.0	9.937800e-01	-9.470929e-04	0.0	9.910500e-01	-1.422091e-03	0.0	9.878400e-01	-2.045505e-03	0.0	9.841300e-01	-2.853652e-03	0.0	9.799500e-01	-3.858845e-03	0.0	9.752800e-01	-5.058243e-03	0.0	9.701500e-01	-6.405031e-03	0.0	9.645400e-01	-7.840737e-03	0.0	9.584700e-01	-9.290025e-03	0.0	9.519400e-01	-1.069754e-02	0.0	9.449600e-01	-1.203534e-02	0.0	9.375400e-01	-1.330781e-02	0.0	9.296900e-01	-1.454228e-02	0.0	9.214000e-01	-1.577701e-02	0.0	9.127000e-01	-1.703926e-02	0.0	9.035800e-01	-1.835006e-02	0.0	8.940600e-01	-1.971305e-02	0.0	8.841500e-01	-2.112364e-02	0.0	8.738500e-01	-2.257360e-02	0.0	8.631800e-01	-2.405085e-02	0.0	8.521600e-01	-2.554472e-02	0.0	8.407700e-01	-2.705206e-02	0.0	8.290500e-01	-2.856361e-02	0.0	8.170100e-01	-3.007554e-02	0.0	8.046400e-01	-3.158703e-02	0.0	7.919700e-01	-3.309242e-02	0.0	7.790100e-01	-3.458844e-02	0.0	7.657800e-01	-3.607049e-02	0.0	7.522800e-01	-3.753600e-02	0.0	7.385200e-01	-3.898113e-02	0.0	7.245300e-01	-4.040001e-02	0.0	7.103200e-01	-4.178900e-02	0.0	6.958900e-01	-4.314555e-02	0.0	6.812700e-01	-4.446446e-02	0.0	6.664700e-01	-4.574273e-02	0.0	6.515000e-01	-4.697758e-02	0.0	6.363800e-01	-4.816570e-02	0.0	6.211300e-01	-4.930419e-02	0.0	6.057600e-01	-5.039118e-02	0.0	5.902800e-01	-5.142504e-02	0.0	5.747100e-01	-5.240372e-02	0.0	5.590600e-01	-5.332605e-02	0.0	5.433600e-01	-5.418994e-02	0.0	5.276100e-01	-5.499521e-02	0.0	5.118400e-01	-5.574020e-02	0.0	4.960500e-01	-5.642485e-02	0.0	4.802700e-01	-5.704783e-02	0.0	4.645100e-01	-5.760875e-02	0.0	4.487800e-01	-5.810712e-02	0.0	4.331100e-01	-5.854188e-02	0.0	4.175000e-01	-5.891279e-02	0.0	4.019700e-01	-5.921896e-02	0.0	3.865400e-01	-5.945950e-02	0.0	3.712300e-01	-5.963352e-02	0.0	3.560400e-01	-5.974023e-02	0.0	3.409900e-01	-5.977848e-02	0.0	3.261100e-01	-5.974716e-02	0.0	3.114000e-01	-5.964512e-02	0.0	2.968700e-01	-5.947100e-02	0.0	2.825500e-01	-5.922370e-02	0.0	2.684500e-01	-5.890194e-02	0.0	2.545700e-01	-5.850404e-02	0.0	2.409400e-01	-5.802914e-02	0.0	2.275700e-01	-5.747595e-02	0.0	2.144700e-01	-5.684319e-02	0.0	2.016600e-01	-5.613018e-02	0.0	1.891400e-01	-5.533523e-02	0.0	1.769300e-01	-5.445794e-02	0.0	1.650400e-01	-5.349745e-02	0.0	1.534900e-01	-5.245400e-02	0.0	1.422900e-01	-5.132730e-02	0.0	1.314400e-01	-5.011610e-02	0.0	1.209500e-01	-4.882015e-02	0.0	1.108500e-01	-4.744224e-02	0.0	1.011300e-01	-4.598019e-02	0.0	9.181000e-02	-4.443612e-02	0.0	8.290000e-02	-4.281114e-02	0.0	7.440000e-02	-4.110463e-02	0.0	6.633000e-02	-3.932011e-02	0.0	5.869000e-02	-3.745729e-02	0.0	5.149000e-02	-3.551818e-02	0.0	4.474000e-02	-3.350532e-02	0.0	3.844000e-02	-3.141840e-02	0.0	3.260000e-02	-2.926025e-02	0.0	2.723000e-02	-2.703457e-02	0.0	2.232000e-02	-2.473632e-02	0.0	1.790000e-02	-2.237951e-02	0.0	1.395000e-02	-1.995331e-02	0.0	1.049000e-02	-1.746898e-02	0.0	7.520000e-03	-1.492744e-02	0.0	5.040000e-03	-1.232885e-02	0.0	3.050000e-03	-9.671687e-03	0.0	1.560000e-03	-6.971179e-03	0.0	5.600000e-04	-4.206170e-03	0.0	6.000000e-05	-1.383997e-03	0.0	0.000000e+00	0.000000e+00	0.0	6.000000e-05	1.263698e-03	0.0	5.600000e-04	3.624876e-03	0.0	1.560000e-03	5.788531e-03	0.0	3.050000e-03	7.806431e-03	0.0	5.040000e-03	9.723603e-03	0.0	7.520000e-03	1.154780e-02	0.0	1.049000e-02	1.329402e-02	0.0	1.395000e-02	1.497276e-02	0.0	1.790000e-02	1.659195e-02	0.0	2.232000e-02	1.815121e-02	0.0	2.723000e-02	1.966367e-02	0.0	3.260000e-02	2.112522e-02	0.0	3.844000e-02	2.254354e-02	0.0	4.474000e-02	2.392000e-02	0.0	5.149000e-02	2.525598e-02	0.0	5.869000e-02	2.655449e-02	0.0	6.633000e-02	2.781627e-02	0.0	7.440000e-02	2.904197e-02	0.0	8.290000e-02	3.023350e-02	0.0	9.181000e-02	3.138978e-02	0.0	1.011300e-01	3.251230e-02	0.0	1.108500e-01	3.360103e-02	0.0	1.209500e-01	3.465484e-02	0.0	1.314400e-01	3.567559e-02	0.0	1.422900e-01	3.666099e-02	0.0	1.534900e-01	3.761077e-02	0.0	1.650400e-01	3.852530e-02	0.0	1.769300e-01	3.940390e-02	0.0	1.891400e-01	4.024508e-02	0.0	2.016600e-01	4.104807e-02	0.0	2.144700e-01	4.181137e-02	0.0	2.275700e-01	4.253456e-02	0.0	2.409400e-01	4.321594e-02	0.0	2.545700e-01	4.385425e-02	0.0	2.684500e-01	4.444810e-02	0.0	2.825500e-01	4.499518e-02	0.0	2.968700e-01	4.549431e-02	0.0	3.114000e-01	4.594372e-02	0.0	3.261100e-01	4.634094e-02	0.0	3.409900e-01	4.668410e-02	0.0	3.560400e-01	4.697132e-02	0.0	3.712300e-01	4.720004e-02	0.0	3.865400e-01	4.736796e-02	0.0	4.019700e-01	4.747292e-02	0.0	4.175000e-01	4.751248e-02	0.0	4.331100e-01	4.748429e-02	0.0	4.487800e-01	4.738610e-02	0.0	4.645100e-01	4.721558e-02	0.0	4.802700e-01	4.697075e-02	0.0	4.960500e-01	4.664958e-02	0.0	5.118400e-01	4.625015e-02	0.0	5.276100e-01	4.577133e-02	0.0	5.433600e-01	4.521141e-02	0.0	5.590600e-01	4.457005e-02	0.0	5.747100e-01	4.384611e-02	0.0	5.902800e-01	4.304025e-02	0.0	6.057600e-01	4.215273e-02	0.0	6.211300e-01	4.118492e-02	0.0	6.363800e-01	4.013823e-02	0.0	6.515000e-01	3.901461e-02	0.0	6.664700e-01	3.781740e-02	0.0	6.812700e-01	3.655083e-02	0.0	6.958900e-01	3.521903e-02	0.0	7.103200e-01	3.382683e-02	0.0	7.245300e-01	3.238178e-02	0.0	7.385200e-01	3.088922e-02	0.0	7.522800e-01	2.935610e-02	0.0	7.657800e-01	2.779232e-02	0.0	7.790100e-01	2.620625e-02	0.0	7.919700e-01	2.460555e-02	0.0	8.046400e-01	2.300073e-02	0.0	8.170100e-01	2.140143e-02	0.0	8.290500e-01	1.982000e-02	0.0	8.407700e-01	1.826324e-02	0.0	8.521600e-01	1.673960e-02	0.0	8.631800e-01	1.525990e-02	0.0	8.738500e-01	1.382463e-02	0.0	8.841500e-01	1.243702e-02	0.0	8.940600e-01	1.109826e-02	0.0	9.035800e-01	9.806670e-03	0.0	9.127000e-01	8.564955e-03	0.0	9.214000e-01	7.384059e-03	0.0	9.296900e-01	6.280544e-03	0.0	9.375400e-01	5.285370e-03	0.0	9.449600e-01	4.427678e-03	0.0	9.519400e-01	3.732384e-03	0.0	9.584700e-01	3.205602e-03	0.0	9.645400e-01	2.827160e-03	0.0	9.701500e-01	2.552202e-03	0.0	9.752800e-01	2.324934e-03	0.0	9.799500e-01	2.093124e-03	0.0	9.841300e-01	1.827060e-03	0.0	9.878400e-01	1.519918e-03	0.0	9.910500e-01	1.190209e-03	0.0	9.937800e-01	8.630243e-04	0.0	9.960200e-01	5.666270e-04	0.0	9.977600e-01	3.231884e-04	0.0	9.990000e-01	1.450783e-04	0.0	9.997500e-01	3.632619e-05	0.0	1.000000e+00	0.000000e+00	0.0	1.984229e+01	2.506660e+00	0.0	1.937166e+01	4.973800e+00	0.0	1.859553e+01	7.362490e+00	0.0	1.752613e+01	9.635070e+00	0.0	1.618034e+01	1.175571e+01	0.0	1.457937e+01	1.369094e+01	0.0	1.274848e+01	1.541027e+01	0.0	1.071654e+01	1.688656e+01	0.0	8.515590e+00	1.809654e+01	0.0	6.180340e+00	1.902113e+01	0.0	3.747630e+00	1.964575e+01	0.0	1.255810e+00	1.996053e+01	0.0	-1.255810e+00	1.996053e+01	0.0	-3.747630e+00	1.964574e+01	0.0	-6.180340e+00	1.902113e+01	0.0	-8.515590e+00	1.809654e+01	0.0	-1.071654e+01	1.688656e+01	0.0	-1.274848e+01	1.541026e+01	0.0	-1.457937e+01	1.369094e+01	0.0	-1.618034e+01	1.175570e+01	0.0	-1.752613e+01	9.635070e+00	0.0	-1.859553e+01	7.362490e+00	0.0	-1.937166e+01	4.973800e+00	0.0	-1.984229e+01	2.506660e+00	0.0	-2.000000e+01	0.000000e+00	0.0	-1.984229e+01	-2.506670e+00	0.0	-1.937166e+01	-4.973800e+00	0.0	-1.859553e+01	-7.362490e+00	0.0	-1.752613e+01	-9.635080e+00	0.0	-1.618034e+01	-1.175571e+01	0.0	-1.457937e+01	-1.369094e+01	0.0	-1.274848e+01	-1.541027e+01	0.0	-1.071653e+01	-1.688656e+01	0.0	-8.515580e+00	-1.809654e+01	0.0	-6.180340e+00	-1.902113e+01	0.0	-3.747620e+00	-1.964575e+01	0.0	-1.255810e+00	-1.996053e+01	0.0	1.255810e+00	-1.996053e+01	0.0	3.747630e+00	-1.964574e+01	0.0	6.180340e+00	-1.902113e+01	0.0	8.515590e+00	-1.809654e+01	0.0	1.071654e+01	-1.688656e+01	0.0	1.274848e+01	-1.541026e+01	0.0	1.457937e+01	-1.369094e+01	0.0	1.618034e+01	-1.175570e+01	0.0	1.752614e+01	-9.635070e+00	0.0	1.859553e+01	-7.362490e+00	0.0	1.937166e+01	-4.973790e+00	0.0	1.984229e+01	-2.506660e+00	0.0	2.000000e+01	0.000000e+00	0.0	6.074239e-02	-4.532037e-02	0.0	6.601883e-01	-6.002139e-02	0.0	4.255532e-01	6.172254e-02	0.0	6.897642e-01	4.910667e-02	0.0	3.791232e-01	-7.360540e-02	0.0	9.994675e-01	-7.275895e-04	0.0	9.985544e-01	-1.331421e-03	0.0	7.738131e-01	-4.739954e-02	0.0	6.898600e-01	-5.714758e-02	0.0	-1.127093e-03	5.516441e-03	0.0	7.467800e-01	-5.080693e-02	0.0	5.833311e-01	5.753439e-02	0.0	9.928160e-01	-3.736226e-03	0.0	9.899359e-01	-4.744170e-03	0.0	5.989071e-01	5.659958e-02	0.0	7.187646e-01	-5.406304e-02	0.0	-1.468635e-03	5.997814e-04	0.0	9.865725e-01	-5.906457e-03	0.0	9.827328e-01	-7.226341e-03	0.0	-1.301980e-03	-6.472904e-03	0.0	6.451051e-01	-6.137199e-02	0.0	8.244819e-01	-4.029739e-02	0.0	7.997421e-01	-4.389368e-02	0.0	3.484809e-01	6.060766e-02	0.0	8.479019e-01	-3.666701e-02	0.0	2.473656e-01	5.609713e-02	0.0	8.699419e-01	-3.302675e-02	0.0	1.046405e-02	1.734275e-02	0.0	8.904956e-01	-2.943277e-02	0.0	7.702150e-02	-4.969836e-02	0.0	9.094908e-01	-2.593984e-02	0.0	-1.766707e-03	-3.206918e-03	0.0	9.424825e-01	-1.916801e-02	0.0	9.268474e-01	-2.254986e-02	0.0	1.794788e-02	-2.749618e-02	0.0	4.257416e-01	-7.303622e-02	0.0	8.591035e-01	-3.484267e-02	0.0	9.563355e-01	-1.566675e-02	0.0	9.784088e-01	-8.725279e-03	0.0	9.683300e-01	-1.208054e-02	0.0	1.582632e-01	-6.357311e-02	0.0	9.001950e-01	-2.767171e-02	0.0	7.604294e-01	-4.911905e-02	0.0	9.971359e-01	-2.087280e-03	0.0	5.990500e-01	-6.504467e-02	0.0	4.414441e-01	-7.268637e-02	0.0	5.363196e-01	-6.897975e-02	0.0	4.730157e-01	-7.175389e-02	0.0	5.046766e-01	-7.051644e-02	0.0	4.888342e-01	-7.117210e-02	0.0	1.249493e-01	-5.906458e-02	0.0	2.784422e-02	-3.297577e-02	0.0	3.945689e-01	-7.349742e-02	0.0	4.621904e-02	-4.062230e-02	0.0	4.101097e-01	-7.330802e-02	0.0	3.187146e-01	-7.321332e-02	0.0	3.486125e-01	-7.358008e-02	0.0	3.350777e-02	-3.558906e-02	0.0	2.895104e-01	-7.250783e-02	0.0	9.348849e-01	-2.086580e-02	0.0	1.468045e-01	-6.216095e-02	0.0	1.946434e-01	-6.723313e-02	0.0	8.579569e-02	-5.175606e-02	0.0	1.045869e-01	-5.560334e-02	0.0	5.678223e-01	-6.715996e-02	0.0	1.700657e-01	-6.489146e-02	0.0	6.145275e-01	-6.388296e-02	0.0	8.804131e-01	-3.122132e-02	0.0	2.266820e-02	-3.027647e-02	0.0	9.952218e-01	-2.870133e-03	0.0	6.736439e-03	-1.882105e-02	0.0	1.849222e-02	2.151129e-02	0.0	9.183775e-01	-2.423537e-02	0.0	9.49640
[...]
POINT_DATA 5233

SCALARS Conservative_1 float 1
LOOKUP_TABLE default
-1.709539e-01	-2.155604e-01	-2.125713e-01	-2.103649e-01	-2.104216e-01	-2.078128e-01	-2.010099e-01	-1.877226e-01	-1.662534e-01	-1.361094e-01	-9.887416e-02	-5.842871e-02	-2.098005e-02	6.941622e-03	2.165760e-02	2.465279e-02	2.139355e-02	1.743370e-02	1.623783e-02	1.872461e-02	2.454979e-02	3.273925e-02	4.219449e-02	5.213960e-02	6.198458e-02	7.154721e-02	8.077350e-02	8.975039e-02	9.867339e-02	1.076050e-01	1.166686e-01	1.258559e-01	1.351293e-01	1.444204e-01	1.536663e-01	1.628230e-01	1.719137e-01	1.809779e-01	1.899691e-01	1.988179e-01	2.074501e-01	2.158370e-01	2.239522e-01	2.318067e-01	2.394001e-01	2.467494e-01	2.538664e-01	2.607776e-01	2.675770e-01	2.743202e-01	2.810321e-01	2.876209e-01	2.938045e-01	2.993447e-01	3.043920e-01	3.094166e-01	3.148865e-01	3.210012e-01	3.277500e-01	3.349994e-01	3.427733e-01	3.510782e-01	3.598525e-01	3.685777e-01	3.761832e-01	3.810228e-01	3.814413e-01	3.763840e-01	3.663134e-01	3.531538e-01	3.396129e-01	3.276509e-01	3.175274e-01	3.078676e-01	2.968642e-01	2.837468e-01	2.687842e-01	2.525074e-01	2.349281e-01	2.158972e-01	1.952849e-01	1.729756e-01	1.488001e-01	1.225275e-01	9.388065e-02	6.262869e-02	2.838351e-02	-9.123107e-03	-5.037945e-02	-9.560439e-02	-1.451945e-01	-1.989102e-01	-2.567330e-01	-3.162706e-01	-3.758916e-01	-4.279451e-01	-4.693418e-01	-4.965462e-01	-4.931313e-01	-4.650659e-01	-4.267538e-01	-3.397256e-01	-1.988793e-01	-4.692465e-02	9.237515e-02	2.073436e-01	2.936350e-01	3.555230e-01	3.985075e-01	4.278118e-01	4.470935e-01	4.586520e-01	4.647599e-01	4.671849e-01	4.673044e-01	4.663431e-01	4.648579e-01	4.629614e-01	4.607834e-01	4.584306e-01	4.557941e-01	4.524622e-01	4.483570e-01	4.439457e-01	4.397238e-01	4.358328e-01	4.320232e-01	4.280261e-01	4.238110e-01	4.194545e-01	4.150533e-01	4.105897e-01	4.059867e-01	4.012111e-01	3.961138e-01	3.905565e-01	3.843700e-01	3.776784e-01	3.707931e-01	3.641500e-01	3.578468e-01	3.516722e-01	3.453449e-01	3.387081e-01	3.316322e-01	3.239494e-01	3.155178e-01	3.064915e-01	2.973416e-01	2.883347e-01	2.791970e-01	2.694093e-01	2.585002e-01	2.465342e-01	2.338790e-01	2.207471e-01	2.072227e-01	1.932884e-01	1.789726e-01	1.642646e-01	1.492422e-01	1.339563e-01	1.184334e-01	1.027633e-01	8.695818e-02	7.112332e-02	5.530155e-02	3.962641e-02	2.413345e-02	8.922088e-03	-5.983789e-03	-2.046545e-02	-3.443642e-02	-4.776605e-02	-6.045279e-02	-7.233635e-02	-8.365757e-02	-9.464346e-02	-1.057576e-01	-1.175389e-01	-1.304412e-01	-1.444942e-01	-1.591209e-01	-1.729800e-01	-1.843446e-01	-1.914307e-01	-1.929461e-01	-1.885843e-01	-1.795144e-01	-1.687092e-01	-1.605700e-01	-1.595499e-01	-1.678692e-01	-1.847253e-01	-2.075976e-01	-2.346422e-01	-2.599941e-01	-2.846795e-01	-3.865533e-01	-2.907977e-01	-1.375558e-04	-1.352332e-04	-1.316996e-04	-1.282611e-04	-1.226358e-04	-1.139694e-04	-9.645450e-05	-7.301405e-05	-3.416870e-05	2.170299e-05	1.193842e-04	2.486819e-04	3.792758e-04	4.329914e-04	4.223714e-04	3.902973e-04	3.444033e-04	2.976079e-04	2.475155e-04	1.970511e-04	1.490153e-04	1.153529e-04	1.076180e-04	3.474393e-05	-3.379067e-05	1.622146e-05	7.642345e-06	-3.042989e-05	-6.319832e-05	-7.850164e-05	-8.976832e-05	-9.459263e-05	-9.268331e-05	-8.294371e-05	-6.785798e-05	-4.878652e-05	-3.290600e-05	-4.263877e-05	-7.160746e-05	-1.040383e-04	-1.326445e-04	-1.489867e-04	-1.562955e-04	-1.579323e-04	-1.559441e-04	-1.522149e-04	-1.490975e-04	-1.462231e-04	-1.414550e-04	-1.400377e-04	1.051559e-01	1.842726e-01	3.221589e-01	1.226059e-01	3.061279e-01	-2.117245e-01	-2.187155e-01	1.123162e-01	1.665797e-01	-3.078153e-01	1.305036e-01	2.216226e-01	-2.074472e-01	-2.008625e-01	2.085169e-01	1.486846e-01	-4.342963e-01	-1.902143e-01	-1.741168e-01	-4.697064e-01	1.928926e-01	7.664315e-02	9.441533e-02	3.554864e-01	5.841725e-02	3.972010e-01	3.945135e-02	2.070507e-01	2.172559e-02	1.557145e-01	1.003507e-02	-4.823326e-01	3.762028e-03	7.550458e-03	-1.508482e-01	2.906439e-01	4.897112e-02	-2.840678e-02	-1.516997e-01	-9.081184e-02	2.919308e-01	1.478887e-02	1.213748e-01	-2.145896e-01	2.173485e-01	2.854803e-01	2.465590e-01	2.732872e-01	2.600410e-01	2.666661e-01	2.528022e-01	-6.302638e-02	3.005610e-01	4.584408e-02	2.955084e-01	3.334916e-01	3.188491e-01	-2.374334e-02	3.499711e-01	7.413342e-03	2.809312e-01	3.271188e-01	1.782039e-01	2.183573e-01	2.324065e-01	3.022409e-01	2.094482e-01	3.017362e-02	-1.053875e-01	-2.115656e-01	-3.019762e-01	3.229016e-01	7.804345e-03	-7.458598e-03	-1.233164e-01	-2.004194e-01	6.763031e-02	3.655624e-01	2.395848e-01	1.396398e-01	1.033354e-01	2.362299e-01	3.539777e-01	2.249970e-01	1.754756e-01	7.666148e-02	-3.535437e-01	-1.992910e-01	3.122584e-01	3.137087e-01	-1.979847e-01	3.624741e-01	1.990508e-01	3.416188e-01	3.635111e-01	2.796768e-01	1.576453e-01	-3.883643e-01	-4.394284e-01	2.581722e-01	-4.641082e-01	3.876121e-01	4.317850e-01	4.187994e-01	4.357847e-01	3.295808e-01	-2.535409e-01	2.684254e-01	2.959636e-01	-1.693833e-01	-1.797436e-01	-9.635460e-02	2.867610e-01	3.140612e-01	3.430395e-01	-1.447779e-01	-1.193844e-01	4.385741e-01	-1.639770e-01	-1.800674e-01	-1.680822e-01	4.387219e-01	4.351965e-01	3.817739e-01	3.925360e-01	4.207682e-01	3.687338e-01	3.052348e-01	3.365023e-01	4.267513e-01	4.329541e-01	1.811233e-01	4.136276e-01	4.057370e-01	1.523727e-01	2.343840e-01	6.165755e-02	9.222113e-02	2.292832e-03	3.150345e-02	-5.108372e-02	-2.546158e-02	-1.075704e-01	-7.441200e-02	-1.760375e-01	-1.318964e-01	-1.756055e-01	-6.303089e-02	-8.542797e-02	-1.180773e-02	-3.858284e-02	4.648777e-02	1.675039e-02	1.074596e-01	7.692633e-02	1.668954e-01	1.375907e-01	2.467231e-01	1.950198e-01	4.097390e-01	4.015869e-01	4.238261e-01	4.173498e-01	4.267358e-01	4.298025e-01	2.725437e-01	4.063294e-01	3.413539e-01	2.585500e-02	-5.762046e-02	8.554875e-02	3.259092e-01	2.533676e-01	-8.442165e-02	3.605150e-01	1.246386e-01	4.389634e-01	4.374149e-01	3.874405e-01	4.377457e-01	-1.627487e-01	-1.682540e-01	3.754688e-01	-1.810859e-01	-2.000856e-01	3.619543e-01	3.492875e-01	-1.572404e-01	-3.902031e-01	-2.879999e-01	-3.439820e-01	2.012951e-01	1.246811e-02	-2.243599e-01	2.777569e-01	-4.004997e-01	-2.501689e-01	1.314309e-01	2.679090e-01	3.577458e-01	4.126288e-01	-2.875701e-01	-3.567284e-01	3.391738e-01	1.528749e-01	1.979272e-03	-2.894269e-01	2.215623e-01	1.616151e-01	9.960460e-02	-1.896612e-01	3.164852e-01	4.640799e-02	6.445790e-02	1.620589e-01	-4.378273e-01	3.297657e-01	-1.990138e-01	-5.886316e-02	2.651570e-01	1.441239e-01	1.788809e-01	2.718927e-01	1.395513e-01	2.918937e-01	1.245214e-02	9.083677e-02	6.535149e-02	2.630236e-01	1.399922e-01	-4.298639e-02	4.205898e-01	1.254859e-01	4.121447e-01	-7.710922e-02	-1.779867e-01	3.527961e-01	2.665365e-01	-1.672317e-01	-8.792334e-02	-1.921445e-01	-1.695631e-01	-1.644111e-01	3.925014e-01	3.594774e-01	3.964115e-01	4.201216e-01	1.703126e-01	3.155487e-01	1.429995e-01	4.164099e-01	3.911054e-01	-1.668120e-01	-2.099370e-01	-9.875921e-02	2.764640e-01	-3.105795e-01	-2.582099e-01	-2.321409e-01	-2.208615e-02	-2.038984e-01	-3.339456e-01	-4.560573e-01	-4.369472e-01	-1.551968e-01	-2.686743e-01	8.933853e-02	-2.172971e-01	-2.057376e-01	3.197966e-01	2.326991e-01	-1.766090e-01	2.833455e-02	2.087497e-01	-1.990289e-01	-4.600487e-01	2.772114e-01	3.270693e-01	5.548519e-02	3.783475e-01	3.727230e-02	1.989747e-02	1.153585e-01	6.430256e-03	-1.178539e-03	-1.964951e-02	-7.354380e-02	-3.619718e-02	-8.536829e-02	-1.594435e-01	2.372672e-01	1.173996e-01	1.084436e-01	-2.117027e-01	2.658581e-01	2.592970e-01	2.526866e-01	-1.133723e-01	2.867858e-01	2.820301e-01	3.097075e-01	-1.486521e-03	-4.320923e-03	-9.573801e-03	2.522831e-01	1.830320e-01	2.256840e-01	2.033475e-01	-1.125106e-01	-1.377691e-01	1.353561e-01	1.264553e-01	2.025578e-01	2.206466e-01	2.184698e-01	2.110224e-01	3.090451e-02	6.123523e-02	-2.442961e-01	3.033916e-01	2.974695e-01	2.879192e-01	3.009718e-01	3.411130e-01	3.475992e-01	3.315873e-01	3.238506e-01	3.487690e-01	-4.062444e-01	-3.745919e-01	3.787115e-01	-1.684939e-01	2.568644e-01	2.756706e-01	2.849828e-01	2.944625e-01	-1.645044e-01	-1.690854e-01	-1.327481e-01	3.035533e-01	3.119928e-01	3.338783e-01	-1.212352e-01	-1.618671e-01	4.073668e-01	4.003036e-01	3.882231e-01	3.835607e-01	4.143234e-01	4.184445e-01	4.200176e-01	9.184521e-03	6.656764e-02	8.134016e-02	2.317302e-02	-3.066327e-02	-1.098585e-01	-6.612018e-02	-5.473648e-02	-1.778704e-02	-4.475450e-03	3.741511e-02	5.189761e-02	9.610397e-02	1.108459e-01	1.542998e-01	1.683844e-01	2.342299e-01	2.461741e-01	1.822045e-01	1.956525e-01	4.000844e-01	4.035462e-01	4.068076e-01	4.097119e-01	2.091471e-01	3.615211e-01	3.375607e-01	8.208690e-02	7.331624e-02	2.461497e-01	2.395156e-01	-1.135281e-01	3.052804e-01	4.187210e-01	4.162958e-01	3.661716e-01	3.725522e-01	3.402714e-01	3.464451e-01	-1.538430e-01	-1.438513e-01	1.954262e-01	1.872671e-01	-3.617949e-02	-4.094480e-01	3.454144e-01	-4.328021e-01	2.786641e-01	3.208053e-01	8.855131e-02	2.267535e-01	-5.650590e-03	-1.860057e-01	-1.751646e-01	-1.624759e-01	-1.326248e-01	-1.992073e-01	-2.923076e-01	-3.080055e-01	-2.122591e-01	-2.735816e-01	-1.581597e-01	-3.889682e-01	1.455664e-01	-1.086990e-02	-1.873581e-01	2.201813e-01	-2.216778e-01	-3.173020e-01	1.407470e-01	-3.843913e-01	1.322051e-01	-1.976269e-01	2.799042e-02	-2.783437e-01	3.005138e-01	3.662659e-02	1.492554e-01	-1.960238e-01	-2.382118e-01	-1.645262e-01	2.536300e-01	-1.564374e-01	1.403246e-01	-2.181906e-01	2.632445e-01	3.734288e-01	3.492460e-01	4.014900e-01	3.797857e-01	-3.101296e-01	-4.089012e-01	-2.770980e-01	1.553028e-01	-3.369550e-01	-8.019387e-02	1.232204e-01	-4.251041e-01	2.490946e-01	2.593129e-01	-1.194787e-01	2.154319e-02	-3.707510e-02	1.357136e-02	1.261911e-01	-1.681271e-01	-1.604396e-01	-9.189860e-02	-8.138712e-02	3.558970e-01	3.680903e-01	3.862869e-01	4.009508e-01	1.662800e-01	1.578495e-01	3.033459e-01	9.203936e-02	4.027125e-01	-1.632748e-01	-2.370500e-01	-5.460438e-02	-2.080502e-01	-3.531582e-01	-4.376506e-01	-8.225496e-02	-2.329084e-01	-2.278029e-01	-1.028010e-01	-1.760459e-01	2.073682e-01	2.646058e-01	3.160540e-01	5.429677e-02	4.543562e-02	1.974072e-02	1.209764e-02	7.385367e-02	9.934171e-02	5.302327e-03	-4.213628e-04	-4.073161e-02	-5.889972e-02	-1.620599e-01	1.061251e-01	9.732608e-02	-2.046301e-01	2.532166e-01	2.465143e-01	2.738914e-01	2.693519e-01	-4.730479e-02	-1.734743e-02	-2.688474e-02	2.209770e-01	2.360159e-01	2.199792e-01	2.129477e-01	-1.247906e-01	-1.449408e-01	1.238679e-01	1.150807e-01	1.666011e-01	1.863306e-01	2.044825e-01	2.057565e-01	1.982869e-01	-1.435826e-02	1.705467e-02	4.658647e-02	2.946299e-01	2.890952e-01	2.837994e-01	2.611835e-01	2.740754e-01	2.884016e-01	3.167413e-01	3.263879e-01	3.138248e-01	3.069616e-01	3.310334e-01	3.394413e-01	2.727969e-01	2.825885e-01	-1.630665e-01	2.917780e-01	3.003337e-01	3.084130e-01	3.231980e-01	-1.232434e-01	3.694464e-01	3.562596e-01	3.781873e-01	3.824871e-01	4.037334e-01	4.040919e-01	4.030557e-01	6.916611e-02	-1.128657e-01	-1.023541e-01	-7.077392e-02	-5.987235e-02	-4.872918e-02	-2.494897e-02	-1.227217e-02	5.759096e-04	2.718855e-02	4.088611e-02	5.502175e-02	8.352317e-02	9.773281e-02	1.120727e-01	1.541621e-01	2.326273e-01	2.435410e-01	1.678874e-01	1.812255e-01	1.944098e-01	3.897231e-01	3.927863e-01	3.956140e-01	3.980348e-01	3.998953e-01	3.179826e-01	2.899741e-01	8.008566e-02	7.151709e-02	6.296003e-02	2.399576e-01	2.333912e-01	2.537191e-01	2.090377e-01	3.979437e-01	3.937758e-01	3.878609e-01	3.622504e-01	3.298549e-01	3.361519e-01	3.425304e-01	-1.503874e-01	-1.425220e-01	-1.333523e-01	1.906515e-01	1.827223e-01	1.746353e-01	3.308662e-01	3.269076e-01	-4.014383e-01	1.291587e-01	-2.200097e-01	-1.668372e-01	2.161635e-01	-3.592239e-01	-2.165507e-01	-1.512605e-02	-2.271115e-02	-8.948997e-02	-1.923231e-01	2.580287e-01	-3.803510e-01	5.177474e-02	-2.997337e-01	-1.556013e-01	-2.055751e-01	-2.617656e-01	1.401328e-01	-2.037335e-01	-2.783896e-01	-2.555701e-01	7.940093e-02	2.332190e-01	-1.589745e-01	2.662640e-01	1.071118e-01	2.526426e-01	3.033094e-01	-1.727779e-01	2.178148e-01	-1.520587e-01	-1.471822e-01	1.616930e-02	3.882908e-01	3.667706e-01	-1.758366e-01	3.382103e-01	2.821033e-02	-2.495732e-01	-1.812190e-01	-2.035503e-01	-1.150944e-01	-1.944773e-01	1.388792e-01	-3.311635e-01	1.295492e-01	1.224152e-01	-2.300822e-01	-1.863444e-01	-2.658780e-01	-3.244386e-02	2.504273e-01	3.505904e-01	-3.137578e-01	-1.071808e-02	1.251802e-01	-8.607550e-02	3.443223e-01	3.564532e-01	3.618423e-01	1.558408e-01	1.464179e-01	-1.628300e-01	-7.526154e-02	-1.405906e-01	-3.589310e-01	-4.158365e-01	-1.232613e-01	-9.613096e-02	-1.637483e-01	2.038582e-01	4.534934e-02	3.665423e-02	1.986425e-02	1.209214e-02	5.881758e-02	8.367119e-02	4.718491e-03	-1.710519e-03	-8.052913e-03	-5.950763e-02	-7.719572e-02	9.689600e-02	8.727556e-02	-1.951064e-01	2.475806e-01	2.414102e-01	2.617994e-01	2.572732e-01	-3.211753e-02	-4.424284e-02	2.042367e-01	2.197951e-01	2.082006e-01	-1.332158e-01	-1.496780e-01	1.140702e-01	1.044218e-01	1.501266e-01	1.700705e-01	1.880066e-01	2.023398e-01	1.940090e-01	-5.737370e-02	-2.603448e-02	4.357033e-03	3.249387e-02	2.858673e-01	2.808249e-01	2.759861e-01	2.712151e-01	2.463408e-01	2.605688e-01	2.755941e-01	2.901673e-01	3.023117e-01	2.913547e-01	2.972014e-01	3.102860e-01	2.686940e-01	-1.602285e-01	-1.581302e-01	2.781041e-01	2.866565e-01	2.949271e-01	3.028619e-01	3.104564e-01	3.215782e-01	3.003732e-01	3.711504e-01	3.750222e-01	3.882241e-01	3.876404e-01	3.849355e-01	3.810327e-01	-1.154350e-01	-1.058225e-01	-9.608217e-02	-7.597241e-02	-6.549278e-02	-5.490600e-02	-4.341453e-02	-2.131813e-02	-7.716345e-03	3.996284e-03	3.004128e-02	4.286052e-02	5.733725e-02	7.018965e-02	8.493534e-02	9.767330e-02	1.126446e-01	2.386948e-01	2.300704e-01	1.522039e-01	1.669596e-01	1.786860e-01	1.932868e-01	3.782977e-01	3.811106e-01	3.835357e-01	3.857247e-01	3.869132e-01	3.879772e-01	2.748855e-01	2.442391e-01	7.085125e-02	6.199783e-02	5.384859e-02	2.344359e-01	2.294560e-01	2.216813e-01	2.062571e-01	1.605945e-01	1.092606e-01	3.762555e-01	3.704182e-01	3.624734e-01	3.515861e-01	3.175326e-01	3.243053e-01	3.307174e-01	3.376631e-01	-1.246655e-01	-1.407685e-01	-1.332856e-01	1.876870e-01	1.789709e-01	1.721784e-01	1.630832e-01	3.136000e-01	3.127563e-01	3.087958e-01	-2.216966e-01	-2.107133e-01	-1.084754e-01	-3.017371e-01	-2.531984e-01	1.159874e-01	1.134829e-01	-2.830692e-01	-1.635358e-01	-3.355618e-01	-1.259973e-01	2.179591e-01	3.717150e-01	-3.582129e-02	-1.978220e-01	-3.350116e-01	-4.076474e-01	-4.177404e-01	-3.873352e-01	-3.553903e-01	-1.974853e-01	3.375538e-01	-1.242995e-01	-1.761729e-01	-3.607942e-02	7.417016e-02	2.539393e-01	-1.950760e-01	-1.175321e-01	-1.384528e-01	2.189186e-01	2.375392e-01	1.302745e-01	2.499997e-02	2.518711e-01	2.073426e-01	3.330109e-01	-1.853844e-01	9.196580e-02	-2.783800e-01	-1.693464e-01	-4.049457e-01	-2.446900e-01	-2.291166e-01	-2.600721e-02	-9.608182e-02	-3.729117e-01	1.844120e-02	-3.105847e-01	-1.483858e-01	-2.473017e-01	-2.759469e-01	-2.613674e-01	-1.907266e-01	2.835009e-01	2.868492e-01	-1.764853e-01	1.998791e-01	-1.440143e-01	-1.651150e-01	1.312869e-01	-2.930330e-01	3.450615e-01	3.489108e-01	3.557261e-01	1.479670e-01	-9.075712e-02	-1.447553e-01	-3.895970e-01	-1.582010e-01	3.576180e-02	2.864413e-02	1.954101e-02	1.199366e-02	6.898262e-02	4.453275e-02	3.438033e-03	-2.964786e-03	-9.975511e-03	-1.891480e-02	-7.613956e-02	-9.220707e-02	8.994778e-02	-1.854358e-01	2.421309e-01	2.358354e-01	2.511691e-01	2.451801e-01	-4.792852e-02	-6.106271e-02	1.893451e-01	2.073431e-01	-1.392894e-01	-1.530088e-01	1.028273e-01	1.359616e-01	1.582332e-01	1.711945e-01	1.936081e-01	-6.635793e-02	-3.639828e-02	-7.706946e-03	1.906942e-02	2.767602e-01	2.736769e-01	2.677332e-01	2.649816e-01	2.591835e-01	2.351493e-01	2.472816e-01	2.656177e-01	2.763521e-01	2.903573e-01	-1.590733e-01	-1.554741e-01	-1.521003e-01	2.640891e-01	2.711622e-01	2.813643e-01	2.878601e-01	2.975827e-01	2.862665e-01	2.611302e-01	3.585435e-01	3.642744e-01	3.731160e-01	3.665262e-01	3.602190e-01	-1.083346e-01	-9.956696e-02	-8.993193e-02	-8.051219e-02	-7.049072e-02	-6.037689e-02	-4.978191e-02	-3.384036e-02	-1.697675e-02	1.335053e-03	5.111919e-02	7.741589e-02	1.038705e-01	1.563953e-01	1.812258e-01	3.657391e-01	3.703099e-01	3.706304e-01	3.745227e-01	3.731015e-01	3.733837e-01	3.734140e-01	2.320910e-01	1.996825e-01	6.063938e-02	5.322862e-02	4.505928e-02	2.286768e-01	2.199844e-01	1.622768e-01	1.177538e-01	6.908652e-02	3.534981e-01	3.458108e-01	3.359048e-01	3.220509e-01	3.056032e-01	3.035470e-01	3.124881e-01	3.172511e-01	3.249585e-01	-1.320875e-01	-1.246454e-01	1.792178e-01	1.640438e-01	2.937672e-01	2.991119e-01	2.951220e-01	2.938368e-01	-2.216430e-01	-2.672916e-01	-2.668092e-01	-3.605929e-01	-2.510269e-01	-1.309650e-01	-1.787749e-01	-2.723239e-01	-1.456032e-01	-2.012712e-01	-1.553958e-01	-3.615358e-01	-1.280218e-01	-2.404442e-01	3.217621e-01	-2.786180e-01	-1.019465e-01	-2.330889e-01	-2.133764e-01	-1.176411e-01	2.032762e-01	-1.709092e-01	2.700381e-01	-5.008102e-02	-3.459766e-02	1.620534e-01	1.003552e-01	2.125034e-01	-3.315450e-01	2.399391e-01	5.515856e-02	7.695819e-02	3.507167e-01	-1.586913e-01	-1.132205e-01	-3.094452e-01	-5.516735e-02	-1.037103e-01	-2.864739e-01	-1.642139e-01	-4.035110e-01	-3.462297e-01	-1.666194e-01	1.015415e-01	2.322203e-01	2.512021e-01	-1.874035e-01	-2.615605e-01	-2.162558e-01	-3.906982e-01	-2.378924e-01	-1.011457e-01	-3.130661e-01	-2.909629e-01	1.972047e-01	-1.561258e-01	-1.412321e-01	-1.359777e-01	2.150082e-01	3.328807e-01	3.431392e-01	1.150219e-01	-1.471013e-01	-1.913271e-01	-1.858498e-01	2.230396e-02	6.395241e-03	3.130305e-02	-8.496149e-03	-2.143125e-02	-8.961359e-02	-1.768863e-01	2.318538e-01	-6.272934e-02	-7.570773e-02	1.837276e-01	-1.435309e-01	8.868608e-02	7.453753e-02	1.328432e-01	1.561585e-01	1.904014e-01	-7.321335e-02	-4.387104e-02	-1.531747e-02	5.986517e-03	2.616378e-01	2.541248e-01	2.459660e-01	2.427662e-01	2.678182e-01	-1.540266e-01	-1.497998e-01	2.686366e-01	2.851342e-01	2.240433e-01	3.512336e-01	3.387636e-01	-1.088456e-02	-9.728146e-02	-7.925003e-02	-6.053677e-02	-4.328028e-02	-2.728062e-02	8.550805e-03	3.199552e-02	5.688398e-02	8.191279e-02	1.071033e-01	1.323303e-01	1.567879e-01	1.783798e-01	3.565635e-01	3.590618e-01	3.571565e-01	3.597063e-01	3.545419e-01	1.909371e-01	1.579633e-01	5.996762e-02	4.710119e-02	3.462567e-02	2.228807e-01	2.141450e-01	1.222748e-01	8.121409e-02	3.573913e-02	-9.187598e-03	3.289787e-01	3.189963e-01	3.071224e-01	2.911830e-01	2.703348e-01	2.571519e-01	2.998308e-01	3.098566e-01	-1.310620e-01	-1.239364e-01	1.765534e-01	1.467173e-01	1.305723e-01	2.793014e-01	2.777477e-01	-1.941093e-01	-2.249949e-01	-2.199795e-01	-2.249846e-01	-3.713866e-02	-1.810921e-01	-2.632972e-01	-1.954070e-01	-2.725563e-01	-2.049754e-01	-2.066153e-01	-1.838019e-01	-1.481084e-01	-2.854528e-01	-3.342296e-01	-1.482397e-01	8.738269e-02	3.030782e-01	-2.079586e-01	-2.161113e-02	-1.531612e-01	2.035984e-01	-1.098488e-01	-2.513043e-01	2.309539e-01	-6.334529e-02	1.454754e-01	1.871770e-01	-1.241118e-01	-1.358173e-01	-1.289648e-01	-1.041550e-01	-2.764341e-01	-1.648577e-01	-1.721955e-01	-1.389457e-01	3.237733e-01	1.761305e-01	1.145646e-01	2.191409e-02	-2.558995e-01	-2.648567e-01	-3.764966e-01	-1.120053e-01	-1.436130e-01	-2.514086e-01	-1.469580e-01	-2.534118e-01	-2.282508e-01	1.988394e-01	-3.219203e-01	3.989454e-02	6.289659e-02	-1.586052e-01	-3.338051e-01	-9.975274e-02	-1.580590e-01	1.003448e-01	-3.676925e-01	-2.392901e-01	-4.774643e-03	-3.086165e-01	-2.917499e-01	2.116601e-01	-1.797607e-01	-1.337073e-01	1.942520e-01	3.138238e-01	1.563691e-01	-1.851140e-01	-2.201160e-01	7.850590e-03	-7.499767e-03	-3.540640e-02	-5.001587e-02	-1.694696e-01	2.239794e-01	-7.519903e-02	-8.739666e-02	2.380201e-01	4.614852e-02	3.404397e-02	7.422204e-02	9.028623e-02	1.184689e-01	1.435156e-01	-7.614308e-02	2.510910e-01	2.446482e-01	1.713723e-01	2.017776e-01	1.300364e-01	-1.531456e-01	2.292444e-01	2.467376e-01	3.166955e-01	-1.020794e-01	-8.648575e-02	-2.152163e-02	-6.943766e-02	-5.267730e-02	-3.688457e-02	-4.650032e-03	1.552509e-02	3.834344e-02	6.210656e-02	8.607518e-02	1.102569e-01	1.341790e-01	3.323041e-01	3.380918e-01	3.403576e-01	3.394469e-01	3.379964e-01	3.280951e-01	1.542745e-01	1.196725e-01	6.002205e-02	2.198316e-02	2.167387e-01	2.085875e-01	8.679199e-02	5.048021e-02	9.588084e-03	-3.107630e-02	-7.024183e-02	3.025597e-01	2.892776e-01	2.7