# vtk DataFile Version 3.0
vtk output
ASCII
DATASET UNSTRUCTURED_GRID
POINTS 200 float
9.997500e-01	-3.633243e-05	0.0	9.990000e-01	-1.454723e-04	0.0	9.977600e-01	-3.275073e-04	0.0	9.960200e-01	-5.899266e-04	0.0	9.937800e-01	-9.470929e-04	0.0	9.910500e-01	-1.422091e-03	0.0	9.878400e-01	-2.045505e-03	0.0	9.841300e-01	-2.853652e-03	0.0	9.799500e-01	-3.858845e-03	0.0	9.752800e-01	-5.058243e-03	0.0	9.701500e-01	-6.405031e-03	0.0	9.645400e-01	-7.840737e-03	0.0	9.584700e-01	-9.290025e-03	0.0	9.519400e-01	-1.069754e-02	0.0	9.449600e-01	-1.203534e-02	0.0	9.375400e-01	-1.330781e-02	0.0	9.296900e-01	-1.454228e-02	0.0	9.214000e-01	-1.577701e-02	0.0	9.127000e-01	-1.703926e-02	0.0	9.035800e-01	-1.835006e-02	0.0	8.940600e-01	-1.971305e-02	0.0	8.841500e-01	-2.112364e-02	0.0	8.738500e-01	-2.257360e-02	0.0	8.631800e-01	-2.405085e-02	0.0	8.521600e-01	-2.554472e-02	0.0	8.407700e-01	-2.705206e-02	0.0	8.290500e-01	-2.856361e-02	0.0	8.170100e-01	-3.007554e-02	0.0	8.046400e-01	-3.158703e-02	0.0	7.919700e-01	-3.309242e-02	0.0	7.790100e-01	-3.458844e-02	0.0	7.657800e-01	-3.607049e-02	0.0	7.522800e-01	-3.753600e-02	0.0	7.385200e-01	-3.898113e-02	0.0	7.245300e-01	-4.040001e-02	0.0	7.103200e-01	-4.178900e-02	0.0	6.958900e-01	-4.314555e-02	0.0	6.812700e-01	-4.446446e-02	0.0	6.664700e-01	-4.574273e-02	0.0	6.515000e-01	-4.697758e-02	0.0	6.363800e-01	-4.816570e-02	0.0	6.211300e-01	-4.930419e-02	0.0	6.057600e-01	-5.039118e-02	0.0	5.902800e-01	-5.142504e-02	0.0	5.747100e-01	-5.240372e-02	0.0	5.590600e-01	-5.332605e-02	0.0	5.433600e-01	-5.418994e-02	0.0	5.276100e-01	-5.499521e-02	0.0	5.118400e-01	-5.574020e-02	0.0	4.960500e-01	-5.642485e-02	0.0	4.802700e-01	-5.704783e-02	0.0	4.645100e-01	-5.760875e-02	0.0	4.487800e-01	-5.810712e-02	0.0	4.331100e-01	-5.854188e-02	0.0	4.175000e-01	-5.891279e-02	0.0	4.019700e-01	-5.921896e-02	0.0	3.865400e-01	-5.945950e-02	0.0	3.712300e-01	-5.963352e-02	0.0	3.560400e-01	-5.974023e-02	0.0	3.409900e-01	-5.977848e-02	0.0	3.261100e-01	-5.974716e-02	0.0	3.114000e-01	-5.964512e-02	0.0	2.968700e-01	-5.947100e-02	0.0	2.825500e-01	-5.922370e-02	0.0	2.684500e-01	-5.890194e-02	0.0	2.545700e-01	-5.850404e-02	0.0	2.409400e-01	-5.802914e-02	0.0	2.275700e-01	-5.747595e-02	0.0	2.144700e-01	-5.684319e-02	0.0	2.016600e-01	-5.613018e-02	0.0	1.891400e-01	-5.533523e-02	0.0	1.769300e-01	-5.445794e-02	0.0	1.650400e-01	-5.349745e-02	0.0	1.534900e-01	-5.245400e-02	0.0	1.422900e-01	-5.132730e-02	0.0	1.314400e-01	-5.011610e-02	0.0	1.209500e-01	-4.882015e-02	0.0	1.108500e-01	-4.744224e-02	0.0	1.011300e-01	-4.598019e-02	0.0	9.181000e-02	-4.443612e-02	0.0	8.290000e-02	-4.281114e-02	0.0	7.440000e-02	-4.110463e-02	0.0	6.633000e-02	-3.932011e-02	0.0	5.869000e-02	-3.745729e-02	0.0	5.149000e-02	-3.551818e-02	0.0	4.474000e-02	-3.350532e-02	0.0	3.844000e-02	-3.141840e-02	0.0	3.260000e-02	-2.926025e-02	0.0	2.723000e-02	-2.703457e-02	0.0	2.232000e-02	-2.473632e-02	0.0	1.790000e-02	-2.237951e-02	0.0	1.395000e-02	-1.995331e-02	0.0	1.049000e-02	-1.746898e-02	0.0	7.520000e-03	-1.492744e-02	0.0	5.040000e-03	-1.232885e-02	0.0	3.050000e-03	-9.671687e-03	0.0	1.560000e-03	-6.971179e-03	0.0	5.600000e-04	-4.206170e-03	0.0	6.000000e-05	-1.383997e-03	0.0	0.000000e+00	0.000000e+00	0.0	6.000000e-05	1.263698e-03	0.0	5.600000e-04	3.624876e-03	0.0	1.560000e-03	5.788531e-03	0.0	3.050000e-03	7.806431e-03	0.0	5.040000e-03	9.723603e-03	0.0	7.520000e-03	1.154780e-02	0.0	1.049000e-02	1.329402e-02	0.0	1.395000e-02	1.497276e-02	0.0	1.790000e-02	1.659195e-02	0.0	2.232000e-02	1.815121e-02	0.0	2.723000e-02	1.966367e-02	0.0	3.260000e-02	2.112522e-02	0.0	3.844000e-02	2.254354e-02	0.0	4.474000e-02	2.392000e-02	0.0	5.149000e-02	2.525598e-02	0.0	5.869000e-02	2.655449e-02	0.0	6.633000e-02	2.781627e-02	0.0	7.440000e-02	2.904197e-02	0.0	8.290000e-02	3.023350e-02	0.0	9.181000e-02	3.138978e-02	0.0	1.011300e-01	3.251230e-02	0.0	1.108500e-01	3.360103e-02	0.0	1.209500e-01	3.465484e-02	0.0	1.314400e-01	3.567559e-02	0.0	1.422900e-01	3.666099e-02	0.0	1.534900e-01	3.761077e-02	0.0	1.650400e-01	3.852530e-02	0.0	1.769300e-01	3.940390e-02	0.0	1.891400e-01	4.024508e-02	0.0	2.016600e-01	4.104807e-02	0.0	2.144700e-01	4.181137e-02	0.0	2.275700e-01	4.253456e-02	0.0	2.409400e-01	4.321594e-02	0.0	2.545700e-01	4.385425e-02	0.0	2.684500e-01	4.444810e-02	0.0	2.825500e-01	4.499518e-02	0.0	2.968700e-01	4.549431e-02	0.0	3.114000e-01	4.594372e-02	0.0	3.261100e-01	4.634094e-02	0.0	3.409900e-01	4.668410e-02	0.0	3.560400e-01	4.697132e-02	0.0	3.712300e-01	4.720004e-02	0.0	3.865400e-01	4.736796e-02	0.0	4.019700e-01	4.747292e-02	0.0	4.175000e-01	4.751248e-02	0.0	4.331100e-01	4.748429e-02	0.0	4.487800e-01	4.738610e-02	0.0	4.645100e-01	4.721558e-02	0.0	4.802700e-01	4.697075e-02	0.0	4.960500e-01	4.664958e-02	0.0	5.118400e-01	4.625015e-02	0.0	5.276100e-01	4.577133e-02	0.0	5.433600e-01	4.521141e-02	0.0	5.590600e-01	4.457005e-02	0.0	5.747100e-01	4.384611e-02	0.0	5.902800e-01	4.304025e-02	0.0	6.057600e-01	4.215273e-02	0.0	6.211300e-01	4.118492e-02	0.0	6.363800e-01	4.013823e-02	0.0	6.515000e-01	3.901461e-02	0.0	6.664700e-01	3.781740e-02	0.0	6.812700e-01	3.655083e-02	0.0	6.958900e-01	3.521903e-02	0.0	7.103200e-01	3.382683e-02	0.0	7.245300e-01	3.238178e-02	0.0	7.385200e-01	3.088922e-02	0.0	7.522800e-01	2.935610e-02	0.0	7.657800e-01	2.779232e-02	0.0	7.790100e-01	2.620625e-02	0.0	7.919700e-01	2.460555e-02	0.0	8.046400e-01	2.300073e-02	0.0	8.170100e-01	2.140143e-02	0.0	8.290500e-01	1.982000e-02	0.0	8.407700e-01	1.826324e-02	0.0	8.521600e-01	1.673960e-02	0.0	8.631800e-01	1.525990e-02	0.0	8.738500e-01	1.382463e-02	0.0	8.841500e-01	1.243702e-02	0.0	8.940600e-01	1.109826e-02	0.0	9.035800e-01	9.806670e-03	0.0	9.127000e-01	8.564955e-03	0.0	9.214000e-01	7.384059e-03	0.0	9.296900e-01	6.280544e-03	0.0	9.375400e-01	5.285370e-03	0.0	9.449600e-01	4.427678e-03	0.0	9.519400e-01	3.732384e-03	0.0	9.584700e-01	3.205602e-03	0.0	9.645400e-01	2.827160e-03	0.0	9.701500e-01	2.552202e-03	0.0	9.752800e-01	2.324934e-03	0.0	9.799500e-01	2.093124e-03	0.0	9.841300e-01	1.827060e-03	0.0	9.878400e-01	1.519918e-03	0.0	9.910500e-01	1.190209e-03	0.0	9.937800e-01	8.630243e-04	0.0	9.960200e-01	5.666270e-04	0.0	9.977600e-01	3.231884e-04	0.0	9.990000e-01	1.450783e-04	0.0	9.997500e-01	3.632619e-05	0.0	1.000000e+00	0.000000e+00	0.0	
CELLS 200	600
2	199	0	2	0	1	2	1	2	2	2	3	2	3	4	2	4	5	2	5	6	2	6	7	2	7	8	2	8	9	2	9	10	2	10	11	2	11	12	2	12	13	2	13	14	2	14	15	2	15	16	2	16	17	2	17	18	2	18	19	2	19	20	2	20	21	2	21	22	2	22	23	2	23	24	2	24	25	2	25	26	2	26	27	2	27	28	2	28	29	2	29	30	2	30	31	2	31	32	2	32	33	2	33	34	2	34	35	2	35	36	2	36	37	2	37	38	2	38	39	2	39	40	2	40	41	2	41	42	2	42	43	2	43	44	2	44	45	2	45	46	2	46	47	2	47	48	2	48	49	2	49	50	2	50	51	2	51	52	2	52	53	2	53	54	2	54	55	2	55	56	2	56	57	2	57	58	2	58	59	2	59	60	2	60	61	2	61	62	2	62	63	2	63	64	2	64	65	2	65	66	2	66	67	2	67	68	2	68	69	2	69	70	2	70	71	2	71	72	2	72	73	2	73	74	2	74	75	2	75	76	2	76	77	2	77	78	2	78	79	2	79	80	2	80	81	2	81	82	2	82	83	2	83	84	2	84	85	2	85	86	2	86	87	2	87	88	2	88	89	2	89	90	2	90	91	2	91	92	2	92	93	2	93	94	2	94	95	2	95	96	2	96	97	2	97	98	2	98	99	2	99	100	2	100	101	2	101	102	2	102	103	2	103	104	2	104	105	2	105	106	2	106	107	2	107	108	2	108	109	2	109	110	2	110	111	2	111	112	2	112	113	2	113	114	2	114	115	2	115	116	2	116	117	2	117	118	2	118	119	2	119	120	2	120	121	2	121	122	2	122	123	2	123	124	2	124	125	2	125	126	2	126	127	2	127	128	2	128	129	2	129	130	2	130	131	2	131	132	2	132	133	2	133	134	2	134	135	2	135	136	2	136	137	2	137	138	2	138	139	2	139	140	2	140	141	2	141	142	2	142	143	2	143	144	2	144	145	2	145	146	2	146	147	2	147	148	2	148	149	2	149	150	2	150	151	2	151	152	2	152	153	2	153	154	2	154	155	2	155	156	2	156	157	2	157	158	2	158	159	2	159	160	2	160	161	2	161	162	2	162	163	2	163	164	2	164	165	2	165	166	2	166	167	2	167	168	2	168	169	2	169	170	2	170	171	2	171	172	2	172	173	2	173	174	2	174	175	2	175	176	2	176	177	2	177	178	2	178	179	2	179	180	2	180	181	2	181	182	2	182	183	2	183	184	2	184	185	2	185	186	2	186	187	2	187	188	2	188	189	2	189	190	2	190	191	2	191	192	2	192	193	2	193	194	2	194	195	2	195	196	2	196	197	2	197	198	2	198	199	
CELL_TYPES 200
3	3	3	3	3	3	3	3	3	3	3	3	3	3	3	3	3	3	3	3	3	3	3	3	3	3	3	3	3	3	3	3	3	3	3	3	3	3	3	3	3	3	3	3	3	3	3	3	3	3	3	3	3	3	3	3	3	3	3	3	3	3	3	3	3	3	3	3	3	3	3	3	3	3	3	3	3	3	3	3	3	3	3	3	3	3	3	3	3	3	3	3	3	3	3	3	3	3	3	3	3	3	3	3	3	3	3	3	3	3	3	3	3	3	3	3	3	3	3	3	3	3	3	3	3	3	3	3	3	3	3	3	3	3	3	3	3	3	3	3	3	3	3	3	3	3	3	3	3	3	3	3	3	3	3	3	3	3	3	3	3	3	3	3	3	3	3	3	3	3	3	3	3	3	3	3	3	3	3	3	3	3	3	3	3	3	3	3	3	3	3	3	3	3	3	3	3	3	3	3	
POINT_DATA 200

SCALARS Conservative_1 float 1
LOOKUP_TABLE default
-1.709539e-01	-2.155604e-01	-2.125713e-01	-2.103649e-01	-2.104216e-01	-2.078128e-01	-2.010099e-01	-1.877226e-01	-1.662534e-01	-1.361094e-01	-9.887416e-02	-5.842871e-02	-2.098005e-02	6.941622e-03	2.165760e-02	2.465279e-02	2.139355e-02	1.743370e-02	1.623783e-02	1.872461e-02	2.454979e-02	3.273925e-02	4.219449e-02	5.213960e-02	6.198458e-02	7.154721e-02	8.077350e-02	8.975039e-02	9.867339e-02	1.076050e-01	1.166686e-01	1.258559e-01	1.351293e-01	1.444204e-01	1.536663e-01	1.628230e-01	1.719137e-01	1.809779e-01	1.899691e-01	1.988179e-01	2.074501e-01	2.158370e-01	2.239522e-01	2.318067e-01	2.394001e-01	2.467494e-01	2.538664e-01	2.607776e-01	2.675770e-01	2.743202e-01	2.810321e-01	2.876209e-01	2.938045e-01	2.993447e-01	3.043920e-01	3.094166e-01	3.148865e-01	3.210012e-01	3.277500e-01	3.349994e-01	3.427733e-01	3.510782e-01	3.598525e-01	3.685777e-01	3.761832e-01	3.810228e-01	3.814413e-01	3.763840e-01	3.663134e-01	3.531538e-01	3.396129e-01	3.276509e-01	3.175274e-01	3.078676e-01	2.968642e-01	2.837468e-01	2.687842e-01	2.525074e-01	2.349281e-01	2.158972e-01	1.952849e-01	1.729756e-01	1.488001e-01	1.225275e-01	9.388065e-02	6.262869e-02	2.838351e-02	-9.123107e-03	-5.037945e-02	-9.560439e-02	-1.451945e-01	-1.989102e-01	-2.567330e-01	-3.162706e-01	-3.758916e-01	-4.279451e-01	-4.693418e-01	-4.965462e-01	-4.931313e-01	-4.650659e-01	-4.267538e-01	-3.397256e-01	-1.988793e-01	-4.692465e-02	9.237515e-02	2.073436e-01	2.936350e-01	3.555230e-01	3.985075e-01	4.278118e-01	4.470935e-01	4.586520e-01	4.647599e-01	4.671849e-01	4.673044e-01	4.663431e-01	4.648579e-01	4.629614e-01	4.607834e-01	4.584306e-01	4.557941e-01	4.524622e-01	4.483570e-01	4.439457e-01	4.397238e-01	4.358328e-01	4.320232e-01	4.280261e-01	4.238110e-01	4.194545e-01	4.150533e-01	4.105897e-01	4.059867e-01	4.012111e-01	3.961138e-01	3.905565e-01	3.843700e-01	3.776784e-01	3.707931e-01	3.641500e-01	3.578468e-01	3.516722e-01	3.453449e-01	3.387081e-01	3.316322e-01	3.239494e-01	3.155178e-01	3.064915e-01	2.973416e-01	2.883347e-01	2.791970e-01	2.694093e-01	2.585002e-01	2.465342e-01	2.338790e-01	2.207471e-01	2.072227e-01	1.932884e-01	1.789726e-01	1.642646e-01	1.492422e-01	1.339563e-01	1.184334e-01	1.027633e-01	8.695818e-02	7.112332e-02	5.530155e-02	3.962641e-02	2.413345e-02	8.922088e-03	-5.983789e-03	-2.046545e-02	-3.443642e-02	-4.776605e-02	-6.045279e-02	-7.233635e-02	-8.365757e-02	-9.464346e-02	-1.057576e-01	-1.175389e-01	-1.304412e-01	-1.444942e-01	-1.591209e-01	-1.729800e-01	-1.843446e-01	-1.914307e-01	-1.929461e-01	-1.885843e-01	-1.795144e-01	-1.687092e-01	-1.605700e-01	-1.595499e-01	-1.678692e-01	-1.847253e-01	-2.075976e-01	-2.346422e-01	-2.599941e-01	-2.846795e-01	-3.865533e-01	-2.907977e-01	
SCALARS Conservative_2 float 1
LOOKUP_TABLE default
1.035527e-01	2.226103e-01	2.417208e-01	2.503761e-01	2.584185e-01	2.608355e-01	2.566185e-01	2.428789e-01	2.175145e-01	1.799858e-01	1.326696e-01	8.085449e-02	3.250218e-02	-4.232643e-03	-2.469458e-02	-3.037963e-02	-2.765144e-02	-2.329942e-02	-2.171986e-02	-2.428390e-02	-3.074403e-02	-4.001683e-02	-5.083347e-02	-6.224839e-02	-7.356474e-02	-8.453547e-02	-9.509267e-02	-1.053295e-01	-1.154530e-01	-1.255486e-01	-1.357397e-01	-1.460259e-01	-1.563661e-01	-1.666902e-01	-1.769244e-01	-1.870217e-01	-1.970056e-01	-2.069184e-01	-2.167120e-01	-2.263111e-01	-2.356416e-01	-2.446724e-01	-2.533797e-01	-2.617748e-01	-2.698621e-01	-2.776580e-01	-2.851810e-01	-2.924593e-01	-2.995867e-01	-3.066224e-01	-3.135980e-01	-3.204183e-01	-3.268009e-01	-3.325105e-01	-3.376974e-01	-3.428351e-01	-3.483876e-01	-3.545451e-01	-3.612781e-01	-3.684542e-01	-3.760868e-01	-3.841919e-01	-3.926998e-01	-4.011100e-01	-4.083577e-01	-4.128320e-01	-4.128898e-01	-4.074967e-01	-3.970734e-01	-3.835031e-01	-3.694105e-01	-3.567128e-01	-3.456308e-01	-3.347835e-01	-3.223520e-01	-3.075127e-01	-2.904797e-01	-2.717018e-01	-2.511142e-01	-2.284705e-01	-2.035199e-01	-1.760042e-01	-1.455702e-01	-1.117617e-01	-7.402802e-02	-3.177453e-02	1.583792e-02	6.962420e-02	1.307861e-01	2.003932e-01	2.798968e-01	3.699586e-01	4.720296e-01	5.831985e-01	7.018609e-01	8.173145e-01	9.179356e-01	9.833276e-01	1.008446e+00	9.925132e-01	9.354919e-01	8.120591e-01	5.864605e-01	3.509083e-01	1.351139e-01	-3.798538e-02	-1.665652e-01	-2.593353e-01	-3.250662e-01	-3.713458e-01	-4.035502e-01	-4.251414e-01	-4.391791e-01	-4.479388e-01	-4.531588e-01	-4.563122e-01	-4.581778e-01	-4.590521e-01	-4.591808e-01	-4.587778e-01	-4.578082e-01	-4.559513e-01	-4.531665e-01	-4.499187e-01	-4.467058e-01	-4.436901e-01	-4.406588e-01	-4.373732e-01	-4.338048e-01	-4.300382e-01	-4.261731e-01	-4.221944e-01	-4.180415e-01	-4.136743e-01	-4.089635e-01	-4.037678e-01	-3.979333e-01	-3.915691e-01	-3.849844e-01	-3.785969e-01	-3.725096e-01	-3.665136e-01	-3.603343e-01	-3.538124e-01	-3.468172e-01	-3.391797e-01	-3.307457e-01	-3.216607e-01	-3.123810e-01	-3.031702e-01	-2.937647e-01	-2.836254e-01	-2.722770e-01	-2.597616e-01	-2.464459e-01	-2.325310e-01	-2.180928e-01	-2.031141e-01	-1.875987e-01	-1.715523e-01	-1.550260e-01	-1.380832e-01	-1.207364e-01	-1.030870e-01	-8.514001e-02	-6.701573e-02	-4.875700e-02	-3.051983e-02	-1.234548e-02	5.642733e-03	2.341065e-02	4.080722e-02	5.772188e-02	7.399863e-02	8.959935e-02	1.043730e-01	1.185863e-01	1.325506e-01	1.468554e-01	1.621946e-01	1.791337e-01	1.976836e-01	2.170342e-01	2.353588e-01	2.502888e-01	2.593955e-01	2.609631e-01	2.547102e-01	2.424599e-01	2.284702e-01	2.187722e-01	2.192239e-01	2.325394e-01	2.576471e-01	2.912307e-01	3.310498e-01	3.676019e-01	4.021550e-01	5.570719e-01	2.870576e-01	
SCALARS Conservative_3 float 1
LOOKUP_TABLE default
-1.189464e-01	-9.737782e-02	-9.776097e-02	-9.821265e-02	-1.043509e-01	-1.161419e-01	-1.329107e-01	-1.531148e-01	-1.741523e-01	-1.925174e-01	-2.044419e-01	-2.068991e-01	-1.989988e-01	-1.831262e-01	-1.642059e-01	-1.472908e-01	-1.353497e-01	-1.286248e-01	-1.258707e-01	-1.253296e-01	-1.255595e-01	-1.256325e-01	-1.250783e-01	-1.238712e-01	-1.220984e-01	-1.199777e-01	-1.176461e-01	-1.151891e-01	-1.126765e-01	-1.100795e-01	-1.074111e-01	-1.046362e-01	-1.017299e-01	-9.866783e-02	-9.543828e-02	-9.203838e-02	-8.848339e-02	-8.477945e-02	-8.093595e-02	-7.696276e-02	-7.286735e-02	-6.866367e-02	-6.436188e-02	-5.997499e-02	-5.551187e-02	-5.098246e-02	-4.639607e-02	-4.174648e-02	-3.705487e-02	-3.231488e-02	-2.750929e-02	-2.260688e-02	-1.759751e-02	-1.248261e-02	-7.268073e-03	-1.930631e-03	3.559578e-03	9.249725e-03	1.516736e-02	2.136568e-02	2.787621e-02	3.475915e-02	4.207489e-02	4.987075e-02	5.817265e-02	6.691624e-02	7.598424e-02	8.522721e-02	9.457236e-02	1.041398e-01	1.141776e-01	1.249695e-01	1.366430e-01	1.490661e-01	1.620211e-01	1.753958e-01	1.892913e-01	2.038785e-01	2.191705e-01	2.351591e-01	2.518609e-01	2.692692e-01	2.874000e-01	3.061719e-01	3.254786e-01	3.451672e-01	3.649378e-01	3.843092e-01	4.024910e-01	4.182916e-01	4.299174e-01	4.343977e-01	4.278217e-01	4.048409e-01	3.584697e-01	2.816682e-01	1.712873e-01	4.131609e-02	-1.031073e-01	-2.017324e-01	-2.940603e-01	-4.639641e-01	-6.181522e-01	-6.826473e-01	-6.834809e-01	-6.469139e-01	-5.925766e-01	-5.339343e-01	-4.780246e-01	-4.273118e-01	-3.824273e-01	-3.429727e-01	-3.084278e-01	-2.782384e-01	-2.518786e-01	-2.288354e-01	-2.085921e-01	-1.906487e-01	-1.746742e-01	-1.603473e-01	-1.473695e-01	-1.354651e-01	-1.244695e-01	-1.143502e-01	-1.050464e-01	-9.643189e-02	-8.837060e-02	-8.073806e-02	-7.348590e-02	-6.658839e-02	-5.999018e-02	-5.365025e-02	-4.751181e-02	-4.153896e-02	-3.570097e-02	-2.993471e-02	-2.421347e-02	-1.850714e-02	-1.284270e-02	-7.221599e-03	-1.624166e-03	4.004741e-03	9.687043e-03	1.543017e-02	2.123782e-02	2.713890e-02	3.314293e-02	3.922301e-02	4.534552e-02	5.149326e-02	5.769856e-02	6.398653e-02	7.031254e-02	7.661899e-02	8.284377e-02	8.898417e-02	9.503000e-02	1.009378e-01	1.066716e-01	1.121731e-01	1.174076e-01	1.223506e-01	1.269265e-01	1.311342e-01	1.348944e-01	1.382134e-01	1.410160e-01	1.433265e-01	1.450668e-01	1.462645e-01	1.468546e-01	1.468803e-01	1.463319e-01	1.453020e-01	1.438529e-01	1.422066e-01	1.404728e-01	1.388340e-01	1.373209e-01	1.357266e-01	1.335177e-01	1.298615e-01	1.238354e-01	1.148018e-01	1.028017e-01	8.880928e-02	7.474017e-02	6.316317e-02	5.677400e-02	5.748809e-02	6.548694e-02	7.861800e-02	9.297393e-02	1.050116e-01	1.130945e-01	1.172337e-01	1.185722e-01	1.324188e-01	1.244687e-01	-2.852213e-01	
SCALARS Conservative_4 float 1
LOOKUP_TABLE default
-1.489767e-02	-4.774010e-02	-4.962407e-02	-5.016891e-02	-5.111350e-02	-5.096876e-02	-4.959802e-02	-4.649658e-02	-4.126564e-02	-3.378159e-02	-2.443185e-02	-1.419972e-02	-4.649603e-03	2.492988e-03	6.230954e-03	6.921977e-03	5.969492e-03	4.858911e-03	4.466235e-03	5.050446e-03	6.497418e-03	8.556051e-03	1.094945e-02	1.345482e-02	1.594166e-02	1.834562e-02	2.067142e-02	2.293997e-02	2.518427e-02	2.744259e-02	2.972018e-02	3.203260e-02	3.436966e-02	3.671881e-02	3.905801e-02	4.137331e-02	4.367206e-02	4.595985e-02	4.823147e-02	5.046393e-02	5.264503e-02	5.476160e-02	5.681283e-02	5.879547e-02	6.071543e-02	6.257137e-02	6.437152e-02	6.612039e-02	6.783638e-02	6.953556e-02	7.123451e-02	7.290204e-02	7.446783e-02	7.587466e-02	7.715704e-02	7.843635e-02	7.982789e-02	8.138545e-02	8.309638e-02	8.493877e-02	8.690464e-02	8.900772e-02	9.121145e-02	9.339471e-02	9.526721e-02	9.643323e-02	9.646753e-02	9.514392e-02	9.257046e-02	8.925916e-02	8.585524e-02	8.285032e-02	8.028330e-02	7.781091e-02	7.499687e-02	7.164538e-02	6.784889e-02	6.371845e-02	5.926158e-02	5.443960e-02	4.922554e-02	4.358782e-02	3.749238e-02	3.087997e-02	2.369578e-02	1.587138e-02	7.337168e-03	-1.975814e-03	-1.215078e-02	-2.328083e-02	-3.531809e-02	-4.836892e-02	-6.212460e-02	-7.629139e-02	-8.997888e-02	-1.023275e-01	-1.108531e-01	-1.119651e-01	-1.083236e-01	-1.044896e-01	-9.765567e-02	-7.356408e-02	-3.838979e-02	-2.726777e-03	2.960917e-02	5.582987e-02	7.574350e-02	9.015437e-02	1.004808e-01	1.075790e-01	1.123894e-01	1.153055e-01	1.168966e-01	1.175622e-01	1.176449e-01	1.174373e-01	1.170949e-01	1.166454e-01	1.161169e-01	1.155509e-01	1.149071e-01	1.140957e-01	1.130848e-01	1.119860e-01	1.109271e-01	1.099480e-01	1.089928e-01	1.079984e-01	1.069409e-01	1.058466e-01	1.047395e-01	1.036109e-01	1.024544e-01	1.012446e-01	9.996385e-02	9.856068e-02	9.700827e-02	9.531992e-02	9.358313e-02	9.189780e-02	9.029885e-02	8.873219e-02	8.712683e-02	8.544130e-02	8.364736e-02	8.170278e-02	7.956542e-02	7.727512e-02	7.494859e-02	7.265302e-02	7.034631e-02	6.787053e-02	6.511211e-02	6.208395e-02	5.887688e-02	5.556005e-02	5.214357e-02	4.862449e-02	4.499583e-02	4.127955e-02	3.747837e-02	3.361215e-02	2.968592e-02	2.572098e-02	2.172416e-02	1.771764e-02	1.371711e-02	9.752458e-03	5.831489e-03	1.977847e-03	-1.798782e-03	-5.469756e-03	-9.004997e-03	-1.239153e-02	-1.558418e-02	-1.860450e-02	-2.146623e-02	-2.425045e-02	-2.706762e-02	-3.007044e-02	-3.336666e-02	-3.697510e-02	-4.072854e-02	-4.429041e-02	-4.720534e-02	-4.902126e-02	-4.941067e-02	-4.829960e-02	-4.600528e-02	-4.330845e-02	-4.136760e-02	-4.132996e-02	-4.368930e-02	-4.822579e-02	-5.428567e-02	-6.190051e-02	-6.863947e-02	-7.594291e-02	-1.296578e-01	-7.769402e-02	
SCALARS Surface_Sensitivity float 1
LOOKUP_TABLE default
-5.378647e+02	1.184188e+02	5.571646e+00	3.789666e+00	3.107985e+00	1.760681e+00	1.304949e+00	1.001149e+00	7.143355e-01	4.434677e-01	2.546130e-01	2.296307e-02	-2.860841e-01	-3.794907e-01	-1.442171e-01	1.757940e-01	3.173405e-01	2.854614e-01	1.956134e-01	1.194132e-01	6.315719e-02	2.879497e-02	1.569972e-02	1.199424e-02	1.757252e-02	2.487423e-02	3.190733e-02	3.573220e-02	2.950538e-02	1.881946e-02	8.379663e-03	8.113692e-03	1.730212e-02	2.676242e-02	3.124345e-02	2.992644e-02	2.119099e-02	9.785690e-03	3.355285e-03	1.913009e-03	5.801812e-03	1.221130e-02	2.021096e-02	2.211597e-02	1.470987e-02	-1.550684e-03	-1.154792e-02	-1.730477e-03	2.278249e-02	1.803378e-02	-5.688182e-02	-1.759477e-01	-2.464911e-01	-1.894241e-01	1.938697e-02	3.436332e-01	6.861669e-01	8.907956e-01	8.163088e-01	4.549654e-01	-6.603900e-02	-5.799288e-01	-9.714303e-01	-1.166869e+00	-1.125103e+00	-8.330390e-01	-3.388792e-01	2.391056e-01	7.046428e-01	8.835128e-01	7.100855e-01	3.016400e-01	-9.172049e-02	-2.461329e-01	-1.524347e-01	2.985883e-03	5.904898e-02	3.042257e-02	2.269708e-04	-1.419741e-02	-2.208810e-02	-2.647331e-02	-2.092127e-02	1.008175e-02	4.279946e-02	8.599504e-02	1.696570e-01	2.889174e-01	4.731969e-01	7.915750e-01	1.276735e+00	1.982098e+00	3.064346e+00	4.127470e+00	4.526101e+00	5.012704e+00	4.407165e+00	1.188490e+01	7.628397e+00	-7.486808e+00	3.001165e+01	3.217948e+01	2.272920e+01	1.826171e+01	8.983762e+00	4.115173e+00	2.724509e+00	2.019983e+00	1.311679e+00	7.069052e-01	2.075695e-01	-1.432255e-01	-3.471223e-01	-4.523435e-01	-3.298665e-01	-4.258838e-02	1.994459e-01	2.895842e-01	2.328490e-01	1.137662e-01	4.414615e-02	7.136058e-02	1.451166e-01	1.712952e-01	1.238856e-01	5.779801e-02	3.074945e-03	-2.978075e-02	-3.162898e-02	2.021231e-03	4.413179e-02	6.449569e-02	4.858595e-02	1.158868e-03	-7.115751e-02	-1.658478e-01	-2.686730e-01	-3.500999e-01	-3.678516e-01	-3.074291e-01	-2.029930e-01	-1.055257e-01	-3.870107e-02	7.638694e-03	4.633882e-02	7.818079e-02	1.072651e-01	1.447317e-01	1.782802e-01	1.587772e-01	7.203873e-02	-3.169205e-02	-7.714014e-02	-4.507597e-02	-1.567531e-03	-4.592494e-03	-3.474796e-02	-4.268763e-02	-2.572123e-02	-4.362532e-03	1.908276e-03	-3.380020e-03	-1.006320e-02	-1.606919e-02	-2.034253e-02	-2.328124e-02	-2.258683e-02	-2.224531e-02	-1.867102e-02	-2.007500e-02	-2.285024e-02	-2.700099e-02	-3.214700e-02	-3.498655e-02	-3.166047e-02	-3.389728e-02	-3.693128e-02	-4.832680e-02	-7.055163e-02	-1.048652e-01	-1.435448e-01	-1.765862e-01	-1.848908e-01	-1.609734e-01	-9.972517e-02	-1.332913e-02	7.533131e-02	1.265013e-01	8.383978e-02	-1.436915e-01	-6.602566e-01	-1.340086e+00	-1.983992e+00	-2.752252e+00	-4.873438e+00	-6.247504e+00	-1.022242e+01	-2.039177e+02	3.597805e+02	4.194224e+02	