# vtk DataFile Version 3.0
vtk output
ASCII
DATASET UNSTRUCTURED_GRID
POINTS 5233 float
9.997500e-01	-3.633567e-05	0.0	9.990000e-01	-1.456766e-04	0.0	9.977600e-01	-3.297400e-04	0.0	9.960200e-01	-6.019185e-04	0.0	9.937800e-01	-9.900668e-04	0.0	9.910500e-01	-1.539443e-03	0.0	9.878400e-01	-2.307742e-03	0.0	9.841300e-01	-3.355750e-03	0.0	9.799500e-01	-4.699150e-03	0.0	9.752800e-01	-6.311291e-03	0.0	9.701500e-01	-8.084250e-03	0.0	9.645400e-01	-9.881370e-03	0.0	9.584700e-01	-1.154880e-02	0.0	9.519400e-01	-1.298350e-02	0.0	9.449600e-01	-1.415578e-02	0.0	9.375400e-01	-1.511472e-02	0.0	9.296900e-01	-1.596245e-02	0.0	9.214000e-01	-1.681741e-02	0.0	9.127000e-01	-1.777341e-02	0.0	9.035800e-01	-1.888735e-02	0.0	8.940600e-01	-2.016730e-02	0.0	8.841500e-01	-2.158491e-02	0.0	8.738500e-01	-2.309013e-02	0.0	8.631800e-01	-2.462129e-02	0.0	8.521600e-01	-2.611994e-02	0.0	8.407700e-01	-2.754344e-02	0.0	8.290500e-01	-2.885544e-02	0.0	8.170100e-01	-3.003840e-02	0.0	8.046400e-01	-3.108922e-02	0.0	7.919700e-01	-3.201117e-02	0.0	7.790100e-01	-3.281636e-02	0.0	7.657800e-01	-3.351998e-02	0.0	7.522800e-01	-3.413925e-02	0.0	7.385200e-01	-3.468966e-02	0.0	7.245300e-01	-3.518367e-02	0.0	7.103200e-01	-3.563162e-02	0.0	6.958900e-01	-3.604108e-02	0.0	6.812700e-01	-3.641616e-02	0.0	6.664700e-01	-3.675965e-02	0.0	6.515000e-01	-3.707322e-02	0.0	6.363800e-01	-3.735803e-02	0.0	6.211300e-01	-3.761558e-02	0.0	6.057600e-01	-3.784840e-02	0.0	5.902800e-01	-3.806003e-02	0.0	5.747100e-01	-3.825501e-02	0.0	5.590600e-01	-3.843894e-02	0.0	5.433600e-01	-3.861787e-02	0.0	5.276100e-01	-3.879846e-02	0.0	5.118400e-01	-3.898684e-02	0.0	4.960500e-01	-3.918887e-02	0.0	4.802700e-01	-3.940907e-02	0.0	4.645100e-01	-3.965084e-02	0.0	4.487800e-01	-3.991607e-02	0.0	4.331100e-01	-4.020463e-02	0.0	4.175000e-01	-4.051521e-02	0.0	4.019700e-01	-4.084451e-02	0.0	3.865400e-01	-4.118768e-02	0.0	3.712300e-01	-4.153857e-02	0.0	3.560400e-01	-4.189041e-02	0.0	3.409900e-01	-4.223515e-02	0.0	3.261100e-01	-4.256398e-02	0.0	3.114000e-01	-4.286846e-02	0.0	2.968700e-01	-4.313981e-02	0.0	2.825500e-01	-4.336904e-02	0.0	2.684500e-01	-4.354786e-02	0.0	2.545700e-01	-4.366841e-02	0.0	2.409400e-01	-4.372307e-02	0.0	2.275700e-01	-4.370505e-02	0.0	2.144700e-01	-4.360812e-02	0.0	2.016600e-01	-4.342679e-02	0.0	1.891400e-01	-4.315596e-02	0.0	1.769300e-01	-4.279142e-02	0.0	1.650400e-01	-4.232949e-02	0.0	1.534900e-01	-4.176757e-02	0.0	1.422900e-01	-4.110348e-02	0.0	1.314400e-01	-4.033491e-02	0.0	1.209500e-01	-3.946064e-02	0.0	1.108500e-01	-3.848223e-02	0.0	1.011300e-01	-3.739842e-02	0.0	9.181000e-02	-3.621169e-02	0.0	8.290000e-02	-3.492456e-02	0.0	7.440000e-02	-3.353890e-02	0.0	6.633000e-02	-3.206076e-02	0.0	5.869000e-02	-3.049391e-02	0.0	5.149000e-02	-2.884483e-02	0.0	4.474000e-02	-2.712130e-02	0.0	3.844000e-02	-2.532940e-02	0.0	3.260000e-02	-2.347859e-02	0.0	2.723000e-02	-2.157952e-02	0.0	2.232000e-02	-1.963574e-02	0.0	1.790000e-02	-1.766680e-02	0.0	1.395000e-02	-1.567093e-02	0.0	1.049000e-02	-1.366361e-02	0.0	7.520000e-03	-1.164965e-02	0.0	5.040000e-03	-9.630007e-03	0.0	3.050000e-03	-7.599028e-03	0.0	1.560000e-03	-5.554518e-03	0.0	5.600000e-04	-3.448961e-03	0.0	6.000000e-05	-1.209950e-03	0.0	0.000000e+00	0.000000e+00	0.0	6.000000e-05	1.165984e-03	0.0	5.600000e-04	3.217610e-03	0.0	1.560000e-03	5.046267e-03	0.0	3.050000e-03	6.742089e-03	0.0	5.040000e-03	8.361117e-03	0.0	7.520000e-03	9.917890e-03	0.0	1.049000e-02	1.142809e-02	0.0	1.395000e-02	1.290098e-02	0.0	1.790000e-02	1.434212e-02	0.0	2.232000e-02	1.574882e-02	0.0	2.723000e-02	1.713017e-02	0.0	3.260000e-02	1.847953e-02	0.0	3.844000e-02	1.980113e-02	0.0	4.474000e-02	2.109360e-02	0.0	5.149000e-02	2.235583e-02	0.0	5.869000e-02	2.358860e-02	0.0	6.633000e-02	2.479090e-02	0.0	7.440000e-02	2.596197e-02	0.0	8.290000e-02	2.710264e-02	0.0	9.181000e-02	2.821116e-02	0.0	1.011300e-01	2.928860e-02	0.0	1.108500e-01	3.033487e-02	0.0	1.209500e-01	3.134906e-02	0.0	1.314400e-01	3.233336e-02	0.0	1.422900e-01	3.328619e-02	0.0	1.534900e-01	3.420807e-02	0.0	1.650400e-01	3.510027e-02	0.0	1.769300e-01	3.596311e-02	0.0	1.891400e-01	3.679624e-02	0.0	2.016600e-01	3.759992e-02	0.0	2.144700e-01	3.837370e-02	0.0	2.275700e-01	3.911813e-02	0.0	2.409400e-01	3.983231e-02	0.0	2.545700e-01	4.051564e-02	0.0	2.684500e-01	4.116712e-02	0.0	2.825500e-01	4.178450e-02	0.0	2.968700e-01	4.236650e-02	0.0	3.114000e-01	4.291084e-02	0.0	3.261100e-01	4.341412e-02	0.0	3.409900e-01	4.387327e-02	0.0	3.560400e-01	4.428501e-02	0.0	3.712300e-01	4.464482e-02	0.0	3.865400e-01	4.494826e-02	0.0	4.019700e-01	4.519103e-02	0.0	4.175000e-01	4.536820e-02	0.0	4.331100e-01	4.547483e-02	0.0	4.487800e-01	4.550607e-02	0.0	4.645100e-01	4.545714e-02	0.0	4.802700e-01	4.532338e-02	0.0	4.960500e-01	4.510031e-02	0.0	5.118400e-01	4.478360e-02	0.0	5.276100e-01	4.436963e-02	0.0	5.433600e-01	4.385448e-02	0.0	5.590600e-01	4.323560e-02	0.0	5.747100e-01	4.250994e-02	0.0	5.902800e-01	4.167656e-02	0.0	6.057600e-01	4.073476e-02	0.0	6.211300e-01	3.968578e-02	0.0	6.363800e-01	3.853195e-02	0.0	6.515000e-01	3.727757e-02	0.0	6.664700e-01	3.593004e-02	0.0	6.812700e-01	3.449945e-02	0.0	6.958900e-01	3.299739e-02	0.0	7.103200e-01	3.143751e-02	0.0	7.245300e-01	2.983719e-02	0.0	7.385200e-01	2.821115e-02	0.0	7.522800e-01	2.657470e-02	0.0	7.657800e-01	2.494392e-02	0.0	7.790100e-01	2.332979e-02	0.0	7.919700e-01	2.173853e-02	0.0	8.046400e-01	2.017490e-02	0.0	8.170100e-01	1.863871e-02	0.0	8.290500e-01	1.712918e-02	0.0	8.407700e-01	1.563834e-02	0.0	8.521600e-01	1.415935e-02	0.0	8.631800e-01	1.268874e-02	0.0	8.738500e-01	1.121507e-02	0.0	8.841500e-01	9.732883e-03	0.0	8.940600e-01	8.239735e-03	0.0	9.035800e-01	6.737229e-03	0.0	9.127000e-01	5.241896e-03	0.0	9.214000e-01	3.792818e-03	0.0	9.296900e-01	2.449331e-03	0.0	9.375400e-01	1.298587e-03	0.0	9.449600e-01	4.270218e-04	0.0	9.519400e-01	-9.663731e-05	0.0	9.584700e-01	-2.543267e-04	0.0	9.645400e-01	-9.681990e-05	0.0	9.701500e-01	2.627956e-04	0.0	9.752800e-01	6.783856e-04	0.0	9.799500e-01	1.018743e-03	0.0	9.841300e-01	1.197864e-03	0.0	9.878400e-01	1.196092e-03	0.0	9.910500e-01	1.046808e-03	0.0	9.937800e-01	8.108982e-04	0.0	9.960200e-01	5.521544e-04	0.0	9.977600e-01	3.205025e-04	0.0	9.990000e-01	1.448331e-04	0.0	9.997500e-01	3.632230e-05	0.0	1.000000e+00	0.000000e+00	0.0	1.984229e+01	2.506660e+00	0.0	1.937166e+01	4.973800e+00	0.0	1.859553e+01	7.362490e+00	0.0	1.752613e+01	9.635070e+00	0.0	1.618034e+01	1.175571e+01	0.0	1.457937e+01	1.369094e+01	0.0	1.274848e+01	1.541027e+01	0.0	1.071654e+01	1.688656e+01	0.0	8.515590e+00	1.809654e+01	0.0	6.180340e+00	1.902113e+01	0.0	3.747630e+00	1.964575e+01	0.0	1.255810e+00	1.996053e+01	0.0	-1.255810e+00	1.996053e+01	0.0	-3.747630e+00	1.964574e+01	0.0	-6.180340e+00	1.902113e+01	0.0	-8.515590e+00	1.809654e+01	0.0	-1.071654e+01	1.688656e+01	0.0	-1.274848e+01	1.541026e+01	0.0	-1.457937e+01	1.369094e+01	0.0	-1.618034e+01	1.175570e+01	0.0	-1.752613e+01	9.635070e+00	0.0	-1.859553e+01	7.362490e+00	0.0	-1.937166e+01	4.973800e+00	0.0	-1.984229e+01	2.506660e+00	0.0	-2.000000e+01	0.000000e+00	0.0	-1.984229e+01	-2.506670e+00	0.0	-1.937166e+01	-4.973800e+00	0.0	-1.859553e+01	-7.362490e+00	0.0	-1.752613e+01	-9.635080e+00	0.0	-1.618034e+01	-1.175571e+01	0.0	-1.457937e+01	-1.369094e+01	0.0	-1.274848e+01	-1.541027e+01	0.0	-1.071653e+01	-1.688656e+01	0.0	-8.515580e+00	-1.809654e+01	0.0	-6.180340e+00	-1.902113e+01	0.0	-3.747620e+00	-1.964575e+01	0.0	-1.255810e+00	-1.996053e+01	0.0	1.255810e+00	-1.996053e+01	0.0	3.747630e+00	-1.964574e+01	0.0	6.180340e+00	-1.902113e+01	0.0	8.515590e+00	-1.809654e+01	0.0	1.071654e+01	-1.688656e+01	0.0	1.274848e+01	-1.541026e+01	0.0	1.457937e+01	-1.369094e+01	0.0	1.618034e+01	-1.175570e+01	0.0	1.752614e+01	-9.635070e+00	0.0	1.859553e+01	-7.362490e+00	0.0	1.937166e+01	-4.973790e+00	0.0	1.984229e+01	-2.506660e+00	0.0	2.000000e+01	0.000000e+00	0.0	6.108543e-02	-3.816081e-02	0.0	6.596172e-01	-5.067234e-02	0.0	4.254823e-01	5.960561e-02	0.0	6.898002e-01	4.694629e-02	0.0	3.791921e-01	-5.563837e-02	0.0	9.994689e-01	-7.250062e-04	0.0	9.985588e-01	-1.332456e-03	0.0	7.734184e-01	-4.509776e-02	0.0	6.892983e-01	-4.963698e-02	0.0	-8.295809e-04	4.943661e-03	0.0	7.463101e-01	-4.690708e-02	0.0	5.833279e-01	5.609672e-02	0.0	9.928466e-01	-3.842914e-03	0.0	9.899844e-01	-4.961129e-03	0.0	5.989134e-01	5.512239e-02	0.0	7.182378e-01	-4.839355e-02	0.0	-1.259563e-03	5.821333e-04	0.0	9.866441e-01	-6.298783e-03	0.0	9.828301e-01	-7.864162e-03	0.0	-9.282261e-04	-5.357317e-03	0.0	6.445386e-01	-5.112162e-02	0.0	8.242638e-01	-4.018574e-02	0.0	7.994356e-01	-4.289061e-02	0.0	3.484143e-01	5.784969e-02	0.0	8.477560e-01	-3.701395e-02	0.0	2.473350e-01	5.273721e-02	0.0	8.698460e-01	-3.351068e-02	0.0	1.069248e-02	1.538683e-02	0.0	8.904306e-01	-2.996792e-02	0.0	7.735916e-02	-4.190365e-02	0.0	9.094521e-01	-2.669816e-02	0.0	-1.478661e-03	-2.676463e-03	0.0	9.425480e-01	-2.093126e-02	0.0	9.268504e-01	-2.379018e-02	0.0	1.834955e-02	-2.265862e-02	0.0	4.256822e-01	-5.492430e-02	0.0	8.589855e-01	-3.528594e-02	0.0	9.564615e-01	-1.760702e-02	0.0	9.785310e-01	-9.669528e-03	0.0	9.684787e-01	-1.367019e-02	0.0	1.586193e-01	-5.258852e-02	0.0	9.001424e-01	-2.828514e-02	0.0	7.599951e-01	-4.604754e-02	0.0	9.971456e-01	-2.101231e-03	0.0	5.985333e-01	-5.222813e-02	0.0	4.413404e-01	-5.468201e-02	0.0	5.359436e-01	-5.329045e-02	0.0	4.728216e-01	-5.420881e-02	0.0	5.043907e-01	-5.375006e-02	0.0	4.885946e-01	-5.397711e-02	0.0	1.252951e-01	-4.941830e-02	0.0	2.822709e-02	-2.739316e-02	0.0	3.945962e-01	-5.540735e-02	0.0	4.657429e-02	-3.407460e-02	0.0	4.100942e-01	-5.516843e-02	0.0	3.189296e-01	-5.636472e-02	0.0	3.487596e-01	-5.605948e-02	0.0	3.387980e-02	-2.967084e-02	0.0	2.897807e-01	-5.650310e-02	0.0	9.349173e-01	-2.238667e-02	0.0	1.471574e-01	-5.164092e-02	0.0	1.950012e-01	-5.476438e-02	0.0	8.613286e-02	-4.362592e-02	0.0	1.049270e-01	-4.675266e-02	0.0	5.673664e-01	-5.280585e-02	0.0	1.704241e-01	-5.342559e-02	0.0	6.139885e-01	-5.189378e-02	0.0	8.803343e-01	-3.172395e-02	0.0	2.306074e-02	-2.505133e-02	0.0	9.952398e-01	-2.914818e-03	0.0	7.155019e-03	-1.536326e-02	0.0	1.868945e-02	1.918506e-02	0.0	9.183568e-01	-2.520858e-02	0.0	9.49
[...]
POINT_DATA 5233

SCALARS Conservative_1 float 1
LOOKUP_TABLE default
1.194908e+00	1.179154e+00	1.172169e+00	1.169544e+00	1.168222e+00	1.165352e+00	1.157037e+00	1.140441e+00	1.113038e+00	1.074313e+00	1.024612e+00	9.626703e-01	9.066230e-01	8.845196e-01	8.954438e-01	9.232722e-01	9.533875e-01	9.754435e-01	9.862561e-01	9.866612e-01	9.783726e-01	9.635570e-01	9.446089e-01	9.233595e-01	8.996897e-01	8.736578e-01	8.503318e-01	8.363218e-01	8.333156e-01	8.385604e-01	8.481962e-01	8.591957e-01	8.698692e-01	8.793115e-01	8.873817e-01	8.941650e-01	8.998966e-01	9.048585e-01	9.092663e-01	9.133791e-01	9.173325e-01	9.212633e-01	9.251891e-01	9.291179e-01	9.329679e-01	9.366640e-01	9.400837e-01	9.431327e-01	9.456948e-01	9.476875e-01	9.490177e-01	9.496354e-01	9.494901e-01	9.485648e-01	9.468444e-01	9.443380e-01	9.410572e-01	9.370333e-01	9.323089e-01	9.269316e-01	9.209753e-01	9.144531e-01	9.073588e-01	8.996594e-01	8.915856e-01	8.835114e-01	8.755910e-01	8.670484e-01	8.564916e-01	8.432536e-01	8.295518e-01	8.191223e-01	8.140715e-01	8.138910e-01	8.170906e-01	8.223600e-01	8.292218e-01	8.375681e-01	8.472500e-01	8.581752e-01	8.703616e-01	8.837748e-01	8.984778e-01	9.144687e-01	9.318089e-01	9.506086e-01	9.709010e-01	9.928173e-01	1.016583e+00	1.042280e+00	1.070283e+00	1.101102e+00	1.135104e+00	1.173168e+00	1.215717e+00	1.262021e+00	1.307437e+00	1.347984e+00	1.348001e+00	1.321568e+00	1.296589e+00	1.222690e+00	1.088570e+00	9.925935e-01	9.285540e-01	8.889524e-01	8.651359e-01	8.500697e-01	8.397111e-01	8.322779e-01	8.268087e-01	8.226409e-01	8.195282e-01	8.171355e-01	8.153861e-01	8.143360e-01	8.138554e-01	8.138091e-01	8.141983e-01	8.151577e-01	8.169811e-01	8.198351e-01	8.235679e-01	8.277536e-01	8.319635e-01	8.359213e-01	8.394396e-01	8.423622e-01	8.446497e-01	8.464138e-01	8.477912e-01	8.488458e-01	8.495527e-01	8.498549e-01	8.497197e-01	8.491284e-01	8.480915e-01	8.466169e-01	8.447086e-01	8.423740e-01	8.396006e-01	8.363843e-01	8.327883e-01	8.289391e-01	8.249355e-01	8.208108e-01	8.165526e-01	8.124340e-01	8.092702e-01	8.087919e-01	8.130878e-01	8.232404e-01	8.373342e-01	8.509481e-01	8.609944e-01	8.682321e-01	8.750077e-01	8.830765e-01	8.928935e-01	9.038374e-01	9.151745e-01	9.266112e-01	9.380811e-01	9.494687e-01	9.605166e-01	9.710318e-01	9.808233e-01	9.898027e-01	9.978752e-01	1.005118e+00	1.011602e+00	1.017500e+00	1.023053e+00	1.028523e+00	1.034213e+00	1.040451e+00	1.047613e+00	1.056183e+00	1.066663e+00	1.079558e+00	1.094965e+00	1.112356e+00	1.130266e+00	1.146693e+00	1.159287e+00	1.165741e+00	1.164040e+00	1.152876e+00	1.132109e+00	1.104087e+00	1.075018e+00	1.052683e+00	1.044527e+00	1.053658e+00	1.075738e+00	1.102842e+00	1.129823e+00	1.156222e+00	1.184516e+00	1.174613e+00	9.999828e-01	9.999865e-01	9.999802e-01	9.999681e-01	9.999565e-01	9.999428e-01	9.999207e-01	9.998874e-01	9.998482e-01	9.998133e-01	9.997886e-01	9.997930e-01	9.998272e-01	9.998982e-01	9.999597e-01	1.000009e+00	1.000035e+00	1.000050e+00	1.000058e+00	1.000061e+00	1.000061e+00	1.000061e+00	1.000060e+00	1.000061e+00	1.000061e+00	1.000063e+00	1.000067e+00	1.000071e+00	1.000077e+00	1.000086e+00	1.000096e+00	1.000109e+00	1.000120e+00	1.000134e+00	1.000140e+00	1.000135e+00	1.000120e+00	1.000098e+00	1.000082e+00	1.000073e+00	1.000072e+00	1.000070e+00	1.000066e+00	1.000059e+00	1.000049e+00	1.000036e+00	1.000029e+00	1.000023e+00	1.000002e+00	9.999790e-01	9.211973e-01	9.130111e-01	8.268235e-01	9.358475e-01	9.391012e-01	1.179027e+00	1.171998e+00	8.597294e-01	9.044376e-01	1.218005e+00	8.787310e-01	8.706872e-01	1.156911e+00	1.149775e+00	8.770665e-01	8.935576e-01	1.316510e+00	1.137681e+00	1.118478e+00	1.326884e+00	9.169081e-01	8.505566e-01	8.432064e-01	8.441314e-01	8.943202e-01	8.526651e-01	9.376340e-01	9.043151e-01	9.692895e-01	8.904349e-01	9.821554e-01	1.344721e+00	9.230104e-01	9.649544e-01	1.076680e+00	9.472326e-01	9.178513e-01	9.185384e-01	1.091090e+00	1.009796e+00	8.211746e-01	9.789856e-01	8.695878e-01	1.165295e+00	9.282069e-01	9.484825e-01	9.417376e-01	9.488115e-01	9.464142e-01	9.479356e-01	8.357114e-01	1.023187e+00	9.425297e-01	9.573070e-01	9.452452e-01	9.190924e-01	9.302523e-01	9.995004e-01	9.057029e-01	9.450767e-01	8.237789e-01	8.414061e-01	8.769639e-01	8.536869e-01	9.354231e-01	8.226033e-01	9.244709e-01	9.548822e-01	1.048827e+00	1.161361e+00	1.176685e+00	8.662064e-01	9.776172e-01	9.097961e-01	1.055642e+00	1.129708e+00	8.694979e-01	8.832646e-01	9.387426e-01	8.867141e-01	8.502086e-01	8.439833e-01	8.670076e-01	9.318862e-01	9.089170e-01	9.385559e-01	1.215930e+00	1.107046e+00	9.349920e-01	8.295199e-01	1.205247e+00	8.759129e-01	8.647195e-01	9.126957e-01	8.905731e-01	9.490058e-01	8.994048e-01	1.286305e+00	1.296486e+00	8.345553e-01	1.331578e+00	8.458716e-01	8.270145e-01	8.340522e-01	8.274261e-01	8.306705e-01	1.121225e+00	8.217432e-01	8.151470e-01	1.112781e+00	1.143700e+00	1.063285e+00	8.130828e-01	8.228572e-01	8.379959e-01	1.116641e+00	1.087362e+00	8.226991e-01	1.091962e+00	1.149524e+00	1.141784e+00	8.230411e-01	8.248920e-01	8.514762e-01	8.526905e-01	8.449999e-01	8.486051e-01	8.188199e-01	8.344190e-01	8.385824e-01	8.309538e-01	8.926783e-01	8.491007e-01	8.514906e-01	9.138902e-01	8.622045e-01	9.773408e-01	9.574287e-01	1.008830e+00	9.945298e-01	1.032644e+00	1.021019e+00	1.074430e+00	1.045866e+00	1.148581e+00	1.101750e+00	1.131054e+00	1.038906e+00	1.053874e+00	1.015105e+00	1.026777e+00	9.863123e-01	1.002027e+00	9.467453e-01	9.676761e-01	9.029559e-01	9.248852e-01	8.496577e-01	8.839575e-01	8.504482e-01	8.522488e-01	8.420478e-01	8.473359e-01	8.300213e-01	8.348063e-01	8.820296e-01	8.392355e-01	8.551726e-01	9.841626e-01	9.564117e-01	8.420969e-01	9.249325e-01	9.443270e-01	1.049503e+00	8.545649e-01	9.366116e-01	8.224699e-01	8.235021e-01	8.522939e-01	8.246827e-01	1.073776e+00	1.063711e+00	8.502415e-01	1.065637e+00	1.078765e+00	8.465734e-01	8.412669e-01	1.130569e+00	1.200246e+00	1.144306e+00	1.164887e+00	9.207019e-01	9.775898e-01	1.098862e+00	8.146272e-01	1.257259e+00	1.140360e+00	9.051634e-01	8.289127e-01	8.981816e-01	8.336020e-01	1.196970e+00	1.259727e+00	9.045653e-01	9.041487e-01	9.761888e-01	1.169993e+00	8.720634e-01	9.086696e-01	8.616158e-01	1.132789e+00	9.232220e-01	9.135283e-01	8.709374e-01	8.844419e-01	1.300993e+00	8.663668e-01	1.106802e+00	9.619931e-01	8.323827e-01	8.989847e-01	9.166419e-01	9.481055e-01	8.978138e-01	9.407223e-01	9.712734e-01	8.547596e-01	9.682334e-01	8.906875e-01	9.238222e-01	1.030867e+00	8.330620e-01	9.342791e-01	8.479825e-01	1.051603e+00	1.077863e+00	8.486286e-01	8.240466e-01	1.135425e+00	1.060136e+00	1.083765e+00	1.133577e+00	1.089005e+00	8.556712e-01	8.507640e-01	8.552066e-01	8.315527e-01	9.128047e-01	8.545205e-01	9.348807e-01	8.418673e-01	8.433043e-01	1.115826e+00	1.096611e+00	1.069829e+00	8.308864e-01	1.209406e+00	1.131380e+00	1.113055e+00	1.012446e+00	1.129919e+00	1.204235e+00	1.331150e+00	1.319434e+00	1.078313e+00	1.212056e+00	9.281402e-01	1.161928e+00	1.150361e+00	8.329497e-01	9.404408e-01	1.117859e+00	9.478194e-01	8.793621e-01	1.143256e+00	1.324567e+00	9.472664e-01	8.364833e-01	8.917862e-01	8.549264e-01	9.320838e-01	9.612173e-01	9.123684e-01	9.765501e-01	9.697852e-01	9.342211e-01	1.027426e+00	9.380275e-01	1.000248e+00	1.097037e+00	8.436147e-01	8.785168e-01	8.700781e-01	1.156083e+00	9.482791e-01	9.478153e-01	9.467318e-01	1.052041e+00	9.435759e-01	9.457635e-01	9.284260e-01	9.833480e-01	9.581037e-01	9.440824e-01	8.370077e-01	8.722372e-01	9.375320e-01	9.275185e-01	1.038395e+00	1.070520e+00	8.931000e-01	8.863140e-01	8.613407e-01	8.517661e-01	9.343681e-01	9.309927e-01	9.636418e-01	9.452511e-01	1.137257e+00	9.330958e-01	9.372193e-01	8.342381e-01	8.426628e-01	8.760017e-01	8.835538e-01	9.113079e-01	9.175430e-01	8.904598e-01	1.301909e+00	1.239711e+00	8.487712e-01	1.079714e+00	8.342127e-01	8.194786e-01	8.194631e-01	8.220152e-01	1.102228e+00	1.126843e+00	1.104575e+00	8.255986e-01	8.293120e-01	8.399280e-01	1.092476e+00	1.132597e+00	8.359051e-01	8.390710e-01	8.558012e-01	8.555528e-01	8.450910e-01	8.386159e-01	8.355575e-01	1.005960e+00	9.742100e-01	9.647841e-01	9.989518e-01	1.024804e+00	1.080667e+00	1.044020e+00	1.037187e+00	1.018798e+00	1.012576e+00	9.913077e-01	9.830594e-01	9.548950e-01	9.446680e-01	9.133477e-01	9.030900e-01	8.617615e-01	8.481780e-01	8.937428e-01	8.859523e-01	8.544435e-01	8.534226e-01	8.520920e-01	8.503264e-01	9.098755e-01	8.558048e-01	8.647621e-01	8.520684e-01	8.568895e-01	9.451135e-01	9.429813e-01	1.067887e+00	8.760779e-01	8.312495e-01	8.320056e-01	8.525238e-01	8.539096e-01	8.431841e-01	8.461111e-01	1.125808e+00	1.116069e+00	9.239512e-01	9.203514e-01	1.004532e+00	1.273821e+00	8.974590e-01	1.298242e+00	9.420814e-01	9.103917e-01	8.664679e-01	9.418039e-01	9.724786e-01	1.089583e+00	1.086700e+00	1.120204e+00	1.079003e+00	1.098085e+00	1.149111e+00	1.174372e+00	1.151628e+00	1.194975e+00	1.079878e+00	1.281351e+00	8.926913e-01	9.665311e-01	1.129607e+00	8.735539e-01	1.170214e+00	1.193362e+00	9.041859e-01	1.252772e+00	8.991289e-01	1.105995e+00	9.434685e-01	1.163168e+00	9.269747e-01	9.288625e-01	9.087280e-01	1.138805e+00	1.134052e+00	1.096290e+00	8.359164e-01	1.123095e+00	9.238723e-01	1.110209e+00	8.282418e-01	8.584150e-01	8.531118e-01	8.512399e-01	8.463320e-01	1.162972e+00	1.274671e+00	1.180638e+00	9.320389e-01	1.237060e+00	9.984657e-01	9.059096e-01	1.311960e+00	8.415943e-01	9.477039e-01	1.055166e+00	9.906169e-01	1.029078e+00	1.003526e+00	9.338125e-01	1.089269e+00	1.123408e+00	1.065479e+00	1.056872e+00	8.549463e-01	8.576054e-01	8.587973e-01	8.399170e-01	9.166227e-01	9.128215e-01	8.659361e-01	9.581627e-01	8.484464e-01	1.105224e+00	1.122328e+00	1.031153e+00	1.130042e+00	1.223624e+00	1.308307e+00	1.031638e+00	1.180640e+00	1.173888e+00	1.029461e+00	1.117812e+00	8.821583e-01	9.472176e-01	8.390769e-01	8.915992e-01	9.113132e-01	9.558586e-01	9.658099e-01	9.357374e-01	9.202741e-01	9.722819e-01	9.746085e-01	9.551385e-01	9.707340e-01	1.102195e+00	8.796148e-01	8.725220e-01	1.144988e+00	9.475964e-01	9.468850e-01	9.444195e-01	9.461182e-01	1.009885e+00	9.585765e-01	9.528016e-01	8.522593e-01	8.458042e-01	9.393169e-01	9.365446e-01	1.057555e+00	1.081878e+00	8.933453e-01	8.868261e-01	8.806485e-01	8.696346e-01	8.601029e-01	9.335218e-01	9.303472e-01	9.897076e-01	9.705332e-01	9.524558e-01	9.315217e-01	9.356134e-01	9.391318e-01	8.415311e-01	8.461430e-01	8.550981e-01	8.760871e-01	8.841933e-01	9.164232e-01	9.219172e-01	8.910248e-01	8.624759e-01	8.254696e-01	8.262943e-01	1.113799e+00	8.290773e-01	8.324251e-01	8.357831e-01	8.422900e-01	1.094818e+00	8.505332e-01	8.558466e-01	8.588686e-01	8.589964e-01	8.456184e-01	8.432148e-01	8.412455e-01	9.720470e-01	1.084782e+00	1.074785e+00	1.049046e+00	1.041935e+00	1.035414e+00	1.022856e+00	1.016675e+00	1.010270e+00	9.964459e-01	9.888412e-01	9.806823e-01	9.629478e-01	9.534512e-01	9.437174e-01	9.139427e-01	8.615677e-01	8.480855e-01	9.044465e-01	8.959953e-01	8.889032e-01	8.583236e-01	8.575839e-01	8.566079e-01	8.553145e-01	8.535704e-01	8.708846e-01	8.815975e-01	8.630565e-01	8.652416e-01	8.747973e-01	9.456664e-01	9.439306e-01	8.949138e-01	9.112935e-01	8.397292e-01	8.409190e-01	8.431617e-01	8.564570e-01	8.454322e-01	8.483844e-01	8.509588e-01	1.119442e+00	1.112995e+00	1.104543e+00	9.270487e-01	9.236784e-01	9.202062e-01	8.974557e-01	9.040198e-01	1.273251e+00	9.014906e-01	1.116938e+00	1.094729e+00	9.408789e-01	1.255134e+00	1.156724e+00	9.719035e-01	9.687077e-01	1.035117e+00	1.099227e+00	8.347426e-01	1.251048e+00	9.780853e-01	1.180775e+00	1.112696e+00	1.107272e+00	1.166486e+00	9.240208e-01	1.126165e+00	1.179299e+00	1.181696e+00	8.731140e-01	8.530658e-01	1.080480e+00	9.431600e-01	9.145267e-01	9.469783e-01	9.158856e-01	1.092592e+00	8.738200e-01	1.113523e+00	1.111944e+00	1.001608e+00	8.551683e-01	8.621906e-01	1.116868e+00	8.617793e-01	9.415165e-01	1.135101e+00	1.093945e+00	1.141502e+00	1.048672e+00	1.103974e+00	9.089602e-01	1.206924e+00	9.049941e-01	8.995212e-01	1.129189e+00	1.126669e+00	1.155001e+00	1.027032e+00	8.384146e-01	8.593478e-01	1.213088e+00	1.008707e+00	9.342696e-01	1.061803e+00	8.578054e-01	8.606142e-01	8.615538e-01	9.166942e-01	9.133659e-01	1.099323e+00	1.043990e+00	1.084370e+00	1.231702e+00	1.284705e+00	1.057234e+00	1.025394e+00	1.104291e+00	8.855860e-01	9.121086e-01	9.279567e-01	9.528432e-01	9.622263e-01	9.435357e-01	9.285240e-01	9.690363e-01	9.729662e-01	9.737895e-01	9.815493e-01	1.001543e+00	8.817929e-01	8.782429e-01	1.134817e+00	9.471832e-01	9.468258e-01	9.449825e-01	9.462494e-01	9.667076e-01	9.698609e-01	8.623615e-01	8.557580e-01	9.385582e-01	1.069883e+00	1.088665e+00	8.947622e-01	8.881223e-01	8.894869e-01	8.788663e-01	8.700629e-01	9.357733e-01	9.330724e-01	1.015230e+00	9.958028e-01	9.769322e-01	9.594682e-01	9.303322e-01	9.343067e-01	9.377479e-01	9.407261e-01	8.542406e-01	8.594421e-01	8.676024e-01	8.769153e-01	8.852229e-01	9.259783e-01	9.211059e-01	8.923157e-01	8.327002e-01	1.104750e+00	1.109571e+00	8.340609e-01	8.365886e-01	8.395322e-01	8.424934e-01	8.454248e-01	8.684635e-01	8.766688e-01	8.625197e-01	8.625865e-01	8.527628e-01	8.506897e-01	8.494027e-01	8.486848e-01	1.086871e+00	1.078373e+00	1.070006e+00	1.054084e+00	1.046956e+00	1.040349e+00	1.033200e+00	1.021614e+00	1.014577e+00	1.008239e+00	9.943214e-01	9.869844e-01	9.787892e-01	9.707220e-01	9.615773e-01	9.529713e-01	9.431169e-01	8.493943e-01	8.607489e-01	9.154854e-01	9.058746e-01	8.993112e-01	8.916179e-01	8.623675e-01	8.619052e-01	8.611520e-01	8.601627e-01	8.588898e-01	8.571976e-01	8.861513e-01	8.980394e-01	8.757358e-01	8.822447e-01	8.951244e-01	9.459355e-01	9.447404e-01	9.430010e-01	9.130540e-01	9.308837e-01	9.520499e-01	8.487460e-01	8.500191e-01	8.529464e-01	8.568779e-01	8.482800e-01	8.510726e-01	8.537654e-01	8.559404e-01	1.094941e+00	1.107981e+00	1.102295e+00	9.298717e-01	9.269975e-01	9.235248e-01	9.205028e-01	8.983918e-01	9.044038e-01	9.102018e-01	1.124211e+00	1.113754e+00	1.043993e+00	1.170068e+00	1.147144e+00	9.038783e-01	9.109678e-01	1.169504e+00	1.096610e+00	1.213001e+00	1.058709e+00	8.660670e-01	8.598859e-01	1.022907e+00	1.122121e+00	1.225967e+00	1.288010e+00	1.289547e+00	1.274396e+00	1.230239e+00	1.135677e+00	8.628608e-01	1.061860e+00	1.115978e+00	9.777551e-01	8.850426e-01	9.440829e-01	1.105122e+00	1.087728e+00	1.102205e+00	8.667402e-01	8.484047e-01	9.295433e-01	9.960688e-01	8.418512e-01	9.412762e-01	8.606475e-01	1.099775e+00	9.237266e-01	1.156214e+00	1.095429e+00	1.284191e+00	1.176896e+00	1.168938e+00	9.752917e-01	1.039116e+00	1.248334e+00	9.946588e-01	1.191746e+00	1.105125e+00	1.155505e+00	1.170732e+00	1.171528e+00	1.102069e+00	9.250601e-01	9.206620e-01	1.096361e+00	8.863938e-01	1.104637e+00	1.105403e+00	9.119991e-01	1.192268e+00	8.636139e-01	8.652150e-01	8.654155e-01	9.190733e-01	1.053641e+00	1.087241e+00	1.259593e+00	1.080785e+00	9.299674e-01	9.406477e-01	9.516858e-01	9.603982e-01	9.372346e-01	9.522639e-01	9.676751e-01	9.723307e-01	9.750929e-01	9.762719e-01	1.006873e+00	1.025249e+00	8.889647e-01	1.124458e+00	9.467452e-01	9.466783e-01	9.453502e-01	9.461629e-01	9.819796e-01	9.915334e-01	8.726952e-01	8.655999e-01	1.078399e+00	1.093011e+00	8.964141e-01	8.989577e-01	8.876966e-01	8.818462e-01	9.366957e-01	1.020373e+00	1.001716e+00	9.836733e-01	9.677934e-01	9.293875e-01	9.331433e-01	9.365628e-01	9.395352e-01	9.419591e-01	8.656777e-01	8.716898e-01	8.775957e-01	8.859744e-01	8.928801e-01	1.099089e+00	1.101891e+00	1.104115e+00	8.396726e-01	8.423759e-01	8.435998e-01	8.470553e-01	8.487901e-01	8.816494e-01	8.911288e-01	8.665104e-01	8.662112e-01	8.572621e-01	8.575263e-01	8.576591e-01	1.079900e+00	1.073152e+00	1.065378e+00	1.058361e+00	1.051189e+00	1.044666e+00	1.037726e+00	1.028281e+00	1.019709e+00	1.009233e+00	9.813199e-01	9.651672e-01	9.477426e-01	9.126380e-01	8.989947e-01	8.668233e-01	8.659947e-01	8.661327e-01	8.647254e-01	8.645867e-01	8.632723e-01	8.616974e-01	9.021676e-01	9.147061e-01	8.905878e-01	8.984975e-01	9.142813e-01	9.460401e-01	9.444670e-01	9.302254e-01	9.491886e-01	9.702112e-01	8.584328e-01	8.602366e-01	8.635799e-01	8.690276e-01	8.749241e-01	8.520835e-01	8.537900e-01	8.568278e-01	8.594529e-01	1.098700e+00	1.092510e+00	9.312980e-01	9.254316e-01	8.996794e-01	9.049904e-01	9.107631e-01	9.155272e-01	1.163112e+00	1.143326e+00	1.158527e+00	1.245433e+00	1.174414e+00	1.070844e+00	1.099475e+00	1.174482e+00	1.098210e+00	1.137592e+00	1.095783e+00	1.237625e+00	1.060193e+00	1.138871e+00	8.652117e-01	1.171137e+00	1.060283e+00	1.145056e+00	1.118915e+00	1.056781e+00	9.431446e-01	1.096869e+00	9.265653e-01	9.912881e-01	9.832669e-01	9.299677e-01	9.205672e-01	8.772618e-01	1.210547e+00	9.450802e-01	9.474463e-01	9.341820e-01	8.650332e-01	1.095901e+00	1.082402e+00	1.202379e+00	1.033514e+00	1.042046e+00	1.162750e+00	1.095727e+00	1.285247e+00	1.225689e+00	1.106217e+00	9.048754e-01	8.529285e-01	8.481544e-01	1.103641e+00	1.167254e+00	1.118849e+00	1.262343e+00	1.171698e+00	1.042734e+00	1.195287e+00	1.177506e+00	8.834391e-01	1.079659e+00	1.098105e+00	1.095821e+00	8.650732e-01	8.678742e-01	8.696486e-01	9.115596e-01	1.088464e+00	1.117204e+00	1.099904e+00	9.470678e-01	9.633301e-01	9.608129e-01	9.748564e-01	9.802992e-01	1.026952e+00	1.115232e+00	9.463093e-01	1.000432e+00	1.012504e+00	8.804169e-01	1.083891e+00	8.989059e-01	8.954339e-01	9.040322e-01	8.920091e-01	9.397124e-01	1.025223e+00	1.006679e+00	9.896629e-01	9.779227e-01	9.338392e-01	9.396129e-01	9.431775e-01	8.839031e-01	8.965867e-01	1.096779e+00	1.097750e+00	8.503331e-01	8.544695e-01	9.056877e-01	8.705938e-01	8.666920e-01	1.015636e+00	1.070676e+00	1.057550e+00	1.044884e+00	1.034093e+00	1.025054e+00	1.004084e+00	9.907533e-01	9.761418e-01	9.603585e-01	9.433430e-01	9.265044e-01	9.123385e-01	8.996960e-01	8.706793e-01	8.699523e-01	8.693979e-01	8.673127e-01	8.668877e-01	9.183985e-01	9.316421e-01	8.984539e-01	9.105166e-01	9.311907e-01	9.462659e-01	9.452125e-01	9.468472e-01	9.655402e-01	9.864044e-01	1.008595e+00	8.686661e-01	8.710108e-01	8.747796e-01	8.808638e-01	8.893545e-01	8.940856e-01	8.585682e-01	8.626864e-01	1.094918e+00	1.090164e+00	9.351500e-01	9.243767e-01	9.182882e-01	9.085822e-01	9.182122e-01	1.108273e+00	1.162007e+00	1.157771e+00	1.125561e+00	1.004724e+00	1.101597e+00	1.167404e+00	1.131651e+00	1.164362e+00	1.113951e+00	1.144415e+00	1.121960e+00	1.088422e+00	1.182364e+00	1.216934e+00	1.093328e+00	9.076632e-01	8.686730e-01	1.114997e+00	9.825531e-01	1.078619e+00	9.142951e-01	1.064934e+00	1.148191e+00	9.442877e-01	1.006812e+00	9.290811e-01	9.419973e-01	1.065725e+00	1.076998e+00	1.061548e+00	1.046497e+00	1.163972e+00	1.095779e+00	1.098038e+00	1.092593e+00	8.732892e-01	8.986807e-01	9.181776e-01	9.686457e-01	1.140107e+00	1.147810e+00	1.261455e+00	1.053764e+00	1.092988e+00	1.168953e+00	1.087698e+00	1.159390e+00	1.130932e+00	9.444218e-01	1.205362e+00	9.588061e-01	9.432551e-01	1.094384e+00	1.221862e+00	1.041550e+00	1.097513e+00	9.125145e-01	1.238758e+00	1.170552e+00	9.845367e-01	1.192744e+00	1.179255e+00	8.669840e-01	1.096553e+00	1.090861e+00	8.819843e-01	8.711651e-01	9.126337e-01	1.112171e+00	1.135488e+00	9.609112e-01	9.734430e-01	9.885099e-01	9.962287e-01	1.107175e+00	9.457153e-01	1.017633e+00	1.029248e+00	9.418065e-01	9.157002e-01	9.312933e-01	9.049569e-01	9.282913e-01	9.135157e-01	9.007467e-01	1.028600e+00	9.317550e-01	9.375901e-01	8.916744e-01	8.898155e-01	9.238115e-01	1.093665e+00	8.581933e-01	8.563546e-01	8.757570e-01	1.073160e+00	1.062123e+00	1.021208e+00	1.050471e+00	1.039694e+00	1.030248e+00	1.011040e+00	9.991141e-01	9.858537e-01	9.715891e-01	9.561520e-01	9.400234e-01	9.253261e-01	8.747526e-01	8.755744e-01	8.757711e-01	8.753633e-01	8.735702e-01	8.739126e-01	9.335739e-01	9.482308e-01	9.068191e-01	9.471282e-01	9.462833e-01	9.458021e-01	9.628176e-01	9.800875e-01	1.000029e+00	1.020334e+00	1.041949e+00	8.796456e-01	8.835869e-01	8.872543e-01	8.930185e-01	9.019558e-01	8.587124e-01	8.621204e-01	8.656478e-01	1.088190e+00	1.081923e+00	9.384214e-01	9.339852e-01	8.961933e-01	9.068751e-01	9.168714e-01	9.248775e-01	1.142910e+00	1.150131e+00	1.147516e+00	1.110656e+00	1.145989e+00	1.129013e+00	1.106945e+00	1.021276e+00	1.166485e+00	1.114854e+00	1.111636e+00	1.051538e+00	1.157991e+00	1.089140e+00	8.789905e-01	1.133389e+00	1.137533e+00	1.108297e+00	1.162670e+00	1.068189e+00	9.108466e-01	1.007577e+00	9.914619e-01	9.139994e-01	1.128950e+00	1.122340e+00	1.118641e+00	1.166731e+00	1.151970e+00	8.984053e-01	9.