# vtk DataFile Version 3.0
vtk output
ASCII
DATASET UNSTRUCTURED_GRID
POINTS 5233 float
9.997500e-01	-3.633229e-05	0.0	9.990000e-01	-1.454636e-04	0.0	9.977600e-01	-3.274113e-04	0.0	9.960200e-01	-5.894086e-04	0.0	9.937800e-01	-9.452217e-04	0.0	9.910500e-01	-1.416921e-03	0.0	9.878400e-01	-2.033759e-03	0.0	9.841300e-01	-2.830631e-03	0.0	9.799500e-01	-3.819067e-03	0.0	9.752800e-01	-4.996287e-03	0.0	9.701500e-01	-6.316977e-03	0.0	9.645400e-01	-7.724898e-03	0.0	9.584700e-01	-9.147437e-03	0.0	9.519400e-01	-1.053133e-02	0.0	9.449600e-01	-1.184967e-02	0.0	9.375400e-01	-1.310670e-02	0.0	9.296900e-01	-1.432871e-02	0.0	9.214000e-01	-1.555268e-02	0.0	9.127000e-01	-1.680478e-02	0.0	9.035800e-01	-1.810538e-02	0.0	8.940600e-01	-1.945796e-02	0.0	8.841500e-01	-2.085806e-02	0.0	8.738500e-01	-2.229776e-02	0.0	8.631800e-01	-2.376527e-02	0.0	8.521600e-01	-2.525016e-02	0.0	8.407700e-01	-2.674936e-02	0.0	8.290500e-01	-2.825371e-02	0.0	8.170100e-01	-2.975934e-02	0.0	8.046400e-01	-3.126540e-02	0.0	7.919700e-01	-3.276624e-02	0.0	7.790100e-01	-3.425859e-02	0.0	7.657800e-01	-3.573785e-02	0.0	7.522800e-01	-3.720149e-02	0.0	7.385200e-01	-3.864571e-02	0.0	7.245300e-01	-4.006466e-02	0.0	7.103200e-01	-4.145475e-02	0.0	6.958900e-01	-4.281344e-02	0.0	6.812700e-01	-4.413555e-02	0.0	6.664700e-01	-4.541807e-02	0.0	6.515000e-01	-4.665822e-02	0.0	6.363800e-01	-4.785266e-02	0.0	6.211300e-01	-4.899841e-02	0.0	6.057600e-01	-5.009357e-02	0.0	5.902800e-01	-5.113641e-02	0.0	5.747100e-01	-5.212478e-02	0.0	5.590600e-01	-5.305742e-02	0.0	5.433600e-01	-5.393210e-02	0.0	5.276100e-01	-5.474851e-02	0.0	5.118400e-01	-5.550484e-02	0.0	4.960500e-01	-5.620090e-02	0.0	4.802700e-01	-5.683519e-02	0.0	4.645100e-01	-5.740716e-02	0.0	4.487800e-01	-5.791620e-02	0.0	4.331100e-01	-5.836107e-02	0.0	4.175000e-01	-5.874141e-02	0.0	4.019700e-01	-5.905621e-02	0.0	3.865400e-01	-5.930444e-02	0.0	3.712300e-01	-5.948512e-02	0.0	3.560400e-01	-5.959737e-02	0.0	3.409900e-01	-5.963996e-02	0.0	3.261100e-01	-5.961173e-02	0.0	3.114000e-01	-5.951150e-02	0.0	2.968700e-01	-5.933790e-02	0.0	2.825500e-01	-5.908983e-02	0.0	2.684500e-01	-5.876603e-02	0.0	2.545700e-01	-5.836487e-02	0.0	2.409400e-01	-5.788556e-02	0.0	2.275700e-01	-5.732689e-02	0.0	2.144700e-01	-5.668767e-02	0.0	2.016600e-01	-5.596736e-02	0.0	1.891400e-01	-5.516439e-02	0.0	1.769300e-01	-5.427850e-02	0.0	1.650400e-01	-5.330902e-02	0.0	1.534900e-01	-5.225634e-02	0.0	1.422900e-01	-5.112038e-02	0.0	1.314400e-01	-4.990006e-02	0.0	1.209500e-01	-4.859533e-02	0.0	1.108500e-01	-4.720920e-02	0.0	1.011300e-01	-4.573969e-02	0.0	9.181000e-02	-4.418913e-02	0.0	8.290000e-02	-4.255886e-02	0.0	7.440000e-02	-4.084842e-02	0.0	6.633000e-02	-3.906158e-02	0.0	5.869000e-02	-3.719822e-02	0.0	5.149000e-02	-3.526055e-02	0.0	4.474000e-02	-3.325126e-02	0.0	3.844000e-02	-3.117020e-02	0.0	3.260000e-02	-2.902035e-02	0.0	2.723000e-02	-2.680550e-02	0.0	2.232000e-02	-2.452072e-02	0.0	1.790000e-02	-2.217997e-02	0.0	1.395000e-02	-1.977249e-02	0.0	1.049000e-02	-1.730938e-02	0.0	7.520000e-03	-1.479134e-02	0.0	5.040000e-03	-1.221825e-02	0.0	3.050000e-03	-9.588074e-03	0.0	1.560000e-03	-6.915046e-03	0.0	5.600000e-04	-4.176770e-03	0.0	6.000000e-05	-1.377394e-03	0.0	0.000000e+00	0.000000e+00	0.0	6.000000e-05	1.262518e-03	0.0	5.600000e-04	3.623497e-03	0.0	1.560000e-03	5.791811e-03	0.0	3.050000e-03	7.819417e-03	0.0	5.040000e-03	9.751182e-03	0.0	7.520000e-03	1.159438e-02	0.0	1.049000e-02	1.336346e-02	0.0	1.395000e-02	1.506837e-02	0.0	1.790000e-02	1.671640e-02	0.0	2.232000e-02	1.830640e-02	0.0	2.723000e-02	1.985102e-02	0.0	3.260000e-02	2.134532e-02	0.0	3.844000e-02	2.279648e-02	0.0	4.474000e-02	2.420520e-02	0.0	5.149000e-02	2.557231e-02	0.0	5.869000e-02	2.690031e-02	0.0	6.633000e-02	2.818945e-02	0.0	7.440000e-02	2.943994e-02	0.0	8.290000e-02	3.065336e-02	0.0	9.181000e-02	3.182824e-02	0.0	1.011300e-01	3.296586e-02	0.0	1.108500e-01	3.406598e-02	0.0	1.209500e-01	3.512732e-02	0.0	1.314400e-01	3.615168e-02	0.0	1.422900e-01	3.713675e-02	0.0	1.534900e-01	3.808230e-02	0.0	1.650400e-01	3.898882e-02	0.0	1.769300e-01	3.985577e-02	0.0	1.891400e-01	4.068189e-02	0.0	2.016600e-01	4.146667e-02	0.0	2.144700e-01	4.220892e-02	0.0	2.275700e-01	4.290855e-02	0.0	2.409400e-01	4.356426e-02	0.0	2.545700e-01	4.417517e-02	0.0	2.684500e-01	4.474032e-02	0.0	2.825500e-01	4.525785e-02	0.0	2.968700e-01	4.572700e-02	0.0	3.114000e-01	4.614644e-02	0.0	3.261100e-01	4.651416e-02	0.0	3.409900e-01	4.682868e-02	0.0	3.560400e-01	4.708850e-02	0.0	3.712300e-01	4.729145e-02	0.0	3.865400e-01	4.743555e-02	0.0	4.019700e-01	4.751891e-02	0.0	4.175000e-01	4.753934e-02	0.0	4.331100e-01	4.749468e-02	0.0	4.487800e-01	4.738284e-02	0.0	4.645100e-01	4.720156e-02	0.0	4.802700e-01	4.694889e-02	0.0	4.960500e-01	4.662283e-02	0.0	5.118400e-01	4.622136e-02	0.0	5.276100e-01	4.574325e-02	0.0	5.433600e-01	4.518666e-02	0.0	5.590600e-01	4.455104e-02	0.0	5.747100e-01	4.383504e-02	0.0	5.902800e-01	4.303907e-02	0.0	6.057600e-01	4.216312e-02	0.0	6.211300e-01	4.120830e-02	0.0	6.363800e-01	4.017572e-02	0.0	6.515000e-01	3.906703e-02	0.0	6.664700e-01	3.788532e-02	0.0	6.812700e-01	3.663451e-02	0.0	6.958900e-01	3.531850e-02	0.0	7.103200e-01	3.394185e-02	0.0	7.245300e-01	3.251190e-02	0.0	7.385200e-01	3.103379e-02	0.0	7.522800e-01	2.951430e-02	0.0	7.657800e-01	2.796313e-02	0.0	7.790100e-01	2.638853e-02	0.0	7.919700e-01	2.479802e-02	0.0	8.046400e-01	2.320198e-02	0.0	8.170100e-01	2.160995e-02	0.0	8.290500e-01	2.003416e-02	0.0	8.407700e-01	1.848132e-02	0.0	8.521600e-01	1.695982e-02	0.0	8.631800e-01	1.548051e-02	0.0	8.738500e-01	1.404399e-02	0.0	8.841500e-01	1.265370e-02	0.0	8.940600e-01	1.131117e-02	0.0	9.035800e-01	1.001502e-02	0.0	9.127000e-01	8.768161e-03	0.0	9.214000e-01	7.581448e-03	0.0	9.296900e-01	6.470892e-03	0.0	9.375400e-01	5.466522e-03	0.0	9.449600e-01	4.596322e-03	0.0	9.519400e-01	3.884337e-03	0.0	9.584700e-01	3.336597e-03	0.0	9.645400e-01	2.933964e-03	0.0	9.701500e-01	2.633604e-03	0.0	9.752800e-01	2.382319e-03	0.0	9.799500e-01	2.130018e-03	0.0	9.841300e-01	1.848434e-03	0.0	9.878400e-01	1.530832e-03	0.0	9.910500e-01	1.195015e-03	0.0	9.937800e-01	8.647644e-04	0.0	9.960200e-01	5.671088e-04	0.0	9.977600e-01	3.232776e-04	0.0	9.990000e-01	1.450865e-04	0.0	9.997500e-01	3.632631e-05	0.0	1.000000e+00	0.000000e+00	0.0	1.984229e+01	2.506660e+00	0.0	1.937166e+01	4.973800e+00	0.0	1.859553e+01	7.362490e+00	0.0	1.752613e+01	9.635070e+00	0.0	1.618034e+01	1.175571e+01	0.0	1.457937e+01	1.369094e+01	0.0	1.274848e+01	1.541027e+01	0.0	1.071654e+01	1.688656e+01	0.0	8.515590e+00	1.809654e+01	0.0	6.180340e+00	1.902113e+01	0.0	3.747630e+00	1.964575e+01	0.0	1.255810e+00	1.996053e+01	0.0	-1.255810e+00	1.996053e+01	0.0	-3.747630e+00	1.964574e+01	0.0	-6.180340e+00	1.902113e+01	0.0	-8.515590e+00	1.809654e+01	0.0	-1.071654e+01	1.688656e+01	0.0	-1.274848e+01	1.541026e+01	0.0	-1.457937e+01	1.369094e+01	0.0	-1.618034e+01	1.175570e+01	0.0	-1.752613e+01	9.635070e+00	0.0	-1.859553e+01	7.362490e+00	0.0	-1.937166e+01	4.973800e+00	0.0	-1.984229e+01	2.506660e+00	0.0	-2.000000e+01	0.000000e+00	0.0	-1.984229e+01	-2.506670e+00	0.0	-1.937166e+01	-4.973800e+00	0.0	-1.859553e+01	-7.362490e+00	0.0	-1.752613e+01	-9.635080e+00	0.0	-1.618034e+01	-1.175571e+01	0.0	-1.457937e+01	-1.369094e+01	0.0	-1.274848e+01	-1.541027e+01	0.0	-1.071653e+01	-1.688656e+01	0.0	-8.515580e+00	-1.809654e+01	0.0	-6.180340e+00	-1.902113e+01	0.0	-3.747620e+00	-1.964575e+01	0.0	-1.255810e+00	-1.996053e+01	0.0	1.255810e+00	-1.996053e+01	0.0	3.747630e+00	-1.964574e+01	0.0	6.180340e+00	-1.902113e+01	0.0	8.515590e+00	-1.809654e+01	0.0	1.071654e+01	-1.688656e+01	0.0	1.274848e+01	-1.541026e+01	0.0	1.457937e+01	-1.369094e+01	0.0	1.618034e+01	-1.175570e+01	0.0	1.752614e+01	-9.635070e+00	0.0	1.859553e+01	-7.362490e+00	0.0	1.937166e+01	-4.973790e+00	0.0	1.984229e+01	-2.506660e+00	0.0	2.000000e+01	0.000000e+00	0.0	6.075015e-02	-4.506631e-02	0.0	6.601891e-01	-5.970108e-02	0.0	4.255631e-01	6.175210e-02	0.0	6.897585e-01	4.920034e-02	0.0	3.791261e-01	-7.344904e-02	0.0	9.994671e-01	-7.273250e-04	0.0	9.985539e-01	-1.330668e-03	0.0	7.738072e-01	-4.707080e-02	0.0	6.898592e-01	-5.681898e-02	0.0	-1.126729e-03	5.522190e-03	0.0	7.467757e-01	-5.047427e-02	0.0	5.833288e-01	5.753559e-02	0.0	9.928139e-01	-3.729715e-03	0.0	9.899328e-01	-4.732114e-03	0.0	5.989039e-01	5.661070e-02	0.0	7.187620e-01	-5.373034e-02	0.0	-1.464763e-03	6.038220e-04	0.0	9.865679e-01	-5.885467e-03	0.0	9.827265e-01	-7.192356e-03	0.0	-1.292410e-03	-6.429638e-03	0.0	6.451066e-01	-6.105736e-02	0.0	8.244727e-01	-3.998766e-02	0.0	7.997344e-01	-4.357262e-02	0.0	3.484942e-01	6.074622e-02	0.0	8.478914e-01	-3.637215e-02	0.0	2.473752e-01	5.643128e-02	0.0	8.699301e-01	-3.275008e-02	0.0	1.045222e-02	1.742533e-02	0.0	8.904828e-01	-2.917683e-02	0.0	7.702699e-02	-4.944691e-02	0.0	9.094771e-01	-2.570597e-02	0.0	-1.761327e-03	-3.186462e-03	0.0	9.424678e-01	-1.898641e-02	0.0	9.268329e-01	-2.233955e-02	0.0	1.796201e-02	-2.729772e-02	0.0	4.257456e-01	-7.285664e-02	0.0	8.590923e-01	-3.455651e-02	0.0	9.563214e-01	-1.552386e-02	0.0	9.784006e-01	-8.673948e-03	0.0	9.683182e-01	-1.198478e-02	0.0	1.582618e-01	-6.337647e-02	0.0	9.001816e-01	-2.742669e-02	0.0	7.604243e-01	-4.878787e-02	0.0	9.971351e-01	-2.085611e-03	0.0	5.990535e-01	-6.475256e-02	0.0	4.414484e-01	-7.249749e-02	0.0	5.363244e-01	-6.872734e-02	0.0	4.730204e-01	-7.154477e-02	0.0	5.046815e-01	-7.028579e-02	0.0	4.888390e-01	-7.095232e-02	0.0	1.249498e-01	-5.884252e-02	0.0	2.785717e-02	-3.274991e-02	0.0	3.945722e-01	-7.333421e-02	0.0	4.622911e-02	-4.037300e-02	0.0	4.101134e-01	-7.313704e-02	0.0	3.187155e-01	-7.307332e-02	0.0	3.486145e-01	-7.343425e-02	0.0	3.351983e-02	-3.535308e-02	0.0	2.895102e-01	-7.236871e-02	0.0	9.348702e-01	-2.066886e-02	0.0	1.468037e-01	-6.195564e-02	0.0	1.946412e-01	-6.706149e-02	0.0	8.580007e-02	-5.150826e-02	0.0	1.045892e-01	-5.536658e-02	0.0	5.678266e-01	-6.688668e-02	0.0	1.700639e-01	-6.470345e-02	0.0	6.145304e-01	-6.358248e-02	0.0	8.804007e-01	-3.095478e-02	0.0	2.268183e-02	-3.006309e-02	0.0	9.952204e-01	-2.866779e-03	0.0	6.750610e-03	-1.868065e-02	0.0	1.847667e-02	2.164770e-02	0.0	9.183634e-01	-2.401295e-02	0.0	9.49625
[...]
POINT_DATA 5233

SCALARS Conservative_1 float 1
LOOKUP_TABLE default
1.199524e+00	1.181127e+00	1.170493e+00	1.163812e+00	1.159002e+00	1.154349e+00	1.147381e+00	1.136528e+00	1.120599e+00	1.099701e+00	1.075069e+00	1.049275e+00	1.026534e+00	1.010590e+00	1.002456e+00	1.000348e+00	1.001262e+00	1.002493e+00	1.002372e+00	1.000323e+00	9.965516e-01	9.915901e-01	9.859974e-01	9.802258e-01	9.745412e-01	9.690515e-01	9.637502e-01	9.585948e-01	9.535243e-01	9.485090e-01	9.435343e-01	9.385589e-01	9.335495e-01	9.285216e-01	9.235228e-01	9.185980e-01	9.137653e-01	9.090269e-01	9.043936e-01	8.998792e-01	8.954837e-01	8.912165e-01	8.870591e-01	8.830233e-01	8.791211e-01	8.754058e-01	8.718774e-01	8.684796e-01	8.650602e-01	8.615816e-01	8.582186e-01	8.553241e-01	8.530451e-01	8.511359e-01	8.489603e-01	8.457760e-01	8.410591e-01	8.349239e-01	8.282348e-01	8.222675e-01	8.179399e-01	8.154623e-01	8.145601e-01	8.147866e-01	8.158169e-01	8.174414e-01	8.196071e-01	8.222312e-01	8.252288e-01	8.284846e-01	8.320060e-01	8.359403e-01	8.405255e-01	8.458363e-01	8.518068e-01	8.582931e-01	8.653515e-01	8.731508e-01	8.817467e-01	8.911764e-01	9.015498e-01	9.129229e-01	9.254422e-01	9.392214e-01	9.544447e-01	9.713819e-01	9.902557e-01	1.011419e+00	1.035350e+00	1.062368e+00	1.093011e+00	1.127770e+00	1.166550e+00	1.208962e+00	1.253361e+00	1.296894e+00	1.330982e+00	1.350843e+00	1.340151e+00	1.309661e+00	1.286206e+00	1.224053e+00	1.104705e+00	1.009305e+00	9.347879e-01	8.798911e-01	8.421545e-01	8.169801e-01	7.996717e-01	7.875922e-01	7.791204e-01	7.731257e-01	7.690627e-01	7.662212e-01	7.642561e-01	7.631714e-01	7.628275e-01	7.629740e-01	7.633030e-01	7.635189e-01	7.636544e-01	7.640161e-01	7.648318e-01	7.659453e-01	7.669962e-01	7.677965e-01	7.684464e-01	7.690487e-01	7.696671e-01	7.703694e-01	7.712545e-01	7.723451e-01	7.735825e-01	7.748444e-01	7.760639e-01	7.772326e-01	7.784248e-01	7.796394e-01	7.806433e-01	7.809268e-01	7.804360e-01	7.809236e-01	7.872500e-01	8.048969e-01	8.312647e-01	8.529985e-01	8.612952e-01	8.587275e-01	8.522010e-01	8.471816e-01	8.457698e-01	8.479017e-01	8.525484e-01	8.586256e-01	8.652340e-01	8.718810e-01	8.784022e-01	8.849662e-01	8.918255e-01	8.990789e-01	9.066851e-01	9.145694e-01	9.226863e-01	9.310236e-01	9.395396e-01	9.482162e-01	9.569963e-01	9.658619e-01	9.747368e-01	9.836224e-01	9.924349e-01	1.001092e+00	1.009532e+00	1.017672e+00	1.025466e+00	1.032895e+00	1.040002e+00	1.046961e+00	1.054024e+00	1.061564e+00	1.069866e+00	1.079022e+00	1.088661e+00	1.097952e+00	1.105686e+00	1.110575e+00	1.111575e+00	1.108355e+00	1.101679e+00	1.093648e+00	1.087208e+00	1.085181e+00	1.089285e+00	1.099402e+00	1.113687e+00	1.130517e+00	1.148683e+00	1.168616e+00	1.192539e+00	1.180885e+00	9.999719e-01	9.999627e-01	9.999425e-01	9.999145e-01	9.998860e-01	9.998526e-01	9.998073e-01	9.997452e-01	9.996754e-01	9.996182e-01	9.995805e-01	9.995933e-01	9.996525e-01	9.997739e-01	9.998785e-01	9.999638e-01	1.000011e+00	1.000041e+00	1.000059e+00	1.000067e+00	1.000071e+00	1.000073e+00	1.000074e+00	1.000076e+00	1.000078e+00	1.000081e+00	1.000087e+00	1.000094e+00	1.000104e+00	1.000119e+00	1.000135e+00	1.000159e+00	1.000181e+00	1.000213e+00	1.000237e+00	1.000257e+00	1.000269e+00	1.000262e+00	1.000255e+00	1.000239e+00	1.000228e+00	1.000206e+00	1.000183e+00	1.000156e+00	1.000126e+00	1.000093e+00	1.000071e+00	1.000054e+00	1.000016e+00	9.999768e-01	9.469150e-01	9.047609e-01	8.475486e-01	9.222228e-01	8.414924e-01	1.182681e+00	1.173033e+00	9.431685e-01	9.139133e-01	1.219287e+00	9.332920e-01	8.727029e-01	1.150661e+00	1.143841e+00	8.793028e-01	9.234497e-01	1.308812e+00	1.134873e+00	1.122639e+00	1.337333e+00	9.003560e-01	9.630931e-01	9.530220e-01	7.844808e-01	9.735568e-01	7.780174e-01	9.845221e-01	8.868851e-01	9.949934e-01	9.198725e-01	1.002405e+00	1.344791e+00	1.008264e+00	1.004993e+00	1.100914e+00	8.534397e-01	9.790001e-01	1.026982e+00	1.106670e+00	1.065897e+00	8.506846e-01	9.992692e-01	9.382481e-01	1.163431e+00	8.878131e-01	8.552097e-01	8.730600e-01	8.595958e-01	8.662309e-01	8.627585e-01	8.709114e-01	1.044365e+00	8.470671e-01	9.798078e-01	8.509680e-01	8.202521e-01	8.284246e-01	1.020436e+00	8.188675e-01	1.005737e+00	8.568289e-01	8.365833e-01	9.081617e-01	8.877276e-01	8.800723e-01	8.452837e-01	8.918890e-01	9.899529e-01	1.071095e+00	1.156747e+00	1.208553e+00	8.319207e-01	1.004219e+00	1.014800e+00	1.087350e+00	1.137634e+00	9.682605e-01	8.235554e-01	8.764863e-01	9.283376e-01	9.480780e-01	8.789013e-01	8.293892e-01	8.838662e-01	9.092876e-01	9.625373e-01	1.247889e+00	1.133933e+00	8.348584e-01	8.406566e-01	1.210919e+00	8.262594e-01	8.974783e-01	8.188837e-01	8.213811e-01	8.570943e-01	9.186350e-01	1.281264e+00	1.317788e+00	8.536439e-01	1.325359e+00	8.024179e-01	7.781336e-01	7.866997e-01	7.713545e-01	8.197064e-01	1.140460e+00	8.499799e-01	8.600178e-01	1.096803e+00	1.104532e+00	1.050441e+00	8.531432e-01	8.642208e-01	7.858306e-01	1.081787e+00	1.065231e+00	7.733386e-01	1.092572e+00	1.104988e+00	1.097188e+00	7.719838e-01	7.756896e-01	7.813850e-01	7.791727e-01	7.737190e-01	7.837044e-01	8.661608e-01	7.962980e-01	7.730140e-01	7.717884e-01	8.923864e-01	7.744466e-01	7.758411e-01	9.067157e-01	8.659005e-01	9.553906e-01	9.385221e-01	9.896436e-01	9.725285e-01	1.021996e+00	1.006311e+00	1.057624e+00	1.036534e+00	1.102432e+00	1.073353e+00	1.101417e+00	1.029401e+00	1.043491e+00	9.980636e-01	1.014296e+00	9.639488e-01	9.811220e-01	9.302821e-01	9.469009e-01	8.993624e-01	9.143547e-01	8.593089e-01	8.857659e-01	7.750295e-01	7.768743e-01	7.734107e-01	7.740453e-01	7.817354e-01	7.724623e-01	8.551126e-01	7.933705e-01	8.328581e-01	9.882333e-01	1.044719e+00	9.580201e-01	8.233801e-01	8.696912e-01	1.058784e+00	8.148619e-01	9.304625e-01	7.726690e-01	7.742072e-01	7.802833e-01	7.714420e-01	1.090837e+00	1.093174e+00	7.825393e-01	1.100213e+00	1.111128e+00	7.845210e-01	7.839005e-01	1.090005e+00	1.206243e+00	1.157998e+00	1.174346e+00	8.960620e-01	9.990193e-01	1.124898e+00	8.495429e-01	1.285813e+00	1.170088e+00	9.327402e-01	8.635968e-01	8.197752e-01	7.863800e-01	1.201695e+00	1.260888e+00	8.246544e-01	9.190682e-01	1.005081e+00	1.199199e+00	8.738551e-01	9.144551e-01	9.479636e-01	1.132439e+00	8.264153e-01	9.782740e-01	9.678691e-01	9.152283e-01	1.316810e+00	8.379155e-01	1.133022e+00	1.042694e+00	8.626502e-01	9.237580e-01	9.055291e-01	8.595519e-01	9.271371e-01	8.480570e-01	9.982936e-01	9.528132e-01	9.628560e-01	8.621404e-01	9.146648e-01	1.018719e+00	7.798135e-01	9.222681e-01	7.792733e-01	1.040076e+00	1.101144e+00	7.885187e-01	8.542468e-01	1.098172e+00	1.046913e+00	1.108884e+00	1.099662e+00	1.094731e+00	7.818453e-01	7.880503e-01	7.809494e-01	7.808162e-01	9.099508e-01	8.419351e-01	9.209606e-01	7.792255e-01	7.983047e-01	1.097483e+00	1.119445e+00	1.053811e+00	8.563987e-01	1.215146e+00	1.145914e+00	1.131873e+00	1.014464e+00	1.136708e+00	1.233457e+00	1.331301e+00	1.315789e+00	1.102827e+00	1.217421e+00	9.543752e-01	1.162474e+00	1.147746e+00	8.386448e-01	8.779621e-01	1.122194e+00	9.887960e-01	8.805382e-01	1.140751e+00	1.332232e+00	8.577722e-01	8.124273e-01	9.730231e-01	7.848493e-01	9.835652e-01	9.937841e-01	9.401387e-01	1.002092e+00	1.007447e+00	1.019233e+00	1.049912e+00	1.028979e+00	1.059364e+00	1.109369e+00	8.772226e-01	9.382877e-01	9.431418e-01	1.154674e+00	8.617365e-01	8.646038e-01	8.678919e-01	1.075267e+00	8.526486e-01	8.557423e-01	8.302864e-01	1.006115e+00	1.009790e+00	1.013234e+00	8.696331e-01	9.043323e-01	8.814452e-01	8.929641e-01	1.077091e+00	1.094162e+00	9.285158e-01	9.333983e-01	8.944539e-01	8.854487e-01	8.851355e-01	8.889742e-01	9.872647e-01	9.700708e-01	1.165199e+00	8.357982e-01	8.421247e-01	8.510241e-01	8.462653e-01	8.342765e-01	8.310460e-01	8.239491e-01	8.244185e-01	8.283342e-01	1.299338e+00	1.266853e+00	8.053398e-01	1.096313e+00	8.563883e-01	8.554354e-01	8.599973e-01	8.660240e-01	1.095525e+00	1.099229e+00	1.075602e+00	8.684950e-01	8.603887e-01	7.951826e-01	1.068191e+00	1.094644e+00	7.891459e-01	7.929914e-01	7.828309e-01	7.838275e-01	7.792254e-01	7.793260e-01	7.794247e-01	9.872208e-01	9.542535e-01	9.460728e-01	9.790373e-01	1.011165e+00	1.060871e+00	1.033141e+00	1.026033e+00	1.003411e+00	9.954028e-01	9.707572e-01	9.624891e-01	9.379973e-01	9.300479e-01	9.072927e-01	9.002074e-01	8.670737e-01	8.609843e-01	8.934727e-01	8.869941e-01	7.802039e-01	7.797126e-01	7.794431e-01	7.793492e-01	8.880858e-01	8.145706e-01	8.265850e-01	9.577490e-01	9.627788e-01	8.712752e-01	8.745905e-01	1.074005e+00	8.420705e-01	7.823750e-01	7.842244e-01	7.870490e-01	7.859134e-01	7.889969e-01	7.883020e-01	1.089364e+00	1.082823e+00	8.970380e-01	9.012382e-01	1.026882e+00	1.296785e+00	8.261578e-01	1.311333e+00	8.544629e-01	8.300070e-01	9.532509e-01	8.800683e-01	1.009127e+00	1.107650e+00	1.101537e+00	1.095655e+00	1.084660e+00	1.116265e+00	1.160537e+00	1.181252e+00	1.152577e+00	1.200696e+00	1.104452e+00	1.283962e+00	9.227124e-01	1.012552e+00	1.130825e+00	8.756108e-01	1.172455e+00	1.220412e+00	9.247291e-01	1.275432e+00	9.293542e-01	1.131598e+00	9.881684e-01	1.190433e+00	8.332079e-01	9.831031e-01	9.201603e-01	1.138744e+00	1.160699e+00	1.095891e+00	8.604202e-01	1.091919e+00	9.157733e-01	1.126153e+00	8.597316e-01	7.885972e-01	7.925573e-01	7.855148e-01	8.021243e-01	1.171430e+00	1.292876e+00	1.186733e+00	9.150693e-01	1.241886e+00	1.055774e+00	9.347045e-01	1.312649e+00	8.687324e-01	8.644062e-01	1.078879e+00	9.871457e-01	1.016033e+00	9.855610e-01	9.230961e-01	1.097659e+00	1.094474e+00	1.050101e+00	1.043450e+00	7.917338e-01	7.895736e-01	7.861092e-01	7.897141e-01	9.112660e-01	9.156681e-01	8.474702e-01	9.479922e-01	7.858004e-01	1.095579e+00	1.136342e+00	1.033332e+00	1.136865e+00	1.249044e+00	1.315047e+00	1.054846e+00	1.185918e+00	1.178110e+00	1.070576e+00	1.122030e+00	8.823619e-01	8.625333e-01	8.298680e-01	9.728658e-01	9.779770e-01	9.930966e-01	9.977384e-01	9.620002e-01	9.477964e-01	1.001957e+00	1.005733e+00	1.031012e+00	1.042221e+00	1.111628e+00	9.437123e-01	9.484947e-01	1.145339e+00	8.669148e-01	8.700736e-01	8.583124e-01	8.607587e-01	1.033045e+00	1.016722e+00	1.022596e+00	8.838888e-01	8.759631e-01	8.834689e-01	8.870439e-01	1.085410e+00	1.099240e+00	9.340872e-01	9.389448e-01	9.117070e-01	9.014875e-01	8.922654e-01	8.907797e-01	8.946729e-01	1.013205e+00	9.946838e-01	9.775575e-01	8.375806e-01	8.432848e-01	8.492617e-01	8.625929e-01	8.571190e-01	8.521166e-01	8.432823e-01	8.395101e-01	8.296388e-01	8.305523e-01	8.362568e-01	8.230494e-01	8.622080e-01	8.669965e-01	1.095793e+00	8.711869e-01	8.687517e-01	8.542122e-01	8.079338e-01	1.070184e+00	8.074786e-01	8.143422e-01	7.876763e-01	7.868563e-01	7.863984e-01	7.874564e-01	7.885149e-01	9.539227e-01	1.063510e+00	1.056746e+00	1.036767e+00	1.030037e+00	1.023201e+00	1.008640e+00	1.001139e+00	9.934088e-01	9.777333e-01	9.697973e-01	9.618579e-01	9.460744e-01	9.382732e-01	9.306281e-01	9.086520e-01	8.689529e-01	8.637794e-01	9.018606e-01	8.953129e-01	8.889098e-01	7.855274e-01	7.851031e-01	7.849654e-01	7.850276e-01	7.852758e-01	8.342702e-01	8.485622e-01	9.580564e-01	9.629627e-01	9.678643e-01	8.734055e-01	8.767214e-01	8.663543e-01	8.880932e-01	7.917239e-01	7.946303e-01	7.980240e-01	7.906553e-01	7.965755e-01	7.934204e-01	7.929140e-01	1.087944e+00	1.082764e+00	1.076733e+00	8.986635e-01	9.027637e-01	9.069597e-01	8.335046e-01	8.314033e-01	1.289642e+00	9.303536e-01	1.129420e+00	1.097609e+00	8.854508e-01	1.262511e+00	1.158982e+00	1.014727e+00	1.019608e+00	1.058469e+00	1.112854e+00	8.660667e-01	1.270879e+00	9.707908e-01	1.206053e+00	1.091501e+00	1.120753e+00	1.173687e+00	9.168478e-01	1.132853e+00	1.185157e+00	1.187843e+00	9.584829e-01	8.760544e-01	1.104636e+00	8.610921e-01	9.424510e-01	8.678373e-01	8.366318e-01	1.101110e+00	8.772291e-01	1.089250e+00	1.086083e+00	9.846451e-01	7.930688e-01	7.931276e-01	1.121554e+00	8.218679e-01	9.883405e-01	1.146691e+00	1.106154e+00	1.143537e+00	1.078712e+00	1.128670e+00	9.258041e-01	1.231181e+00	9.308616e-01	9.349249e-01	1.154448e+00	1.129370e+00	1.180538e+00	1.013525e+00	8.646411e-01	7.959595e-01	1.220489e+00	1.006593e+00	9.246627e-01	1.046873e+00	7.969833e-01	7.949470e-01	7.939386e-01	9.169468e-01	9.219028e-01	1.095436e+00	1.046094e+00	1.089450e+00	1.254285e+00	1.296669e+00	1.080845e+00	1.066075e+00	1.112599e+00	8.849377e-01	9.783551e-01	9.832835e-01	9.931576e-01	9.978413e-01	9.694060e-01	9.554015e-01	1.002224e+00	1.006462e+00	1.010571e+00	1.042505e+00	1.053778e+00	9.489804e-01	9.541507e-01	1.136675e+00	8.699877e-01	8.728830e-01	8.640838e-01	8.661007e-01	1.025438e+00	1.032926e+00	8.913156e-01	8.827937e-01	8.895889e-01	1.090931e+00	1.102382e+00	9.399843e-01	9.452006e-01	9.191985e-01	9.090665e-01	9.000512e-01	8.926248e-01	8.970335e-01	1.038640e+00	1.019427e+00	1.001109e+00	9.844423e-01	8.411571e-01	8.457798e-01	8.512036e-01	8.565024e-01	8.699419e-01	8.642513e-01	8.588780e-01	8.540393e-01	8.496745e-01	8.380711e-01	8.365968e-01	8.458587e-01	8.689476e-01	1.094110e+00	1.092980e+00	8.725626e-01	8.731789e-01	8.652310e-01	8.468909e-01	8.247461e-01	8.307375e-01	8.416268e-01	7.923717e-01	7.918710e-01	7.940315e-01	7.955184e-01	7.975330e-01	7.995268e-01	1.065563e+00	1.059423e+00	1.053213e+00	1.040483e+00	1.034138e+00	1.027762e+00	1.020301e+00	1.007302e+00	9.992705e-01	9.918330e-01	9.767078e-01	9.695235e-01	9.614122e-01	9.543293e-01	9.461597e-01	9.392799e-01	9.312151e-01	8.676430e-01	8.707479e-01	9.107633e-01	9.033689e-01	8.976622e-01	8.904370e-01	7.914004e-01	7.911876e-01	7.909756e-01	7.911224e-01	7.914160e-01	7.920688e-01	8.542257e-01	8.700136e-01	9.636267e-01	9.687395e-01	9.734450e-01	8.762155e-01	8.786474e-01	8.826255e-01	8.895950e-01	9.125130e-01	9.391203e-01	8.017881e-01	8.051593e-01	8.099846e-01	8.154040e-01	8.085772e-01	8.011120e-01	7.988063e-01	7.977236e-01	1.071501e+00	1.081929e+00	1.077087e+00	9.003202e-01	9.049307e-01	9.084334e-01	9.132280e-01	8.425195e-01	8.398035e-01	8.377565e-01	1.148176e+00	1.125386e+00	1.073895e+00	1.177268e+00	1.171215e+00	9.386060e-01	9.383722e-01	1.193320e+00	1.096314e+00	1.235047e+00	1.081803e+00	8.847002e-01	8.023258e-01	1.022093e+00	1.129065e+00	1.235596e+00	1.292738e+00	1.294735e+00	1.281902e+00	1.250537e+00	1.138233e+00	8.018650e-01	1.084549e+00	1.121068e+00	1.027788e+00	9.615638e-01	8.676392e-01	1.115975e+00	1.067294e+00	1.080895e+00	8.760663e-01	8.713584e-01	9.222169e-01	9.798872e-01	8.737115e-01	8.897923e-01	8.020983e-01	1.109722e+00	9.503946e-01	1.165078e+00	1.099726e+00	1.292756e+00	1.182106e+00	1.172868e+00	1.021092e+00	1.062176e+00	1.266496e+00	9.897257e-01	1.214885e+00	1.087164e+00	1.163469e+00	1.176817e+00	1.177849e+00	1.125783e+00	8.432303e-01	8.440157e-01	1.104129e+00	8.862131e-01	1.084387e+00	1.113064e+00	9.298599e-01	1.201171e+00	8.000698e-01	7.998803e-01	7.983134e-01	9.211461e-01	1.056180e+00	1.092388e+00	1.275141e+00	1.104207e+00	9.842972e-01	9.883749e-01	9.936801e-01	9.980697e-01	9.631252e-01	9.772607e-01	1.003134e+00	1.007106e+00	1.011993e+00	1.017019e+00	1.052715e+00	1.063134e+00	9.528732e-01	1.128097e+00	8.729525e-01	8.760168e-01	8.692839e-01	8.717582e-01	1.035078e+00	1.043098e+00	8.985209e-01	8.894466e-01	1.094838e+00	1.104404e+00	9.464956e-01	9.268892e-01	9.160536e-01	9.093092e-01	8.970821e-01	1.043467e+00	1.025072e+00	1.007454e+00	9.920973e-01	8.460763e-01	8.484639e-01	8.536942e-01	8.580599e-01	8.633980e-01	8.768384e-01	8.722885e-01	8.651120e-01	8.614703e-01	8.556299e-01	1.093697e+00	1.091576e+00	1.089510e+00	8.755387e-01	8.767562e-01	8.722376e-01	8.586355e-01	8.398159e-01	8.479144e-01	8.605129e-01	7.985365e-01	7.973013e-01	8.027116e-01	8.067444e-01	8.100264e-01	1.061380e+00	1.055890e+00	1.049802e+00	1.043918e+00	1.037698e+00	1.031712e+00	1.024875e+00	1.014963e+00	1.005572e+00	9.939034e-01	9.653175e-01	9.506663e-01	9.362024e-01	9.089051e-01	8.964426e-01	7.979853e-01	7.969892e-01	7.980257e-01	7.971424e-01	7.987527e-01	7.993226e-01	8.006010e-01	8.750684e-01	8.913949e-01	9.696455e-01	9.740861e-01	9.790636e-01	8.793164e-01	8.833042e-01	9.113144e-01	9.350452e-01	9.607411e-01	8.132019e-01	8.172407e-01	8.230482e-01	8.309287e-01	8.388180e-01	8.232345e-01	8.106058e-01	8.069700e-01	8.040202e-01	1.077009e+00	1.071694e+00	9.047421e-01	9.127591e-01	8.529599e-01	8.483256e-01	8.468317e-01	8.437720e-01	1.165626e+00	1.154344e+00	1.181060e+00	1.255389e+00	1.180438e+00	1.088537e+00	1.106511e+00	1.184333e+00	1.085723e+00	1.140596e+00	1.105651e+00	1.255174e+00	1.082496e+00	1.161564e+00	8.078081e-01	1.177490e+00	1.063344e+00	1.153614e+00	1.141591e+00	1.079499e+00	8.909999e-01	1.101622e+00	8.506229e-01	1.036143e+00	1.025973e+00	9.129487e-01	9.460987e-01	8.883725e-01	1.230993e+00	8.739777e-01	9.718797e-01	9.591131e-01	8.138015e-01	1.093961e+00	1.064833e+00	1.213519e+00	1.033767e+00	1.070306e+00	1.170564e+00	1.097405e+00	1.291683e+00	1.244781e+00	1.113390e+00	9.462273e-01	8.792338e-01	8.810366e-01	1.112105e+00	1.173625e+00	1.129517e+00	1.275257e+00	1.176417e+00	1.065106e+00	1.216753e+00	1.199636e+00	8.861246e-01	1.102041e+00	1.083143e+00	1.079431e+00	8.789990e-01	8.056018e-01	8.041603e-01	9.380339e-01	1.093837e+00	1.124393e+00	1.122501e+00	9.917137e-01	1.000966e+00	9.846249e-01	1.010432e+00	1.018781e+00	1.061057e+00	1.120606e+00	8.776909e-01	1.044174e+00	1.052132e+00	9.016122e-01	1.097261e+00	9.533657e-01	9.606800e-01	9.300116e-01	9.165563e-01	8.977142e-01	1.047673e+00	1.029298e+00	1.012702e+00	1.001243e+00	8.544151e-01	8.623010e-01	8.699948e-01	8.757496e-01	8.651691e-01	1.091046e+00	1.088417e+00	8.716533e-01	8.438094e-01	8.796017e-01	8.037240e-01	8.208403e-01	1.001759e+00	1.054775e+00	1.043472e+00	1.031873e+00	1.021268e+00	1.011868e+00	9.894535e-01	9.758580e-01	9.618691e-01	9.478526e-01	9.340362e-01	9.207983e-01	9.085366e-01	8.970897e-01	8.041074e-01	8.051153e-01	8.073478e-01	8.072818e-01	8.107863e-01	8.960004e-01	9.129131e-01	9.690926e-01	9.770890e-01	9.849216e-01	8.819829e-01	8.858822e-01	9.319890e-01	9.548827e-01	9.797538e-01	1.005546e+00	8.259133e-01	8.305443e-01	8.369507e-01	8.461570e-01	8.576743e-01	8.641560e-01	8.203870e-01	8.119486e-01	1.076772e+00	1.072201e+00	9.051771e-01	9.210301e-01	9.294548e-01	8.570603e-01	8.518711e-01	1.117364e+00	1.165634e+00	1.160751e+00	1.136237e+00	1.026622e+00	1.108289e+00	1.173542e+00	1.135193e+00	1.185530e+00	1.135397e+00	1.147157e+00	1.126375e+00	1.094161e+00	1.194212e+00	1.235501e+00	1.087933e+00	9.535299e-01	8.160626e-01	1.125027e+00	1.018311e+00	1.099932e+00	8.906806e-01	1.068601e+00	1.169568e+00	8.769794e-01	1.044303e+00	9.212237e-01	8.988139e-01	1.083539e+00	1.091348e+00	1.082808e+00	1.067766e+00	1.171194e+00	1.098566e+00	1.102955e+00	1.082183e+00	8.108909e-01	8.973523e-01	9.376916e-01	9.912129e-01	1.150467e+00	1.157161e+00	1.272196e+00	1.075498e+00	1.084909e+00	1.175415e+00	1.099006e+00	1.169883e+00	1.152368e+00	8.929575e-01	1.224759e+00	9.814993e-01	9.663185e-01	1.094607e+00	1.233975e+00	1.067488e+00	1.106303e+00	9.459280e-01	1.254285e+00	1.175829e+00	1.006574e+00	1.212951e+00	1.200030e+00	8.846088e-01	1.117935e+00	1.078597e+00	8.880165e-01	8.125937e-01	9.087999e-01	1.119701e+00	1.144536e+00	9.994538e-01	1.008885e+00	1.026462e+00	1.035214e+00	1.113953e+00	8.808646e-01	1.051826e+00	1.059430e+00	8.710312e-01	9.765678e-01	9.844051e-01	9.607018e-01	9.517917e-01	9.365864e-01	9.218127e-01	1.049970e+00	8.591524e-01	8.638907e-01	9.073999e-01	8.933918e-01	9.293431e-01	1.091118e+00	8.855529e-01	8.811727e-01	8.315504e-01	1.058341e+00	1.048308e+00	1.008459e+00	1.037575e+00	1.027232e+00	1.017796e+00	9.977891e-01	9.855122e-01	9.723969e-01	9.590111e-01	9.455789e-01	9.324576e-01	9.202523e-01	8.104154e-01	8.111521e-01	8.127487e-01	8.151260e-01	8.174923e-01	8.240494e-01	9.154693e-01	9.337139e-01	9.683959e-01	9.915390e-01	8.843680e-01	8.883119e-01	9.515940e-01	9.723358e-01	9.956542e-01	1.018915e+00	1.043220e+00	8.399819e-01	8.468004e-01	8.529115e-01	8.617187e-01	8.743047e-01	8.625724e-01	8.384832e-01	8.231362e-01	1.073650e+00	1.066785e+00	9.058156e-01	9.133901e-01	8.807586e-01	8.704705e-01	8.629879e-01	8.589028e-01	1.152231e+00	1.152505e+00	1.149147e+00	1.121148e+00	1.156842e+00	1.140385e+00	1.114760e+00	1.051017e+00	1.172550e+00	1.120335e+00	1.117616e+00	1.071896e+00	1.165839e+00	1.084341e+00	8.176123e-01	1.137205e+00	1.141191e+00	1.128533e+00	1.169208e+00	1.072529e+00	9.277583e-01	1.028070e+00	1.025929e+00	9.612610e-01	1.132347e+00	1.131944e+00	1.128138e+00	1.171522e+00	1.172201e+00	8.990385e-01	9.