# vtk DataFile Version 3.0
vtk output
ASCII
DATASET UNSTRUCTURED_GRID
POINTS 200 float
9.997500e-01	-3.633229e-05	0.0	9.990000e-01	-1.454636e-04	0.0	9.977600e-01	-3.274113e-04	0.0	9.960200e-01	-5.894086e-04	0.0	9.937800e-01	-9.452217e-04	0.0	9.910500e-01	-1.416921e-03	0.0	9.878400e-01	-2.033759e-03	0.0	9.841300e-01	-2.830631e-03	0.0	9.799500e-01	-3.819067e-03	0.0	9.752800e-01	-4.996287e-03	0.0	9.701500e-01	-6.316977e-03	0.0	9.645400e-01	-7.724898e-03	0.0	9.584700e-01	-9.147437e-03	0.0	9.519400e-01	-1.053133e-02	0.0	9.449600e-01	-1.184967e-02	0.0	9.375400e-01	-1.310670e-02	0.0	9.296900e-01	-1.432871e-02	0.0	9.214000e-01	-1.555268e-02	0.0	9.127000e-01	-1.680478e-02	0.0	9.035800e-01	-1.810538e-02	0.0	8.940600e-01	-1.945796e-02	0.0	8.841500e-01	-2.085806e-02	0.0	8.738500e-01	-2.229776e-02	0.0	8.631800e-01	-2.376527e-02	0.0	8.521600e-01	-2.525016e-02	0.0	8.407700e-01	-2.674936e-02	0.0	8.290500e-01	-2.825371e-02	0.0	8.170100e-01	-2.975934e-02	0.0	8.046400e-01	-3.126540e-02	0.0	7.919700e-01	-3.276624e-02	0.0	7.790100e-01	-3.425859e-02	0.0	7.657800e-01	-3.573785e-02	0.0	7.522800e-01	-3.720149e-02	0.0	7.385200e-01	-3.864571e-02	0.0	7.245300e-01	-4.006466e-02	0.0	7.103200e-01	-4.145475e-02	0.0	6.958900e-01	-4.281344e-02	0.0	6.812700e-01	-4.413555e-02	0.0	6.664700e-01	-4.541807e-02	0.0	6.515000e-01	-4.665822e-02	0.0	6.363800e-01	-4.785266e-02	0.0	6.211300e-01	-4.899841e-02	0.0	6.057600e-01	-5.009357e-02	0.0	5.902800e-01	-5.113641e-02	0.0	5.747100e-01	-5.212478e-02	0.0	5.590600e-01	-5.305742e-02	0.0	5.433600e-01	-5.393210e-02	0.0	5.276100e-01	-5.474851e-02	0.0	5.118400e-01	-5.550484e-02	0.0	4.960500e-01	-5.620090e-02	0.0	4.802700e-01	-5.683519e-02	0.0	4.645100e-01	-5.740716e-02	0.0	4.487800e-01	-5.791620e-02	0.0	4.331100e-01	-5.836107e-02	0.0	4.175000e-01	-5.874141e-02	0.0	4.019700e-01	-5.905621e-02	0.0	3.865400e-01	-5.930444e-02	0.0	3.712300e-01	-5.948512e-02	0.0	3.560400e-01	-5.959737e-02	0.0	3.409900e-01	-5.963996e-02	0.0	3.261100e-01	-5.961173e-02	0.0	3.114000e-01	-5.951150e-02	0.0	2.968700e-01	-5.933790e-02	0.0	2.825500e-01	-5.908983e-02	0.0	2.684500e-01	-5.876603e-02	0.0	2.545700e-01	-5.836487e-02	0.0	2.409400e-01	-5.788556e-02	0.0	2.275700e-01	-5.732689e-02	0.0	2.144700e-01	-5.668767e-02	0.0	2.016600e-01	-5.596736e-02	0.0	1.891400e-01	-5.516439e-02	0.0	1.769300e-01	-5.427850e-02	0.0	1.650400e-01	-5.330902e-02	0.0	1.534900e-01	-5.225634e-02	0.0	1.422900e-01	-5.112038e-02	0.0	1.314400e-01	-4.990006e-02	0.0	1.209500e-01	-4.859533e-02	0.0	1.108500e-01	-4.720920e-02	0.0	1.011300e-01	-4.573969e-02	0.0	9.181000e-02	-4.418913e-02	0.0	8.290000e-02	-4.255886e-02	0.0	7.440000e-02	-4.084842e-02	0.0	6.633000e-02	-3.906158e-02	0.0	5.869000e-02	-3.719822e-02	0.0	5.149000e-02	-3.526055e-02	0.0	4.474000e-02	-3.325126e-02	0.0	3.844000e-02	-3.117020e-02	0.0	3.260000e-02	-2.902035e-02	0.0	2.723000e-02	-2.680550e-02	0.0	2.232000e-02	-2.452072e-02	0.0	1.790000e-02	-2.217997e-02	0.0	1.395000e-02	-1.977249e-02	0.0	1.049000e-02	-1.730938e-02	0.0	7.520000e-03	-1.479134e-02	0.0	5.040000e-03	-1.221825e-02	0.0	3.050000e-03	-9.588074e-03	0.0	1.560000e-03	-6.915046e-03	0.0	5.600000e-04	-4.176770e-03	0.0	6.000000e-05	-1.377394e-03	0.0	0.000000e+00	0.000000e+00	0.0	6.000000e-05	1.262518e-03	0.0	5.600000e-04	3.623497e-03	0.0	1.560000e-03	5.791811e-03	0.0	3.050000e-03	7.819417e-03	0.0	5.040000e-03	9.751182e-03	0.0	7.520000e-03	1.159438e-02	0.0	1.049000e-02	1.336346e-02	0.0	1.395000e-02	1.506837e-02	0.0	1.790000e-02	1.671640e-02	0.0	2.232000e-02	1.830640e-02	0.0	2.723000e-02	1.985102e-02	0.0	3.260000e-02	2.134532e-02	0.0	3.844000e-02	2.279648e-02	0.0	4.474000e-02	2.420520e-02	0.0	5.149000e-02	2.557231e-02	0.0	5.869000e-02	2.690031e-02	0.0	6.633000e-02	2.818945e-02	0.0	7.440000e-02	2.943994e-02	0.0	8.290000e-02	3.065336e-02	0.0	9.181000e-02	3.182824e-02	0.0	1.011300e-01	3.296586e-02	0.0	1.108500e-01	3.406598e-02	0.0	1.209500e-01	3.512732e-02	0.0	1.314400e-01	3.615168e-02	0.0	1.422900e-01	3.713675e-02	0.0	1.534900e-01	3.808230e-02	0.0	1.650400e-01	3.898882e-02	0.0	1.769300e-01	3.985577e-02	0.0	1.891400e-01	4.068189e-02	0.0	2.016600e-01	4.146667e-02	0.0	2.144700e-01	4.220892e-02	0.0	2.275700e-01	4.290855e-02	0.0	2.409400e-01	4.356426e-02	0.0	2.545700e-01	4.417517e-02	0.0	2.684500e-01	4.474032e-02	0.0	2.825500e-01	4.525785e-02	0.0	2.968700e-01	4.572700e-02	0.0	3.114000e-01	4.614644e-02	0.0	3.261100e-01	4.651416e-02	0.0	3.409900e-01	4.682868e-02	0.0	3.560400e-01	4.708850e-02	0.0	3.712300e-01	4.729145e-02	0.0	3.865400e-01	4.743555e-02	0.0	4.019700e-01	4.751891e-02	0.0	4.175000e-01	4.753934e-02	0.0	4.331100e-01	4.749468e-02	0.0	4.487800e-01	4.738284e-02	0.0	4.645100e-01	4.720156e-02	0.0	4.802700e-01	4.694889e-02	0.0	4.960500e-01	4.662283e-02	0.0	5.118400e-01	4.622136e-02	0.0	5.276100e-01	4.574325e-02	0.0	5.433600e-01	4.518666e-02	0.0	5.590600e-01	4.455104e-02	0.0	5.747100e-01	4.383504e-02	0.0	5.902800e-01	4.303907e-02	0.0	6.057600e-01	4.216312e-02	0.0	6.211300e-01	4.120830e-02	0.0	6.363800e-01	4.017572e-02	0.0	6.515000e-01	3.906703e-02	0.0	6.664700e-01	3.788532e-02	0.0	6.812700e-01	3.663451e-02	0.0	6.958900e-01	3.531850e-02	0.0	7.103200e-01	3.394185e-02	0.0	7.245300e-01	3.251190e-02	0.0	7.385200e-01	3.103379e-02	0.0	7.522800e-01	2.951430e-02	0.0	7.657800e-01	2.796313e-02	0.0	7.790100e-01	2.638853e-02	0.0	7.919700e-01	2.479802e-02	0.0	8.046400e-01	2.320198e-02	0.0	8.170100e-01	2.160995e-02	0.0	8.290500e-01	2.003416e-02	0.0	8.407700e-01	1.848132e-02	0.0	8.521600e-01	1.695982e-02	0.0	8.631800e-01	1.548051e-02	0.0	8.738500e-01	1.404399e-02	0.0	8.841500e-01	1.265370e-02	0.0	8.940600e-01	1.131117e-02	0.0	9.035800e-01	1.001502e-02	0.0	9.127000e-01	8.768161e-03	0.0	9.214000e-01	7.581448e-03	0.0	9.296900e-01	6.470892e-03	0.0	9.375400e-01	5.466522e-03	0.0	9.449600e-01	4.596322e-03	0.0	9.519400e-01	3.884337e-03	0.0	9.584700e-01	3.336597e-03	0.0	9.645400e-01	2.933964e-03	0.0	9.701500e-01	2.633604e-03	0.0	9.752800e-01	2.382319e-03	0.0	9.799500e-01	2.130018e-03	0.0	9.841300e-01	1.848434e-03	0.0	9.878400e-01	1.530832e-03	0.0	9.910500e-01	1.195015e-03	0.0	9.937800e-01	8.647644e-04	0.0	9.960200e-01	5.671088e-04	0.0	9.977600e-01	3.232776e-04	0.0	9.990000e-01	1.450865e-04	0.0	9.997500e-01	3.632631e-05	0.0	1.000000e+00	0.000000e+00	0.0	
CELLS 200	600
2	199	0	2	0	1	2	1	2	2	2	3	2	3	4	2	4	5	2	5	6	2	6	7	2	7	8	2	8	9	2	9	10	2	10	11	2	11	12	2	12	13	2	13	14	2	14	15	2	15	16	2	16	17	2	17	18	2	18	19	2	19	20	2	20	21	2	21	22	2	22	23	2	23	24	2	24	25	2	25	26	2	26	27	2	27	28	2	28	29	2	29	30	2	30	31	2	31	32	2	32	33	2	33	34	2	34	35	2	35	36	2	36	37	2	37	38	2	38	39	2	39	40	2	40	41	2	41	42	2	42	43	2	43	44	2	44	45	2	45	46	2	46	47	2	47	48	2	48	49	2	49	50	2	50	51	2	51	52	2	52	53	2	53	54	2	54	55	2	55	56	2	56	57	2	57	58	2	58	59	2	59	60	2	60	61	2	61	62	2	62	63	2	63	64	2	64	65	2	65	66	2	66	67	2	67	68	2	68	69	2	69	70	2	70	71	2	71	72	2	72	73	2	73	74	2	74	75	2	75	76	2	76	77	2	77	78	2	78	79	2	79	80	2	80	81	2	81	82	2	82	83	2	83	84	2	84	85	2	85	86	2	86	87	2	87	88	2	88	89	2	89	90	2	90	91	2	91	92	2	92	93	2	93	94	2	94	95	2	95	96	2	96	97	2	97	98	2	98	99	2	99	100	2	100	101	2	101	102	2	102	103	2	103	104	2	104	105	2	105	106	2	106	107	2	107	108	2	108	109	2	109	110	2	110	111	2	111	112	2	112	113	2	113	114	2	114	115	2	115	116	2	116	117	2	117	118	2	118	119	2	119	120	2	120	121	2	121	122	2	122	123	2	123	124	2	124	125	2	125	126	2	126	127	2	127	128	2	128	129	2	129	130	2	130	131	2	131	132	2	132	133	2	133	134	2	134	135	2	135	136	2	136	137	2	137	138	2	138	139	2	139	140	2	140	141	2	141	142	2	142	143	2	143	144	2	144	145	2	145	146	2	146	147	2	147	148	2	148	149	2	149	150	2	150	151	2	151	152	2	152	153	2	153	154	2	154	155	2	155	156	2	156	157	2	157	158	2	158	159	2	159	160	2	160	161	2	161	162	2	162	163	2	163	164	2	164	165	2	165	166	2	166	167	2	167	168	2	168	169	2	169	170	2	170	171	2	171	172	2	172	173	2	173	174	2	174	175	2	175	176	2	176	177	2	177	178	2	178	179	2	179	180	2	180	181	2	181	182	2	182	183	2	183	184	2	184	185	2	185	186	2	186	187	2	187	188	2	188	189	2	189	190	2	190	191	2	191	192	2	192	193	2	193	194	2	194	195	2	195	196	2	196	197	2	197	198	2	198	199	
CELL_TYPES 200
3	3	3	3	3	3	3	3	3	3	3	3	3	3	3	3	3	3	3	3	3	3	3	3	3	3	3	3	3	3	3	3	3	3	3	3	3	3	3	3	3	3	3	3	3	3	3	3	3	3	3	3	3	3	3	3	3	3	3	3	3	3	3	3	3	3	3	3	3	3	3	3	3	3	3	3	3	3	3	3	3	3	3	3	3	3	3	3	3	3	3	3	3	3	3	3	3	3	3	3	3	3	3	3	3	3	3	3	3	3	3	3	3	3	3	3	3	3	3	3	3	3	3	3	3	3	3	3	3	3	3	3	3	3	3	3	3	3	3	3	3	3	3	3	3	3	3	3	3	3	3	3	3	3	3	3	3	3	3	3	3	3	3	3	3	3	3	3	3	3	3	3	3	3	3	3	3	3	3	3	3	3	3	3	3	3	3	3	3	3	3	3	3	3	3	3	3	3	3	3	
POINT_DATA 200

SCALARS Conservative_1 float 1
LOOKUP_TABLE default
1.199524e+00	1.181127e+00	1.170493e+00	1.163812e+00	1.159002e+00	1.154349e+00	1.147381e+00	1.136528e+00	1.120599e+00	1.099701e+00	1.075069e+00	1.049275e+00	1.026534e+00	1.010590e+00	1.002456e+00	1.000348e+00	1.001262e+00	1.002493e+00	1.002372e+00	1.000323e+00	9.965516e-01	9.915901e-01	9.859974e-01	9.802258e-01	9.745412e-01	9.690515e-01	9.637502e-01	9.585948e-01	9.535243e-01	9.485090e-01	9.435343e-01	9.385589e-01	9.335495e-01	9.285216e-01	9.235228e-01	9.185980e-01	9.137653e-01	9.090269e-01	9.043936e-01	8.998792e-01	8.954837e-01	8.912165e-01	8.870591e-01	8.830233e-01	8.791211e-01	8.754058e-01	8.718774e-01	8.684796e-01	8.650602e-01	8.615816e-01	8.582186e-01	8.553241e-01	8.530451e-01	8.511359e-01	8.489603e-01	8.457760e-01	8.410591e-01	8.349239e-01	8.282348e-01	8.222675e-01	8.179399e-01	8.154623e-01	8.145601e-01	8.147866e-01	8.158169e-01	8.174414e-01	8.196071e-01	8.222312e-01	8.252288e-01	8.284846e-01	8.320060e-01	8.359403e-01	8.405255e-01	8.458363e-01	8.518068e-01	8.582931e-01	8.653515e-01	8.731508e-01	8.817467e-01	8.911764e-01	9.015498e-01	9.129229e-01	9.254422e-01	9.392214e-01	9.544447e-01	9.713819e-01	9.902557e-01	1.011419e+00	1.035350e+00	1.062368e+00	1.093011e+00	1.127770e+00	1.166550e+00	1.208962e+00	1.253361e+00	1.296894e+00	1.330982e+00	1.350843e+00	1.340151e+00	1.309661e+00	1.286206e+00	1.224053e+00	1.104705e+00	1.009305e+00	9.347879e-01	8.798911e-01	8.421545e-01	8.169801e-01	7.996717e-01	7.875922e-01	7.791204e-01	7.731257e-01	7.690627e-01	7.662212e-01	7.642561e-01	7.631714e-01	7.628275e-01	7.629740e-01	7.633030e-01	7.635189e-01	7.636544e-01	7.640161e-01	7.648318e-01	7.659453e-01	7.669962e-01	7.677965e-01	7.684464e-01	7.690487e-01	7.696671e-01	7.703694e-01	7.712545e-01	7.723451e-01	7.735825e-01	7.748444e-01	7.760639e-01	7.772326e-01	7.784248e-01	7.796394e-01	7.806433e-01	7.809268e-01	7.804360e-01	7.809236e-01	7.872500e-01	8.048969e-01	8.312647e-01	8.529985e-01	8.612952e-01	8.587275e-01	8.522010e-01	8.471816e-01	8.457698e-01	8.479017e-01	8.525484e-01	8.586256e-01	8.652340e-01	8.718810e-01	8.784022e-01	8.849662e-01	8.918255e-01	8.990789e-01	9.066851e-01	9.145694e-01	9.226863e-01	9.310236e-01	9.395396e-01	9.482162e-01	9.569963e-01	9.658619e-01	9.747368e-01	9.836224e-01	9.924349e-01	1.001092e+00	1.009532e+00	1.017672e+00	1.025466e+00	1.032895e+00	1.040002e+00	1.046961e+00	1.054024e+00	1.061564e+00	1.069866e+00	1.079022e+00	1.088661e+00	1.097952e+00	1.105686e+00	1.110575e+00	1.111575e+00	1.108355e+00	1.101679e+00	1.093648e+00	1.087208e+00	1.085181e+00	1.089285e+00	1.099402e+00	1.113687e+00	1.130517e+00	1.148683e+00	1.168616e+00	1.192539e+00	1.180885e+00	
SCALARS Conservative_2 float 1
LOOKUP_TABLE default
7.201103e-01	7.466968e-01	7.650758e-01	7.762283e-01	7.824892e-01	7.875892e-01	7.936186e-01	8.033372e-01	8.181710e-01	8.381607e-01	8.616297e-01	8.853592e-01	9.058642e-01	9.208691e-01	9.298194e-01	9.336939e-01	9.344827e-01	9.342043e-01	9.342642e-01	9.352532e-01	9.372224e-01	9.398804e-01	9.428632e-01	9.458906e-01	9.487796e-01	9.514659e-01	9.539430e-01	9.562510e-01	9.583996e-01	9.604196e-01	9.623452e-01	9.641691e-01	9.659042e-01	9.675500e-01	9.690941e-01	9.705242e-01	9.718558e-01	9.730684e-01	9.741734e-01	9.751848e-01	9.760842e-01	9.769049e-01	9.776220e-01	9.782710e-01	9.788200e-01	9.793068e-01	9.797083e-01	9.800755e-01	9.803805e-01	9.806636e-01	9.808641e-01	9.810042e-01	9.810663e-01	9.811063e-01	9.811461e-01	9.812247e-01	9.812714e-01	9.812064e-01	9.808918e-01	9.804002e-01	9.798968e-01	9.794847e-01	9.792393e-01	9.790948e-01	9.790505e-01	9.790137e-01	9.790053e-01	9.789525e-01	9.788678e-01	9.786844e-01	9.784144e-01	9.780024e-01	9.774476e-01	9.766695e-01	9.756553e-01	9.742661e-01	9.725222e-01	9.703284e-01	9.674592e-01	9.637590e-01	9.591410e-01	9.533196e-01	9.460362e-01	9.368843e-01	9.253607e-01	9.107516e-01	8.921470e-01	8.684971e-01	8.382574e-01	7.993119e-01	7.491988e-01	6.848713e-01	6.026164e-01	5.000818e-01	3.769480e-01	2.406333e-01	1.105467e-01	1.249774e-02	-2.090422e-02	5.285388e-03	7.224555e-02	2.087380e-01	4.104787e-01	5.864074e-01	7.116800e-01	7.940720e-01	8.466134e-01	8.803718e-01	9.023003e-01	9.171054e-01	9.274533e-01	9.347981e-01	9.403357e-01	9.446005e-01	9.479579e-01	9.507741e-01	9.531274e-01	9.551102e-01	9.568306e-01	9.582776e-01	9.595354e-01	9.607222e-01	9.618560e-01	9.628470e-01	9.637180e-01	9.644615e-01	9.651366e-01	9.657296e-01	9.662910e-01	9.668185e-01	9.673677e-01	9.679183e-01	9.684768e-01	9.689966e-01	9.694923e-01	9.699508e-01	9.704007e-01	9.708033e-01	9.711062e-01	9.712368e-01	9.714656e-01	9.721596e-01	9.741820e-01	9.775367e-01	9.793452e-01	9.788692e-01	9.782633e-01	9.782622e-01	9.786261e-01	9.790050e-01	9.792476e-01	9.793809e-01	9.793186e-01	9.790899e-01	9.786206e-01	9.779909e-01	9.772340e-01	9.763116e-01	9.751875e-01	9.738081e-01	9.721558e-01	9.702098e-01	9.679615e-01	9.654020e-01	9.625164e-01	9.593074e-01	9.557663e-01	9.519367e-01	9.477508e-01	9.433169e-01	9.386427e-01	9.337434e-01	9.287320e-01	9.236648e-01	9.185894e-01	9.135345e-01	9.084438e-01	9.032032e-01	8.975309e-01	8.911468e-01	8.837299e-01	8.752757e-01	8.661944e-01	8.575245e-01	8.507419e-01	8.473462e-01	8.482999e-01	8.534984e-01	8.615276e-01	8.698216e-01	8.752240e-01	8.752235e-01	8.685703e-01	8.559609e-01	8.380477e-01	8.162910e-01	7.903178e-01	7.590577e-01	7.209412e-01	6.624138e-01	
SCALARS Conservative_3 float 1
LOOKUP_TABLE default
1.010411e-01	1.067280e-01	1.128764e-01	1.196229e-01	1.297355e-01	1.438658e-01	1.616893e-01	1.813588e-01	1.998217e-01	2.132876e-01	2.187003e-01	2.145668e-01	2.018757e-01	1.843046e-01	1.663881e-01	1.516405e-01	1.416275e-01	1.361115e-01	1.337891e-01	1.330899e-01	1.327647e-01	1.320755e-01	1.307441e-01	1.287948e-01	1.263875e-01	1.237137e-01	1.209015e-01	1.180376e-01	1.151479e-01	1.122215e-01	1.092483e-01	1.062094e-01	1.030937e-01	9.989453e-02	9.659846e-02	9.321993e-02	8.975497e-02	8.622109e-02	8.262437e-02	7.897556e-02	7.528740e-02	7.156503e-02	6.782670e-02	6.407322e-02	6.031272e-02	5.653516e-02	5.274253e-02	4.894371e-02	4.516271e-02	4.140753e-02	3.764479e-02	3.381747e-02	2.990067e-02	2.587801e-02	2.177877e-02	1.764816e-02	1.353601e-02	9.434107e-03	5.236249e-03	8.023602e-04	-3.906120e-03	-8.866754e-03	-1.406613e-02	-1.949037e-02	-2.517616e-02	-3.115000e-02	-3.746753e-02	-4.414484e-02	-5.121527e-02	-5.869722e-02	-6.663466e-02	-7.508811e-02	-8.412623e-02	-9.378070e-02	-1.040936e-01	-1.151134e-01	-1.269477e-01	-1.396593e-01	-1.533224e-01	-1.680567e-01	-1.839777e-01	-2.011945e-01	-2.198589e-01	-2.401038e-01	-2.620482e-01	-2.858121e-01	-3.114736e-01	-3.389922e-01	-3.680099e-01	-3.978454e-01	-4.271008e-01	-4.527913e-01	-4.699996e-01	-4.704599e-01	-4.413212e-01	-3.669340e-01	-2.350903e-01	-4.380132e-02	1.793384e-01	3.451246e-01	4.900153e-01	6.553750e-01	7.196050e-01	6.872612e-01	6.130288e-01	5.316422e-01	4.585979e-01	3.975710e-01	3.476271e-01	3.065395e-01	2.726929e-01	2.443822e-01	2.204780e-01	2.000588e-01	1.824101e-01	1.670295e-01	1.535386e-01	1.415874e-01	1.309261e-01	1.212916e-01	1.124923e-01	1.044622e-01	9.714805e-02	9.045205e-02	8.425322e-02	7.841108e-02	7.290965e-02	6.771422e-02	6.281309e-02	5.814851e-02	5.369768e-02	4.943420e-02	4.533252e-02	4.134840e-02	3.744958e-02	3.360745e-02	2.981787e-02	2.608855e-02	2.241942e-02	1.870602e-02	1.475932e-02	1.038451e-02	5.713961e-03	1.643099e-03	-5.811563e-04	-3.046782e-03	-7.371371e-03	-1.266978e-02	-1.808668e-02	-2.314409e-02	-2.790653e-02	-3.262099e-02	-3.740509e-02	-4.235082e-02	-4.745038e-02	-5.269658e-02	-5.805303e-02	-6.346482e-02	-6.887395e-02	-7.424388e-02	-7.954116e-02	-8.475068e-02	-8.981488e-02	-9.470153e-02	-9.934238e-02	-1.037114e-01	-1.077378e-01	-1.113858e-01	-1.145989e-01	-1.173332e-01	-1.195476e-01	-1.212075e-01	-1.223147e-01	-1.228923e-01	-1.230097e-01	-1.228069e-01	-1.224510e-01	-1.221116e-01	-1.218562e-01	-1.215261e-01	-1.206095e-01	-1.182479e-01	-1.133705e-01	-1.051313e-01	-9.335203e-02	-7.892471e-02	-6.393356e-02	-5.134336e-02	-4.425444e-02	-4.475025e-02	-5.289495e-02	-6.654079e-02	-8.206116e-02	-9.591761e-02	-1.055206e-01	-1.099814e-01	-1.102990e-01	-1.061634e-01	-1.003461e-01	2.535192e-03	
SCALARS Conservative_4 float 1
LOOKUP_TABLE default
3.445649e+00	3.399612e+00	3.373803e+00	3.357684e+00	3.345947e+00	3.334610e+00	3.317307e+00	3.290280e+00	3.250533e+00	3.198345e+00	3.136718e+00	3.071961e+00	3.014710e+00	2.974555e+00	2.954093e+00	2.948778e+00	2.951030e+00	2.954052e+00	2.953654e+00	2.948372e+00	2.938736e+00	2.926079e+00	2.911807e+00	2.897064e+00	2.882520e+00	2.868454e+00	2.854848e+00	2.841602e+00	2.828554e+00	2.815633e+00	2.802807e+00	2.789964e+00	2.777019e+00	2.764012e+00	2.751065e+00	2.738296e+00	2.725755e+00	2.713441e+00	2.701388e+00	2.689634e+00	2.678174e+00	2.667041e+00	2.656180e+00	2.645631e+00	2.635416e+00	2.625685e+00	2.616431e+00	2.607522e+00	2.598545e+00	2.589415e+00	2.580574e+00	2.572954e+00	2.566936e+00	2.561889e+00	2.556149e+00	2.547778e+00	2.535382e+00	2.519245e+00	2.501595e+00	2.485799e+00	2.474309e+00	2.467701e+00	2.465280e+00	2.465854e+00	2.468577e+00	2.472870e+00	2.478607e+00	2.485550e+00	2.493485e+00	2.502093e+00	2.511402e+00	2.521786e+00	2.533880e+00	2.547863e+00	2.563570e+00	2.580593e+00	2.599103e+00	2.619536e+00	2.641991e+00	2.666552e+00	2.693521e+00	2.723006e+00	2.755379e+00	2.790895e+00	2.829993e+00	2.873312e+00	2.921355e+00	2.974987e+00	3.035346e+00	3.103092e+00	3.179511e+00	3.265715e+00	3.361213e+00	3.464996e+00	3.572893e+00	3.678472e+00	3.760632e+00	3.809617e+00	3.782722e+00	3.706259e+00	3.654370e+00	3.507062e+00	3.204039e+00	2.961781e+00	2.770951e+00	2.629571e+00	2.532150e+00	2.467062e+00	2.422118e+00	2.390626e+00	2.368484e+00	2.352730e+00	2.342049e+00	2.334576e+00	2.329407e+00	2.326591e+00	2.325729e+00	2.326157e+00	2.327081e+00	2.327704e+00	2.328122e+00	2.329159e+00	2.331405e+00	2.334413e+00	2.337248e+00	2.339414e+00	2.341187e+00	2.342825e+00	2.344512e+00	2.346418e+00	2.348819e+00	2.351765e+00	2.355104e+00	2.358502e+00	2.361789e+00	2.364938e+00	2.368151e+00	2.371411e+00	2.374095e+00	2.374850e+00	2.373632e+00	2.375126e+00	2.392278e+00	2.439423e+00	2.509009e+00	2.565944e+00	2.587606e+00	2.580857e+00	2.563819e+00	2.550776e+00	2.547186e+00	2.552882e+00	2.565140e+00	2.581130e+00	2.598469e+00	2.615889e+00	2.632968e+00	2.650138e+00	2.668056e+00	2.686971e+00	2.706771e+00	2.727255e+00	2.748304e+00	2.769884e+00	2.791882e+00	2.814252e+00	2.836840e+00	2.859611e+00	2.882342e+00	2.905068e+00	2.927563e+00	2.949610e+00	2.971069e+00	2.991735e+00	3.011490e+00	3.030290e+00	3.048242e+00	3.065794e+00	3.083557e+00	3.102483e+00	3.123263e+00	3.146138e+00	3.170184e+00	3.193359e+00	3.212689e+00	3.224998e+00	3.227666e+00	3.219810e+00	3.203254e+00	3.183194e+00	3.166965e+00	3.161652e+00	3.171623e+00	3.196729e+00	3.232132e+00	3.273804e+00	3.318496e+00	3.367327e+00	3.426447e+00	3.383198e+00	
SCALARS Pressure float 1
LOOKUP_TABLE default
1.290097e+00	1.263505e+00	1.247328e+00	1.237070e+00	1.229816e+00	1.222787e+00	1.212580e+00	1.196759e+00	1.173615e+00	1.143300e+00	1.107676e+00	1.070599e+00	1.038068e+00	1.015277e+00	1.003624e+00	1.000618e+00	1.001974e+00	1.003811e+00	1.003733e+00	1.000924e+00	9.956717e-01	9.887399e-01	9.809322e-01	9.728893e-01	9.649899e-01	9.573828e-01	9.500588e-01	9.429512e-01	9.359806e-01	9.291017e-01	9.222867e-01	9.154864e-01	9.086546e-01	9.018116e-01	8.950226e-01	8.883491e-01	8.818107e-01	8.754167e-01	8.691779e-01	8.631088e-01	8.572156e-01	8.515007e-01	8.459486e-01	8.405641e-01	8.353737e-01	8.304360e-01	8.257594e-01	8.212548e-01	8.167317e-01	8.121273e-01	8.076920e-01	8.038839e-01	8.009047e-01	7.984137e-01	7.955651e-01	7.913644e-01	7.851376e-01	7.770530e-01	7.682941e-01	7.605308e-01	7.549354e-01	7.517616e-01	7.506211e-01	7.509411e-01	7.522863e-01	7.544064e-01	7.572196e-01	7.606368e-01	7.645361e-01	7.687824e-01	7.733761e-01	7.785242e-01	7.845331e-01	7.915175e-01	7.993818e-01	8.079673e-01	8.173234e-01	8.276824e-01	8.391637e-01	8.518318e-01	8.658174e-01	8.812336e-01	8.982873e-01	9.171714e-01	9.381754e-01	9.617247e-01	9.881962e-01	1.018117e+00	1.052240e+00	1.091161e+00	1.135719e+00	1.186746e+00	1.244353e+00	1.308012e+00	1.375405e+00	1.441696e+00	1.494112e+00	1.523540e+00	1.508224e+00	1.464310e+00	1.423600e+00	1.325526e+00	1.157361e+00	1.022977e+00	9.196119e-01	8.442585e-01	7.926945e-01	7.583938e-01	7.350035e-01	7.188054e-01	7.074999e-01	6.995868e-01	6.942276e-01	6.904820e-01	6.878925e-01	6.864264e-01	6.859307e-01	6.860815e-01	6.864560e-01	6.866850e-01	6.868023e-01	6.871926e-01	6.881673e-01	6.895556e-01	6.908692e-01	6.918638e-01	6.926568e-01	6.933956e-01	6.941504e-01	6.950169e-01	6.961103e-01	6.974703e-01	6.990160e-01	7.006001e-01	7.021279e-01	7.035935e-01	7.050874e-01	7.066220e-01	7.079016e-01	7.082656e-01	7.075463e-01	7.079774e-01	7.158026e-01	7.383274e-01	7.728425e-01	8.017126e-01	8.128064e-01	8.094182e-01	8.006895e-01	7.939157e-01	7.919320e-01	7.946523e-01	8.007399e-01	8.087430e-01	8.174939e-01	8.263158e-01	8.349829e-01	8.437278e-01	8.528903e-01	8.626123e-01	8.728419e-01	8.834844e-01	8.944815e-01	9.058172e-01	9.174409e-01	9.293264e-01	9.414025e-01	9.536329e-01	9.659399e-01	9.782952e-01	9.905918e-01	1.002724e+00	1.014584e+00	1.026058e+00	1.037074e+00	1.047602e+00	1.057708e+00	1.067632e+00	1.077751e+00	1.088593e+00	1.100590e+00	1.113863e+00	1.127875e+00	1.141381e+00	1.152583e+00	1.159576e+00	1.160855e+00	1.156000e+00	1.146201e+00	1.134551e+00	1.125357e+00	1.122667e+00	1.128897e+00	1.143733e+00	1.164727e+00	1.189501e+00	1.216529e+00	1.246395e+00	1.281722e+00	1.278962e+00	
SCALARS Temperature float 1
LOOKUP_TABLE default
1.075507e+00	1.069745e+00	1.065643e+00	1.062947e+00	1.061100e+00	1.059287e+00	1.056824e+00	1.052995e+00	1.047310e+00	1.039646e+00	1.030331e+00	1.020323e+00	1.011236e+00	1.004638e+00	1.001166e+00	1.000270e+00	1.000711e+00	1.001315e+00	1.001358e+00	1.000601e+00	9.991171e-01	9.971257e-01	9.948629e-01	9.925155e-01	9.901992e-01	9.879586e-01	9.857935e-01	9.836807e-01	9.816012e-01	9.795391e-01	9.774809e-01	9.754171e-01	9.733331e-01	9.712338e-01	9.691397e-01	9.670706e-01	9.650298e-01	9.630261e-01	9.610616e-01	9.591386e-01	9.572655e-01	9.554365e-01	9.536553e-01	9.519161e-01	9.502373e-01	9.486297e-01	9.471050e-01	9.456236e-01	9.441327e-01	9.426006e-01	9.411261e-01	9.398589e-01	9.388773e-01	9.380567e-01	9.371051e-01	9.356666e-01	9.335106e-01	9.306871e-01	9.276284e-01	9.249189e-01	9.229718e-01	9.218839e-01	9.215049e-01	9.216414e-01	9.221264e-01	9.228874e-01	9.238812e-01	9.250887e-01	9.264535e-01	9.279381e-01	9.295319e-01	9.313155e-01	9.333840e-01	9.357810e-01	9.384543e-01	9.413653e-01	9.444988e-01	9.479261e-01	9.517062e-01	9.558510e-01	9.603655e-01	9.652881e-01	9.706574e-01	9.765231e-01	9.829541e-01	9.900583e-01	9.979202e-01	1.006622e+00	1.016313e+00	1.027102e+00	1.039074e+00	1.052294e+00	1.066695e+00	1.081930e+00	1.097373e+00	1.111652e+00	1.122564e+00	1.127844e+00	1.125413e+00	1.118083e+00	1.106821e+00	1.082899e+00	1.047665e+00	1.013546e+00	9.837653e-01	9.595035e-01	9.412697e-01	9.282891e-01	9.191316e-01	9.126619e-01	9.080752e-01	9.048810e-01	9.026931e-01	9.011523e-01	9.000811e-01	8.994394e-01	8.991950e-01	8.992199e-01	8.993230e-01	8.993687e-01	8.993628e-01	8.994479e-01	8.997629e-01	9.002675e-01	9.007466e-01	9.011031e-01	9.013729e-01	9.016277e-01	9.018840e-01	9.021865e-01	9.025689e-01	9.030552e-01	9.036089e-01	9.041817e-01	9.047296e-01	9.052548e-01	9.057875e-01	9.063447e-01	9.068183e-01	9.069552e-01	9.066038e-01	9.065899e-01	9.092443e-01	9.172944e-01	9.297189e-01	9.398758e-01	9.437025e-01	9.425786e-01	9.395547e-01	9.371258e-01	9.363446e-01	9.371986e-01	9.392310e-01	9.419042e-01	9.448240e-01	9.477392e-01	9.505701e-01	9.534012e-01	9.563422e-01	9.594401e-01	9.626737e-01	9.660113e-01	9.694318e-01	9.729261e-01	9.764793e-01	9.800786e-01	9.837055e-01	9.873387e-01	9.909751e-01	9.945841e-01	9.981429e-01	1.001630e+00	1.005005e+00	1.008240e+00	1.011320e+00	1.014239e+00	1.017025e+00	1.019744e+00	1.022511e+00	1.025462e+00	1.028718e+00	1.032290e+00	1.036020e+00	1.039554e+00	1.042414e+00	1.044122e+00	1.044334e+00	1.042987e+00	1.040412e+00	1.037401e+00	1.035089e+00	1.034544e+00	1.036366e+00	1.040323e+00	1.045830e+00	1.052175e+00	1.059064e+00	1.066556e+00	1.074784e+00	1.083054e+00	
SCALARS Pressure_Coefficient float 1
LOOKUP_TABLE default
6.475370e-01	5.881810e-01	5.520713e-01	5.291745e-01	5.129829e-01	4.972918e-01	4.745086e-01	4.391933e-01	3.875325e-01	3.198661e-01	2.403486e-01	1.575866e-01	8.497317e-02	3.409959e-02	8.090369e-03	1.378399e-03	4.405580e-03	8.507670e-03	8.333165e-03	2.062456e-03	-9.661306e-03	-2.513415e-02	-4.256204e-02	-6.051497e-02	-7.814745e-02	-9.512763e-02	-1.114759e-01	-1.273410e-01	-1.429005e-01	-1.582552e-01	-1.734672e-01	-1.886465e-01	-2.038960e-01	-2.191706e-01	-2.343247e-01	-2.492207e-01	-2.638154e-01	-2.780878e-01	-2.920136e-01	-3.055606e-01	-3.187152e-01	-3.314716e-01	-3.438647e-01	-3.558838e-01	-3.674695e-01	-3.784911e-01	-3.889299e-01	-3.989848e-01	-4.090811e-01	-4.193587e-01	-4.292590e-01	-4.377591e-01	-4.444092e-01	-4.499695e-01	-4.563280e-01	-4.657045e-01	-4.796036e-01	-4.976496e-01	-5.172006e-01	-5.345295e-01	-5.470192e-01	-5.541037e-01	-5.566493e-01	-5.559351e-01	-5.529324e-01	-5.482000e-01	-5.419205e-01	-5.342929e-01	-5.255890e-01	-5.161106e-01	-5.058570e-01	-4.943657e-01	-4.809529e-01	-4.653628e-01	-4.478085e-01	-4.286443e-01	-4.077603e-01	-3.846374e-01	-3.590095e-01	-3.307325e-01	-2.995148e-01	-2.651035e-01	-2.270373e-01	-1.848853e-01	-1.380014e-01	-8.543597e-02	-2.634787e-02	4.043922e-02	1.166076e-01	2.034837e-01	3.029443e-01	4.168436e-01	5.454312e-01	6.875267e-01	8.379575e-01	9.859276e-01	1.102928e+00	1.168615e+00	1.134428e+00	1.036406e+00	9.455349e-01	7.266207e-01	3.512520e-01	5.128760e-02	-1.794378e-01	-3.476373e-01	-4.627354e-01	-5.392996e-01	-5.915100e-01	-6.276665e-01	-6.529019e-01	-6.705652e-01	-6.825276e-01	-6.908884e-01	-6.966685e-01	-6.999410e-01	-7.010475e-01	-7.007110e-01	-6.998751e-01	-6.993637e-01	-6.991020e-01	-6.982308e-01	-6.960552e-01	-6.929562e-01	-6.900241e-01	-6.878040e-01	-6.860339e-01	-6.843849e-01	-6.827000e-01	-6.807659e-01	-6.783253e-01	-6.752896e-01	-6.718392e-01	-6.683033e-01	-6.648930e-01	-6.616215e-01	-6.582870e-01	-6.548615e-01	-6.520053e-01	-6.511928e-01	-6.527985e-01	-6.518361e-01	-6.343692e-01	-5.840907e-01	-5.070481e-01	-4.426057e-01	-4.178428e-01	-4.254059e-01	-4.448896e-01	-4.600097e-01	-4.644376e-01	-4.583655e-01	-4.447770e-01	-4.269129e-01	-4.073797e-01	-3.876880e-01	-3.683418e-01	-3.488220e-01	-3.283698e-01	-3.066689e-01	-2.838351e-01	-2.600795e-01	-2.355324e-01	-2.102294e-01	-1.842836e-01	-1.577536e-01	-1.307979e-01	-1.034981e-01	-7.602694e-02	-4.844832e-02	-2.100039e-02	6.079571e-03	3.255360e-02	5.816458e-02	8.275538e-02	1.062549e-01	1.288116e-01	1.509651e-01	1.735506e-01	1.977529e-01	2.245321e-01	2.541588e-01	2.854349e-01	3.155828e-01	3.405873e-01	3.561956e-01	3.590510e-01	3.482136e-01	3.263411e-01	3.003366e-01	2.798143e-01	2.738106e-01	2.877173e-01	3.208323e-01	3.676949e-01	4.229932e-01	4.833239e-01	5.499890e-01	6.288438e-01	6.226837e-01	
SCALARS Mach float 1
LOOKUP_TABLE default
4.940298e-01	5.218371e-01	5.409308e-01	5.532020e-01	5.614884e-01	5.695331e-01	5.803236e-01	5.968083e-01	6.206877e-01	6.518846e-01	6.884775e-01	7.264251e-01	7.598445e-01	7.835789e-01	7.959042e-01	7.990691e-01	7.975109e-01	7.953759e-01	7.952251e-01	7.978990e-01	8.031284e-01	8.101168e-01	8.180184e-01	8.261734e-01	8.341792e-01	8.418863e-01	8.493001e-01	8.565041e-01	8.635658e-01	8.705411e-01	8.774768e-01	8.844058e-01	8.913775e-01	8.983755e-01	9.053324e-01	9.121830e-01	9.189186e-01	9.255114e-01	9.319566e-01	9.382478e-01	9.443597e-01	9.503124e-01	9.560957e-01	9.617301e-01	9.671569e-01	9.723429e-01	9.772524e-01	9.820138e-01	9.867977e-01	9.917052e-01	9.964204e-01	1.000467e+00	1.003597e+00	1.006212e+00	1.009241e+00	1.013815e+00	1.020658e+00	1.029598e+00	1.039257e+00	1.047791e+00	1.053912e+00	1.057327e+00	1.058517e+00	1.058088e+00	1.056566e+00	1.054177e+00	1.051054e+00	1.047256e+00	1.042960e+00	1.038280e+00	1.033249e+00	1.027610e+00	1.021059e+00	1.013452e+00	1.004946e+00	9.956561e-01	9.856237e-01	9.746096e-01	9.624093e-01	9.489647e-01	9.342357e-01	9.180674e-01	9.002928e-01	8.806958e-01	8.589748e-01	8.346650e-01	8.073324e-01	7.764835e-01	7.412838e-01	7.008619e-01	6.541710e-01	5.997895e-01	5.360879e-01	4.614506e-01	3.735971e-01	2.712145e-01	1.556940e-01	2.683425e-02	1.073322e-01	2.106527e-01	3.093613e-01	4.563654e-01	6.192172e-01	7.514336e-01	8.562163e-01	9.370554e-01	9.959616e-01	1.037172e+00	1.065955e+00	1.086167e+00	1.100442e+00	1.110360e+00	1.117141e+00	1.121913e+00	1.125227e+00	1.127212e+00	1.127968e+00	1.127891e+00	1.127572e+00	1.127431e+00	1.127449e+00	1.127186e+00	1.126212e+00	1.124651e+00	1.123168e+00	1.122065e+00	1.121230e+00	1.120441e+00	1.119647e+00	1.118711e+00	1.117526e+00	1.116020e+00	1.114304e+00	1.112528e+00	1.110829e+00	1.109200e+00	1.107547e+00	1.105818e+00	1.104347e+00	1.103922e+00	1.105013e+00	1.105056e+00	1.096808e+00	1.071705e+00	1.032658e+00	1.000413e+00	9.881764e-01	9.917758e-01	1.001438e+00	1.009176e+00	1.011660e+00	1.008944e+00	1.002470e+00	9.939334e-01	9.845804e-01	9.752113e-01	9.660820e-01	9.569199e-01	9.473665e-01	9.372624e-01	9.266691e-01	9.156817e-01	9.043632e-01	8.927361e-01	8.808429e-01	8.687189e-01	8.564199e-01	8.440123e-01	8.315019e-01	8.189894e-01	8.065513e-01	7.942631e-01	7.822697e-01	7.706741e-01	7.595409e-01	7.489000e-01	7.386593e-01	7.285822e-01	7.182363e-01	7.070996e-01	6.946810e-01	6.808906e-01	6.662893e-01	6.522513e-01	6.407384e-01	6.337956e-01	6.329320e-01	6.384174e-01	6.488128e-01	6.608296e-01	6.699546e-01	6.720937e-01	6.649250e-01	6.491711e-01	6.267967e-01	6.002976e-01	5.705127e-01	5.367273e-01	4.975873e-01	4.555498e-01	