# vtk DataFile Version 3.0
vtk output
ASCII
DATASET UNSTRUCTURED_GRID
POINTS 5233 float
9.997500e-01	-3.633566e-05	0.0	9.990000e-01	-1.456759e-04	0.0	9.977600e-01	-3.297329e-04	0.0	9.960200e-01	-6.018799e-04	0.0	9.937800e-01	-9.899284e-04	0.0	9.910500e-01	-1.539064e-03	0.0	9.878400e-01	-2.306892e-03	0.0	9.841300e-01	-3.354115e-03	0.0	9.799500e-01	-4.696394e-03	0.0	9.752800e-01	-6.307141e-03	0.0	9.701500e-01	-8.078617e-03	0.0	9.645400e-01	-9.874407e-03	0.0	9.584700e-01	-1.154092e-02	0.0	9.519400e-01	-1.297529e-02	0.0	9.449600e-01	-1.414787e-02	0.0	9.375400e-01	-1.510766e-02	0.0	9.296900e-01	-1.595661e-02	0.0	9.214000e-01	-1.681295e-02	0.0	9.127000e-01	-1.777028e-02	0.0	9.035800e-01	-1.888540e-02	0.0	8.940600e-01	-2.016630e-02	0.0	8.841500e-01	-2.158464e-02	0.0	8.738500e-01	-2.309041e-02	0.0	8.631800e-01	-2.462201e-02	0.0	8.521600e-01	-2.612105e-02	0.0	8.407700e-01	-2.754497e-02	0.0	8.290500e-01	-2.885744e-02	0.0	8.170100e-01	-3.004097e-02	0.0	8.046400e-01	-3.109247e-02	0.0	7.919700e-01	-3.201521e-02	0.0	7.790100e-01	-3.282128e-02	0.0	7.657800e-01	-3.352587e-02	0.0	7.522800e-01	-3.414619e-02	0.0	7.385200e-01	-3.469768e-02	0.0	7.245300e-01	-3.519278e-02	0.0	7.103200e-01	-3.564181e-02	0.0	6.958900e-01	-3.605232e-02	0.0	6.812700e-01	-3.642838e-02	0.0	6.664700e-01	-3.677278e-02	0.0	6.515000e-01	-3.708716e-02	0.0	6.363800e-01	-3.737266e-02	0.0	6.211300e-01	-3.763079e-02	0.0	6.057600e-01	-3.786405e-02	0.0	5.902800e-01	-3.807599e-02	0.0	5.747100e-01	-3.827113e-02	0.0	5.590600e-01	-3.845508e-02	0.0	5.433600e-01	-3.863390e-02	0.0	5.276100e-01	-3.881425e-02	0.0	5.118400e-01	-3.900225e-02	0.0	4.960500e-01	-3.920380e-02	0.0	4.802700e-01	-3.942340e-02	0.0	4.645100e-01	-3.966448e-02	0.0	4.487800e-01	-3.992894e-02	0.0	4.331100e-01	-4.021666e-02	0.0	4.175000e-01	-4.052635e-02	0.0	4.019700e-01	-4.085471e-02	0.0	3.865400e-01	-4.119693e-02	0.0	3.712300e-01	-4.154685e-02	0.0	3.560400e-01	-4.189773e-02	0.0	3.409900e-01	-4.224153e-02	0.0	3.261100e-01	-4.256946e-02	0.0	3.114000e-01	-4.287308e-02	0.0	2.968700e-01	-4.314364e-02	0.0	2.825500e-01	-4.337215e-02	0.0	2.684500e-01	-4.355031e-02	0.0	2.545700e-01	-4.367031e-02	0.0	2.409400e-01	-4.372451e-02	0.0	2.275700e-01	-4.370613e-02	0.0	2.144700e-01	-4.360894e-02	0.0	2.016600e-01	-4.342747e-02	0.0	1.891400e-01	-4.315658e-02	0.0	1.769300e-01	-4.279211e-02	0.0	1.650400e-01	-4.233033e-02	0.0	1.534900e-01	-4.176867e-02	0.0	1.422900e-01	-4.110491e-02	0.0	1.314400e-01	-4.033675e-02	0.0	1.209500e-01	-3.946297e-02	0.0	1.108500e-01	-3.848509e-02	0.0	1.011300e-01	-3.740187e-02	0.0	9.181000e-02	-3.621574e-02	0.0	8.290000e-02	-3.492923e-02	0.0	7.440000e-02	-3.354418e-02	0.0	6.633000e-02	-3.206663e-02	0.0	5.869000e-02	-3.050033e-02	0.0	5.149000e-02	-2.885174e-02	0.0	4.474000e-02	-2.712862e-02	0.0	3.844000e-02	-2.533704e-02	0.0	3.260000e-02	-2.348643e-02	0.0	2.723000e-02	-2.158743e-02	0.0	2.232000e-02	-1.964357e-02	0.0	1.790000e-02	-1.767440e-02	0.0	1.395000e-02	-1.567813e-02	0.0	1.049000e-02	-1.367024e-02	0.0	7.520000e-03	-1.165553e-02	0.0	5.040000e-03	-9.634966e-03	0.0	3.050000e-03	-7.602914e-03	0.0	1.560000e-03	-5.557221e-03	0.0	5.600000e-04	-3.450429e-03	0.0	6.000000e-05	-1.210295e-03	0.0	0.000000e+00	0.000000e+00	0.0	6.000000e-05	1.166317e-03	0.0	5.600000e-04	3.218930e-03	0.0	1.560000e-03	5.048535e-03	0.0	3.050000e-03	6.745106e-03	0.0	5.040000e-03	8.364626e-03	0.0	7.520000e-03	9.921603e-03	0.0	1.049000e-02	1.143171e-02	0.0	1.395000e-02	1.290421e-02	0.0	1.790000e-02	1.434468e-02	0.0	2.232000e-02	1.575044e-02	0.0	2.723000e-02	1.713061e-02	0.0	3.260000e-02	1.847858e-02	0.0	3.844000e-02	1.979860e-02	0.0	4.474000e-02	2.108932e-02	0.0	5.149000e-02	2.234968e-02	0.0	5.869000e-02	2.358050e-02	0.0	6.633000e-02	2.478078e-02	0.0	7.440000e-02	2.594981e-02	0.0	8.290000e-02	2.708843e-02	0.0	9.181000e-02	2.819493e-02	0.0	1.011300e-01	2.927043e-02	0.0	1.108500e-01	3.031484e-02	0.0	1.209500e-01	3.132728e-02	0.0	1.314400e-01	3.230998e-02	0.0	1.422900e-01	3.326137e-02	0.0	1.534900e-01	3.418199e-02	0.0	1.650400e-01	3.507312e-02	0.0	1.769300e-01	3.593511e-02	0.0	1.891400e-01	3.676759e-02	0.0	2.016600e-01	3.757087e-02	0.0	2.144700e-01	3.834446e-02	0.0	2.275700e-01	3.908894e-02	0.0	2.409400e-01	3.980340e-02	0.0	2.545700e-01	4.048722e-02	0.0	2.684500e-01	4.113940e-02	0.0	2.825500e-01	4.175769e-02	0.0	2.968700e-01	4.234078e-02	0.0	3.114000e-01	4.288637e-02	0.0	3.261100e-01	4.339105e-02	0.0	3.409900e-01	4.385172e-02	0.0	3.560400e-01	4.426508e-02	0.0	3.712300e-01	4.462660e-02	0.0	3.865400e-01	4.493180e-02	0.0	4.019700e-01	4.517636e-02	0.0	4.175000e-01	4.535531e-02	0.0	4.331100e-01	4.546370e-02	0.0	4.487800e-01	4.549667e-02	0.0	4.645100e-01	4.544939e-02	0.0	4.802700e-01	4.531720e-02	0.0	4.960500e-01	4.509559e-02	0.0	5.118400e-01	4.478022e-02	0.0	5.276100e-01	4.436746e-02	0.0	5.433600e-01	4.385338e-02	0.0	5.590600e-01	4.323542e-02	0.0	5.747100e-01	4.251052e-02	0.0	5.902800e-01	4.167776e-02	0.0	6.057600e-01	4.073642e-02	0.0	6.211300e-01	3.968775e-02	0.0	6.363800e-01	3.853410e-02	0.0	6.515000e-01	3.727976e-02	0.0	6.664700e-01	3.593216e-02	0.0	6.812700e-01	3.450139e-02	0.0	6.958900e-01	3.299907e-02	0.0	7.103200e-01	3.143884e-02	0.0	7.245300e-01	2.983811e-02	0.0	7.385200e-01	2.821162e-02	0.0	7.522800e-01	2.657468e-02	0.0	7.657800e-01	2.494339e-02	0.0	7.790100e-01	2.332875e-02	0.0	7.919700e-01	2.173698e-02	0.0	8.046400e-01	2.017287e-02	0.0	8.170100e-01	1.863623e-02	0.0	8.290500e-01	1.712629e-02	0.0	8.407700e-01	1.563511e-02	0.0	8.521600e-01	1.415586e-02	0.0	8.631800e-01	1.268507e-02	0.0	8.738500e-01	1.121133e-02	0.0	8.841500e-01	9.729186e-03	0.0	8.940600e-01	8.236205e-03	0.0	9.035800e-01	6.733986e-03	0.0	9.127000e-01	5.239051e-03	0.0	9.214000e-01	3.790456e-03	0.0	9.296900e-01	2.447501e-03	0.0	9.375400e-01	1.297294e-03	0.0	9.449600e-01	4.262215e-04	0.0	9.519400e-01	-9.702892e-05	0.0	9.584700e-01	-2.544209e-04	0.0	9.645400e-01	-9.673343e-05	0.0	9.701500e-01	2.629608e-04	0.0	9.752800e-01	6.785566e-04	0.0	9.799500e-01	1.018880e-03	0.0	9.841300e-01	1.197955e-03	0.0	9.878400e-01	1.196143e-03	0.0	9.910500e-01	1.046832e-03	0.0	9.937800e-01	8.109072e-04	0.0	9.960200e-01	5.521569e-04	0.0	9.977600e-01	3.205030e-04	0.0	9.990000e-01	1.448332e-04	0.0	9.997500e-01	3.632230e-05	0.0	1.000000e+00	0.000000e+00	0.0	1.984229e+01	2.506660e+00	0.0	1.937166e+01	4.973800e+00	0.0	1.859553e+01	7.362490e+00	0.0	1.752613e+01	9.635070e+00	0.0	1.618034e+01	1.175571e+01	0.0	1.457937e+01	1.369094e+01	0.0	1.274848e+01	1.541027e+01	0.0	1.071654e+01	1.688656e+01	0.0	8.515590e+00	1.809654e+01	0.0	6.180340e+00	1.902113e+01	0.0	3.747630e+00	1.964575e+01	0.0	1.255810e+00	1.996053e+01	0.0	-1.255810e+00	1.996053e+01	0.0	-3.747630e+00	1.964574e+01	0.0	-6.180340e+00	1.902113e+01	0.0	-8.515590e+00	1.809654e+01	0.0	-1.071654e+01	1.688656e+01	0.0	-1.274848e+01	1.541026e+01	0.0	-1.457937e+01	1.369094e+01	0.0	-1.618034e+01	1.175570e+01	0.0	-1.752613e+01	9.635070e+00	0.0	-1.859553e+01	7.362490e+00	0.0	-1.937166e+01	4.973800e+00	0.0	-1.984229e+01	2.506660e+00	0.0	-2.000000e+01	0.000000e+00	0.0	-1.984229e+01	-2.506670e+00	0.0	-1.937166e+01	-4.973800e+00	0.0	-1.859553e+01	-7.362490e+00	0.0	-1.752613e+01	-9.635080e+00	0.0	-1.618034e+01	-1.175571e+01	0.0	-1.457937e+01	-1.369094e+01	0.0	-1.274848e+01	-1.541027e+01	0.0	-1.071653e+01	-1.688656e+01	0.0	-8.515580e+00	-1.809654e+01	0.0	-6.180340e+00	-1.902113e+01	0.0	-3.747620e+00	-1.964575e+01	0.0	-1.255810e+00	-1.996053e+01	0.0	1.255810e+00	-1.996053e+01	0.0	3.747630e+00	-1.964574e+01	0.0	6.180340e+00	-1.902113e+01	0.0	8.515590e+00	-1.809654e+01	0.0	1.071654e+01	-1.688656e+01	0.0	1.274848e+01	-1.541026e+01	0.0	1.457937e+01	-1.369094e+01	0.0	1.618034e+01	-1.175570e+01	0.0	1.752614e+01	-9.635070e+00	0.0	1.859553e+01	-7.362490e+00	0.0	1.937166e+01	-4.973790e+00	0.0	1.984229e+01	-2.506660e+00	0.0	2.000000e+01	0.000000e+00	0.0	6.108538e-02	-3.816702e-02	0.0	6.596176e-01	-5.068550e-02	0.0	4.254815e-01	5.959341e-02	0.0	6.898002e-01	4.694779e-02	0.0	3.791917e-01	-5.564710e-02	0.0	9.994689e-01	-7.249710e-04	0.0	9.985588e-01	-1.332391e-03	0.0	7.734190e-01	-4.510315e-02	0.0	6.892988e-01	-4.964841e-02	0.0	-8.300954e-04	4.945284e-03	0.0	7.463107e-01	-4.691444e-02	0.0	5.833275e-01	5.609712e-02	0.0	9.928465e-01	-3.842471e-03	0.0	9.899843e-01	-4.960313e-03	0.0	5.989130e-01	5.512333e-02	0.0	7.182384e-01	-4.840299e-02	0.0	-1.259937e-03	5.822874e-04	0.0	9.866439e-01	-6.297374e-03	0.0	9.828299e-01	-7.861917e-03	0.0	-9.288944e-04	-5.359309e-03	0.0	6.445390e-01	-5.113550e-02	0.0	8.242643e-01	-4.018801e-02	0.0	7.994361e-01	-4.289427e-02	0.0	3.484137e-01	5.782915e-02	0.0	8.477564e-01	-3.701514e-02	0.0	2.473352e-01	5.270918e-02	0.0	8.698463e-01	-3.351086e-02	0.0	1.069244e-02	1.538989e-02	0.0	8.904309e-01	-2.996684e-02	0.0	7.735921e-02	-4.190881e-02	0.0	9.094523e-01	-2.669528e-02	0.0	-1.479200e-03	-2.677359e-03	0.0	9.425478e-01	-2.092444e-02	0.0	9.268504e-01	-2.378512e-02	0.0	1.834904e-02	-2.266601e-02	0.0	4.256819e-01	-5.493569e-02	0.0	8.589859e-01	-3.528664e-02	0.0	9.564611e-01	-1.759991e-02	0.0	9.785306e-01	-9.666224e-03	0.0	9.684783e-01	-1.366457e-02	0.0	1.586194e-01	-5.258991e-02	0.0	9.001426e-01	-2.828322e-02	0.0	7.599956e-01	-4.605390e-02	0.0	9.971456e-01	-2.101108e-03	0.0	5.985335e-01	-5.224349e-02	0.0	4.413400e-01	-5.469423e-02	0.0	5.359435e-01	-5.330593e-02	0.0	4.728214e-01	-5.422248e-02	0.0	5.043906e-01	-5.376484e-02	0.0	4.885943e-01	-5.399139e-02	0.0	1.252953e-01	-4.942077e-02	0.0	2.822671e-02	-2.740079e-02	0.0	3.945958e-01	-5.541700e-02	0.0	4.657412e-02	-3.408166e-02	0.0	4.100938e-01	-5.517897e-02	0.0	3.189292e-01	-5.636993e-02	0.0	3.487592e-01	-5.606640e-02	0.0	3.387949e-02	-2.967840e-02	0.0	2.897804e-01	-5.650680e-02	0.0	9.349172e-01	-2.238060e-02	0.0	1.471575e-01	-5.164260e-02	0.0	1.950012e-01	-5.476544e-02	0.0	8.613295e-02	-4.363052e-02	0.0	1.049272e-01	-4.675614e-02	0.0	5.673664e-01	-5.282154e-02	0.0	1.704241e-01	-5.342677e-02	0.0	6.139887e-01	-5.190878e-02	0.0	8.803346e-01	-3.172355e-02	0.0	2.306029e-02	-2.505891e-02	0.0	9.952398e-01	-2.914586e-03	0.0	7.154358e-03	-1.536916e-02	0.0	1.868966e-02	1.918690e-02	0.0	9.183569e-01	-2.520462e-02	0.0	9.49
[...]
POINT_DATA 5233

SCALARS Conservative_1 float 1
LOOKUP_TABLE default
1.194904e+00	1.179135e+00	1.172139e+00	1.169503e+00	1.168173e+00	1.165298e+00	1.156985e+00	1.140401e+00	1.113023e+00	1.074343e+00	1.024709e+00	9.629169e-01	9.070507e-01	8.849842e-01	8.958250e-01	9.235317e-01	9.535349e-01	9.755148e-01	9.862819e-01	9.866618e-01	9.783625e-01	9.635461e-01	9.446024e-01	9.233614e-01	8.997132e-01	8.737261e-01	8.504454e-01	8.364487e-01	8.334234e-01	8.386343e-01	8.482351e-01	8.592040e-01	8.698522e-01	8.792735e-01	8.873257e-01	8.940934e-01	8.998114e-01	9.047617e-01	9.091601e-01	9.132657e-01	9.172142e-01	9.211422e-01	9.250673e-01	9.289972e-01	9.328499e-01	9.365501e-01	9.399748e-01	9.430297e-01	9.455983e-01	9.475981e-01	9.489359e-01	9.495616e-01	9.494245e-01	9.485077e-01	9.467960e-01	9.442986e-01	9.410272e-01	9.370130e-01	9.322987e-01	9.269315e-01	9.209852e-01	9.144737e-01	9.073920e-01	8.997067e-01	8.916432e-01	8.835716e-01	8.756514e-01	8.671253e-01	8.566206e-01	8.434610e-01	8.298117e-01	8.193747e-01	8.142728e-01	8.140312e-01	8.171793e-01	8.224111e-01	8.292454e-01	8.375700e-01	8.472333e-01	8.581419e-01	8.703133e-01	8.837132e-01	8.984046e-01	9.143860e-01	9.317188e-01	9.505138e-01	9.708044e-01	9.927223e-01	1.016493e+00	1.042201e+00	1.070219e+00	1.101058e+00	1.135086e+00	1.173179e+00	1.215754e+00	1.262080e+00	1.307492e+00	1.347998e+00	1.347985e+00	1.321536e+00	1.296559e+00	1.222664e+00	1.088493e+00	9.924030e-01	9.282260e-01	8.884985e-01	8.645914e-01	8.494715e-01	8.390876e-01	8.316492e-01	8.261900e-01	8.220442e-01	8.189636e-01	8.166109e-01	8.149088e-01	8.139139e-01	8.134978e-01	8.135267e-01	8.140045e-01	8.150706e-01	8.170237e-01	8.200271e-01	8.239112e-01	8.282185e-01	8.324925e-01	8.364526e-01	8.399331e-01	8.428086e-01	8.450624e-01	8.468125e-01	8.481888e-01	8.492442e-01	8.499462e-01	8.502352e-01	8.500807e-01	8.494673e-01	8.484075e-01	8.469095e-01	8.449766e-01	8.426154e-01	8.398134e-01	8.365668e-01	8.329400e-01	8.290604e-01	8.250270e-01	8.208705e-01	8.165698e-01	8.123800e-01	8.090915e-01	8.084250e-01	8.125162e-01	8.225709e-01	8.367844e-01	8.506645e-01	8.609143e-01	8.682134e-01	8.749569e-01	8.829804e-01	8.927826e-01	9.037410e-01	9.150975e-01	9.265458e-01	9.380236e-01	9.494204e-01	9.604783e-01	9.710028e-01	9.808025e-01	9.897893e-01	9.978688e-01	1.005118e+00	1.011608e+00	1.017512e+00	1.023071e+00	1.028545e+00	1.034239e+00	1.040480e+00	1.047643e+00	1.056212e+00	1.066689e+00	1.079578e+00	1.094977e+00	1.112358e+00	1.130258e+00	1.146676e+00	1.159262e+00	1.165710e+00	1.164004e+00	1.152837e+00	1.132067e+00	1.104046e+00	1.074979e+00	1.052647e+00	1.044494e+00	1.053629e+00	1.075711e+00	1.102815e+00	1.129796e+00	1.156195e+00	1.184488e+00	1.174596e+00	9.999828e-01	9.999865e-01	9.999803e-01	9.999682e-01	9.999565e-01	9.999429e-01	9.999208e-01	9.998875e-01	9.998484e-01	9.998135e-01	9.997888e-01	9.997932e-01	9.998274e-01	9.998983e-01	9.999598e-01	1.000009e+00	1.000035e+00	1.000050e+00	1.000058e+00	1.000061e+00	1.000061e+00	1.000061e+00	1.000060e+00	1.000061e+00	1.000061e+00	1.000063e+00	1.000067e+00	1.000071e+00	1.000077e+00	1.000086e+00	1.000096e+00	1.000109e+00	1.000120e+00	1.000134e+00	1.000139e+00	1.000135e+00	1.000120e+00	1.000098e+00	1.000081e+00	1.000073e+00	1.000072e+00	1.000070e+00	1.000066e+00	1.000059e+00	1.000049e+00	1.000036e+00	1.000029e+00	1.000023e+00	1.000002e+00	9.999789e-01	9.211245e-01	9.129061e-01	8.269017e-01	9.357919e-01	9.390764e-01	1.179012e+00	1.171974e+00	8.597486e-01	9.043502e-01	1.217963e+00	8.787030e-01	8.706821e-01	1.156865e+00	1.149729e+00	8.770633e-01	8.934957e-01	1.316485e+00	1.137641e+00	1.118454e+00	1.326909e+00	9.167974e-01	8.506778e-01	8.432917e-01	8.443554e-01	8.943613e-01	8.530431e-01	9.376334e-01	9.038353e-01	9.692889e-01	8.903811e-01	9.821808e-01	1.344724e+00	9.233012e-01	9.650647e-01	1.076629e+00	9.471817e-01	9.178597e-01	9.189358e-01	1.091092e+00	1.009914e+00	8.213335e-01	9.789926e-01	8.695811e-01	1.165262e+00	9.280912e-01	9.484234e-01	9.416365e-01	9.487370e-01	9.463254e-01	9.478538e-01	8.357411e-01	1.023112e+00	9.424959e-01	9.572246e-01	9.452027e-01	9.191056e-01	9.302465e-01	9.994196e-01	9.057410e-01	9.452650e-01	8.238810e-01	8.416485e-01	8.769224e-01	8.536756e-01	9.353125e-01	8.228240e-01	9.243550e-01	9.548805e-01	1.048762e+00	1.161320e+00	1.176694e+00	8.656344e-01	9.776756e-01	9.101763e-01	1.055680e+00	1.129616e+00	8.695893e-01	8.833161e-01	9.386363e-01	8.866680e-01	8.502593e-01	8.439905e-01	8.670993e-01	9.317724e-01	9.088198e-01	9.384771e-01	1.215958e+00	1.107012e+00	9.349766e-01	8.297796e-01	1.205248e+00	8.759678e-01	8.646922e-01	9.127200e-01	8.906285e-01	9.489389e-01	8.993292e-01	1.286280e+00	1.296526e+00	8.338985e-01	1.331561e+00	8.452927e-01	8.265673e-01	8.335212e-01	8.276797e-01	8.307777e-01	1.121198e+00	8.211017e-01	8.150528e-01	1.112745e+00	1.143668e+00	1.063309e+00	8.128356e-01	8.229021e-01	8.381618e-01	1.116637e+00	1.087375e+00	8.224511e-01	1.091925e+00	1.149495e+00	1.141766e+00	8.230010e-01	8.245002e-01	8.517958e-01	8.530527e-01	8.454581e-01	8.488798e-01	8.188149e-01	8.345552e-01	8.391142e-01	8.313515e-01	8.925756e-01	8.494875e-01	8.518757e-01	9.138101e-01	8.620484e-01	9.773188e-01	9.573891e-01	1.008834e+00	9.945215e-01	1.032666e+00	1.021034e+00	1.074449e+00	1.045892e+00	1.148557e+00	1.101755e+00	1.131019e+00	1.038931e+00	1.053900e+00	1.015114e+00	1.026796e+00	9.862974e-01	1.002025e+00	9.466968e-01	9.676459e-01	9.028546e-01	9.248213e-01	8.492199e-01	8.838952e-01	8.508298e-01	8.526346e-01	8.425565e-01	8.477479e-01	8.295281e-01	8.353036e-01	8.814903e-01	8.386753e-01	8.553409e-01	9.838822e-01	9.566952e-01	8.422115e-01	9.249361e-01	9.442317e-01	1.049329e+00	8.539811e-01	9.362213e-01	8.223152e-01	8.231762e-01	8.526355e-01	8.247816e-01	1.073741e+00	1.063677e+00	8.505389e-01	1.065606e+00	1.078737e+00	8.468238e-01	8.414624e-01	1.130557e+00	1.200217e+00	1.144280e+00	1.164862e+00	9.205876e-01	9.775066e-01	1.098834e+00	8.141704e-01	1.257300e+00	1.140347e+00	9.050991e-01	8.289725e-01	8.982325e-01	8.333110e-01	1.196920e+00	1.259706e+00	9.046063e-01	9.040715e-01	9.762426e-01	1.169998e+00	8.719974e-01	9.085823e-01	8.616485e-01	1.132753e+00	9.232292e-01	9.135510e-01	8.710344e-01	8.844079e-01	1.301023e+00	8.664901e-01	1.106774e+00	9.622605e-01	8.325023e-01	8.989195e-01	9.165399e-01	9.480453e-01	8.977683e-01	9.406939e-01	9.712884e-01	8.548234e-01	9.678959e-01	8.901809e-01	9.237574e-01	1.030885e+00	8.332174e-01	9.342239e-01	8.484456e-01	1.051625e+00	1.077832e+00	8.488605e-01	8.235056e-01	1.135402e+00	1.060156e+00	1.083736e+00	1.133550e+00	1.088971e+00	8.560401e-01	8.510201e-01	8.555790e-01	8.315641e-01	9.127091e-01	8.547162e-01	9.344667e-01	8.423587e-01	8.428474e-01	1.115794e+00	1.096583e+00	1.069846e+00	8.310635e-01	1.209389e+00	1.131353e+00	1.113028e+00	1.012197e+00	1.129821e+00	1.204255e+00	1.331148e+00	1.319420e+00	1.078270e+00	1.212051e+00	9.280780e-01	1.161900e+00	1.150322e+00	8.330424e-01	9.403425e-01	1.117834e+00	9.478267e-01	8.793602e-01	1.143216e+00	1.324585e+00	9.472137e-01	8.366041e-01	8.918444e-01	8.552470e-01	9.320926e-01	9.612264e-01	9.123136e-01	9.765792e-01	9.698783e-01	9.345195e-01	1.027363e+00	9.383553e-01	1.000398e+00	1.097031e+00	8.436530e-01	8.785002e-01	8.700838e-01	1.156048e+00	9.482117e-01	9.477408e-01	9.466506e-01	1.051987e+00	9.435391e-01	9.457186e-01	9.284243e-01	9.832774e-01	9.582540e-01	9.443066e-01	8.370800e-01	8.722165e-01	9.374293e-01	9.274090e-01	1.038461e+00	1.070543e+00	8.930486e-01	8.862785e-01	8.613357e-01	8.517800e-01	9.342618e-01	9.308841e-01	9.635716e-01	9.451837e-01	1.137245e+00	9.330850e-01	9.371996e-01	8.344652e-01	8.429020e-01	8.760716e-01	8.836051e-01	9.113362e-01	9.175598e-01	8.905111e-01	1.301893e+00	1.239742e+00	8.482805e-01	1.079681e+00	8.335792e-01	8.191330e-01	8.192977e-01	8.219690e-01	1.102195e+00	1.126813e+00	1.104575e+00	8.256201e-01	8.293741e-01	8.400769e-01	1.092483e+00	1.132578e+00	8.355474e-01	8.386581e-01	8.561588e-01	8.558933e-01	8.455890e-01	8.390399e-01	8.358605e-01	1.005961e+00	9.741867e-01	9.647529e-01	9.989476e-01	1.024819e+00	1.080680e+00	1.044043e+00	1.037208e+00	1.018809e+00	1.012582e+00	9.912977e-01	9.830430e-01	9.548549e-01	9.446200e-01	9.132674e-01	9.029973e-01	8.614895e-01	8.476545e-01	8.936631e-01	8.859182e-01	8.548136e-01	8.537928e-01	8.524760e-01	8.507439e-01	9.094054e-01	8.552906e-01	8.642356e-01	8.521624e-01	8.569995e-01	9.450260e-01	9.428881e-01	1.067723e+00	8.755531e-01	8.311383e-01	8.317953e-01	8.528023e-01	8.542093e-01	8.433615e-01	8.463166e-01	1.125796e+00	1.116063e+00	9.238424e-01	9.202450e-01	1.004464e+00	1.273857e+00	8.975090e-01	1.298265e+00	9.420500e-01	9.104234e-01	8.665138e-01	9.417137e-01	9.725603e-01	1.089555e+00	1.086671e+00	1.120179e+00	1.078856e+00	1.098058e+00	1.149085e+00	1.174346e+00	1.151599e+00	1.194962e+00	1.079843e+00	1.281343e+00	8.926636e-01	9.666547e-01	1.129574e+00	8.734097e-01	1.170193e+00	1.193377e+00	9.041198e-01	1.252802e+00	8.990748e-01	1.105972e+00	9.434827e-01	1.163171e+00	9.269767e-01	9.288802e-01	9.086514e-01	1.138770e+00	1.134042e+00	1.096260e+00	8.353528e-01	1.123078e+00	9.238072e-01	1.110182e+00	8.278147e-01	8.587339e-01	8.533489e-01	8.516991e-01	8.460037e-01	1.162947e+00	1.274698e+00	1.180585e+00	9.316307e-01	1.237038e+00	9.986246e-01	9.058714e-01	1.311954e+00	8.417266e-01	9.476433e-01	1.055122e+00	9.903285e-01	1.029093e+00	1.003525e+00	9.337578e-01	1.089239e+00	1.123387e+00	1.065495e+00	1.056890e+00	8.552056e-01	8.579052e-01	8.591525e-01	8.399693e-01	9.165306e-01	9.127362e-01	8.660922e-01	9.578081e-01	8.489159e-01	1.105196e+00	1.122301e+00	1.030938e+00	1.129948e+00	1.223648e+00	1.308317e+00	1.031586e+00	1.180633e+00	1.173873e+00	1.029544e+00	1.117786e+00	8.821369e-01	9.471639e-01	8.391817e-01	8.916695e-01	9.113495e-01	9.558750e-01	9.658315e-01	9.356844e-01	9.202275e-01	9.723144e-01	9.746603e-01	9.554021e-01	9.709724e-01	1.102183e+00	8.796108e-01	8.725412e-01	1.144956e+00	9.475291e-01	9.468113e-01	9.443804e-01	9.460717e-01	1.009828e+00	9.587539e-01	9.530340e-01	8.523056e-01	8.458879e-01	9.392224e-01	9.364464e-01	1.057594e+00	1.081887e+00	8.933051e-01	8.868026e-01	8.806335e-01	8.696350e-01	8.601227e-01	9.334211e-01	9.302450e-01	9.896485e-01	9.704739e-01	9.523986e-01	9.315152e-01	9.355984e-01	9.391085e-01	8.417155e-01	8.463616e-01	8.553070e-01	8.761818e-01	8.842516e-01	9.164436e-01	9.219279e-01	8.910726e-01	8.620224e-01	8.252249e-01	8.261938e-01	1.113771e+00	8.290663e-01	8.324664e-01	8.358590e-01	8.424220e-01	1.094820e+00	8.501516e-01	8.554232e-01	8.592047e-01	8.593453e-01	8.460476e-01	8.435460e-01	8.414407e-01	9.720226e-01	1.084789e+00	1.074797e+00	1.049065e+00	1.041954e+00	1.035431e+00	1.022868e+00	1.016683e+00	1.010274e+00	9.964399e-01	9.888296e-01	9.806647e-01	9.629158e-01	9.534111e-01	9.436702e-01	9.138654e-01	8.611961e-01	8.475339e-01	9.043671e-01	8.959397e-01	8.888877e-01	8.586786e-01	8.579373e-01	8.569678e-01	8.556983e-01	8.539930e-01	8.704137e-01	8.811208e-01	8.631305e-01	8.653368e-01	8.748934e-01	9.455866e-01	9.438454e-01	8.944448e-01	9.108470e-01	8.396538e-01	8.407400e-01	8.429002e-01	8.567370e-01	8.455913e-01	8.485706e-01	8.511716e-01	1.119429e+00	1.112986e+00	1.104540e+00	9.269466e-01	9.235778e-01	9.201090e-01	8.975023e-01	9.040614e-01	1.273275e+00	9.014690e-01	1.116912e+00	1.094702e+00	9.407921e-01	1.255127e+00	1.156700e+00	9.720101e-01	9.688530e-01	1.035075e+00	1.099200e+00	8.344153e-01	1.251073e+00	9.777862e-01	1.180787e+00	1.112676e+00	1.107247e+00	1.166430e+00	9.239534e-01	1.126075e+00	1.179271e+00	1.181690e+00	8.731707e-01	8.532038e-01	1.080453e+00	9.431266e-01	9.144954e-01	9.469244e-01	9.159095e-01	1.092564e+00	8.735588e-01	1.113506e+00	1.111931e+00	1.001605e+00	8.555990e-01	8.625031e-01	1.116844e+00	8.614286e-01	9.415378e-01	1.135074e+00	1.093918e+00	1.141474e+00	1.048724e+00	1.103956e+00	9.088939e-01	1.206943e+00	9.049393e-01	8.994778e-01	1.129181e+00	1.126640e+00	1.155003e+00	1.027043e+00	8.379465e-01	8.596066e-01	1.213062e+00	1.008463e+00	9.342121e-01	1.061816e+00	8.580441e-01	8.608920e-01	8.618499e-01	9.166115e-01	9.132916e-01	1.099297e+00	1.043803e+00	1.084237e+00	1.231727e+00	1.284722e+00	1.057199e+00	1.025485e+00	1.104277e+00	8.855109e-01	9.121551e-01	9.279835e-01	9.528664e-01	9.622544e-01	9.434913e-01	9.284851e-01	9.690734e-01	9.730186e-01	9.738650e-01	9.817447e-01	1.001691e+00	8.818014e-01	8.782740e-01	1.134787e+00	9.471230e-01	9.467594e-01	9.449419e-01	9.462021e-01	9.668917e-01	9.700680e-01	8.624163e-01	8.558514e-01	9.384688e-01	1.069906e+00	1.088666e+00	8.947336e-01	8.881130e-01	8.894775e-01	8.788722e-01	8.700892e-01	9.356800e-01	9.329785e-01	1.015184e+00	9.957541e-01	9.768828e-01	9.594202e-01	9.303296e-01	9.342962e-01	9.377295e-01	9.407000e-01	8.544183e-01	8.596354e-01	8.677732e-01	8.770376e-01	8.852994e-01	9.259838e-01	9.211202e-01	8.923675e-01	8.325277e-01	1.104726e+00	1.109549e+00	8.340012e-01	8.365980e-01	8.395859e-01	8.425792e-01	8.455389e-01	8.680761e-01	8.762570e-01	8.628457e-01	8.629207e-01	8.531692e-01	8.510252e-01	8.496224e-01	8.487684e-01	1.086874e+00	1.078379e+00	1.070016e+00	1.054098e+00	1.046971e+00	1.040363e+00	1.033213e+00	1.021623e+00	1.014582e+00	1.008241e+00	9.943134e-01	9.869710e-01	9.787702e-01	9.706967e-01	9.615447e-01	9.529313e-01	9.430687e-01	8.488834e-01	8.602999e-01	9.154171e-01	9.058159e-01	8.992843e-01	8.916082e-01	8.627044e-01	8.622419e-01	8.614923e-01	8.605180e-01	8.592761e-01	8.576172e-01	8.857265e-01	8.976159e-01	8.758121e-01	8.823313e-01	8.951980e-01	9.458632e-01	9.446626e-01	9.429195e-01	9.126437e-01	9.304987e-01	9.517022e-01	8.487014e-01	8.498686e-01	8.527130e-01	8.565789e-01	8.484204e-01	8.512386e-01	8.539572e-01	8.561571e-01	1.094940e+00	1.107971e+00	1.102289e+00	9.297760e-01	9.269039e-01	9.234323e-01	9.204155e-01	8.984360e-01	9.044438e-01	9.102352e-01	1.124204e+00	1.113729e+00	1.044049e+00	1.170041e+00	1.147146e+00	9.038398e-01	9.109522e-01	1.169513e+00	1.096586e+00	1.213020e+00	1.058681e+00	8.661959e-01	8.602531e-01	1.022702e+00	1.122037e+00	1.225957e+00	1.288009e+00	1.289549e+00	1.274398e+00	1.230260e+00	1.135649e+00	8.630994e-01	1.061892e+00	1.115955e+00	9.779004e-01	8.850921e-01	9.440476e-01	1.105097e+00	1.087728e+00	1.102195e+00	8.663361e-01	8.479998e-01	9.294816e-01	9.960604e-01	8.416134e-01	9.411965e-01	8.608672e-01	1.099750e+00	9.237018e-01	1.156188e+00	1.095404e+00	1.284199e+00	1.176886e+00	1.168922e+00	9.754135e-01	1.039082e+00	1.248355e+00	9.944088e-01	1.191761e+00	1.105108e+00	1.155450e+00	1.170709e+00	1.171514e+00	1.102055e+00	9.250698e-01	9.206796e-01	1.096336e+00	8.862093e-01	1.104623e+00	1.105388e+00	9.119394e-01	1.192239e+00	8.638725e-01	8.654895e-01	8.657073e-01	9.189982e-01	1.053481e+00	1.087122e+00	1.259612e+00	1.080763e+00	9.300010e-01	9.406736e-01	9.517144e-01	9.604304e-01	9.372030e-01	9.522278e-01	9.677164e-01	9.723829e-01	9.751637e-01	9.763674e-01	1.006999e+00	1.025337e+00	8.889773e-01	1.124431e+00	9.466917e-01	9.466198e-01	9.453089e-01	9.461161e-01	9.821425e-01	9.916890e-01	8.727572e-01	8.656976e-01	1.078411e+00	1.093007e+00	8.963997e-01	8.989542e-01	8.877074e-01	8.818766e-01	9.366101e-01	1.020336e+00	1.001677e+00	9.836329e-01	9.677545e-01	9.293894e-01	9.331372e-01	9.365493e-01	9.395141e-01	9.419314e-01	8.658398e-01	8.718510e-01	8.777388e-01	8.860796e-01	8.929483e-01	1.099066e+00	1.101870e+00	1.104096e+00	8.395597e-01	8.423448e-01	8.436272e-01	8.471192e-01	8.488867e-01	8.812999e-01	8.907606e-01	8.668122e-01	8.665243e-01	8.575867e-01	8.577528e-01	8.577613e-01	1.079903e+00	1.073157e+00	1.065386e+00	1.058372e+00	1.051200e+00	1.044678e+00	1.037737e+00	1.028289e+00	1.019714e+00	1.009233e+00	9.813020e-01	9.651370e-01	9.476935e-01	9.126021e-01	8.989626e-01	8.671374e-01	8.663136e-01	8.664537e-01	8.650582e-01	8.649380e-01	8.636535e-01	8.620912e-01	9.017932e-01	9.143362e-01	8.906609e-01	8.985716e-01	9.143352e-01	9.459749e-01	9.443947e-01	9.298725e-01	9.488626e-01	9.699198e-01	8.584114e-01	8.601106e-01	8.633734e-01	8.687599e-01	8.746084e-01	8.522060e-01	8.539380e-01	8.569971e-01	8.596498e-01	1.098693e+00	1.092506e+00	9.312104e-01	9.253473e-01	8.997288e-01	9.050284e-01	9.107944e-01	9.155528e-01	1.163090e+00	1.143300e+00	1.158533e+00	1.245433e+00	1.174404e+00	1.070862e+00	1.099452e+00	1.174450e+00	1.098193e+00	1.137566e+00	1.095776e+00	1.237643e+00	1.060171e+00	1.138872e+00	8.654233e-01	1.171110e+00	1.060145e+00	1.145003e+00	1.118910e+00	1.056815e+00	9.430746e-01	1.096847e+00	9.265748e-01	9.914143e-01	9.833774e-01	9.298890e-01	9.205582e-01	8.773879e-01	1.210564e+00	9.450416e-01	9.474219e-01	9.341639e-01	8.652831e-01	1.095880e+00	1.082400e+00	1.202364e+00	1.033342e+00	1.042100e+00	1.162724e+00	1.095705e+00	1.285249e+00	1.225708e+00	1.106202e+00	9.048537e-01	8.526415e-01	8.480406e-01	1.103618e+00	1.167234e+00	1.118824e+00	1.262356e+00	1.171685e+00	1.042708e+00	1.195302e+00	1.177517e+00	8.831587e-01	1.079642e+00	1.098091e+00	1.095809e+00	8.646912e-01	8.681220e-01	8.699247e-01	9.115161e-01	1.088359e+00	1.117126e+00	1.099893e+00	9.470989e-01	9.633686e-01	9.607841e-01	9.749142e-01	9.803838e-01	1.027029e+00	1.115211e+00	9.462606e-01	1.000555e+00	1.012606e+00	8.804954e-01	1.083895e+00	8.989086e-01	8.954644e-01	9.040401e-01	8.920451e-01	9.396363e-01	1.025193e+00	1.006648e+00	9.896300e-01	9.778917e-01	9.338345e-01	9.395941e-01	9.431480e-01	8.840343e-01	8.966679e-01	1.096760e+00	1.097732e+00	8.503485e-01	8.545595e-01	9.053683e-01	8.708852e-01	8.668037e-01	1.015636e+00	1.070679e+00	1.057557e+00	1.044891e+00	1.034100e+00	1.025058e+00	1.004079e+00	9.907402e-01	9.761199e-01	9.603202e-01	9.432868e-01	9.264607e-01	9.123169e-01	8.996006e-01	8.709799e-01	8.702740e-01	8.697445e-01	8.676767e-01	8.672202e-01	9.180764e-01	9.313274e-01	8.985099e-01	9.105781e-01	9.312323e-01	9.462088e-01	9.451488e-01	9.465497e-01	9.652686e-01	9.861639e-01	1.008388e+00	8.686593e-01	8.709040e-01	8.745959e-01	8.806244e-01	8.890718e-01	8.937726e-01	8.587077e-01	8.628615e-01	1.094909e+00	1.090157e+00	9.350704e-01	9.243041e-01	9.182274e-01	9.086202e-01	9.182334e-01	1.108249e+00	1.161988e+00	1.157749e+00	1.125535e+00	1.004699e+00	1.101575e+00	1.167376e+00	1.131625e+00	1.164371e+00	1.113946e+00	1.144388e+00	1.121935e+00	1.088329e+00	1.182346e+00	1.216950e+00	1.093311e+00	9.076583e-01	8.688581e-01	1.114972e+00	9.826230e-01	1.078606e+00	9.140219e-01	1.064817e+00	1.148196e+00	9.442562e-01	1.006908e+00	9.290129e-01	9.419303e-01	1.065745e+00	1.077006e+00	1.061531e+00	1.046477e+00	1.163945e+00	1.095759e+00	1.098017e+00	1.092579e+00	8.735376e-01	8.985184e-01	9.181322e-01	9.686231e-01	1.140080e+00	1.147783e+00	1.261462e+00	1.053798e+00	1.092972e+00	1.168941e+00	1.087697e+00	1.159357e+00	1.130932e+00	9.443604e-01	1.205377e+00	9.587877e-01	9.432429e-01	1.094365e+00	1.221860e+00	1.041598e+00	1.097503e+00	9.124877e-01	1.238772e+00	1.170540e+00	9.845124e-01	1.192757e+00	1.179267e+00	8.666833e-01	1.096544e+00	1.090849e+00	8.816891e-01	8.713846e-01	9.125842e-01	1.112101e+00	1.135437e+00	9.609479e-01	9.734933e-01	9.885989e-01	9.963283e-01	1.107158e+00	9.456751e-01	1.017715e+00	1.029313e+00	9.417845e-01	9.157526e-01	9.313392e-01	9.049755e-01	9.282894e-01	9.135313e-01	9.007903e-01	1.028578e+00	9.317577e-01	9.375800e-01	8.917564e-01	8.899266e-01	9.237520e-01	1.093647e+00	8.580114e-01	8.563086e-01	8.758769e-01	1.073158e+00	1.062124e+00	1.021208e+00	1.050474e+00	1.039698e+00	1.030251e+00	1.011036e+00	9.991043e-01	9.858375e-01	9.715622e-01	9.561078e-01	9.399756e-01	9.252961e-01	8.750190e-01	8.758523e-01	8.760665e-01	8.756787e-01	8.738798e-01	8.741446e-01	9.333051e-01	9.479705e-01	9.068599e-01	9.471633e-01	9.462346e-01	9.457465e-01	9.625725e-01	9.798646e-01	9.998318e-01	1.020164e+00	1.041806e+00	8.796494e-01	8.834961e-01	8.870930e-01	8.928065e-01	9.017083e-01	8.587608e-01	8.622280e-01	8.657971e-01	1.088181e+00	1.081918e+00	9.383503e-01	9.339132e-01	8.962947e-01	9.069359e-01	9.168999e-01	9.248913e-01	1.142884e+00	1.150106e+00	1.147488e+00	1.110631e+00	1.145956e+00	1.128986e+00	1.106881e+00	1.021341e+00	1.166474e+00	1.114833e+00	1.111616e+00	1.051568e+00	1.157965e+00	1.089125e+00	8.792310e-01	1.133364e+00	1.137509e+00	1.108294e+00	1.162640e+00	1.068090e+00	9.108943e-01	1.007558e+00	9.915342e-01	9.140095e-01	1.128923e+00	1.122314e+00	1.118616e+00	1.166716e+00	1.151976e+00	8.982071e-01	9.