# vtk DataFile Version 3.0
vtk output
ASCII
DATASET UNSTRUCTURED_GRID
POINTS 200 float
9.997500e-01	-3.633566e-05	0.0	9.990000e-01	-1.456759e-04	0.0	9.977600e-01	-3.297329e-04	0.0	9.960200e-01	-6.018799e-04	0.0	9.937800e-01	-9.899284e-04	0.0	9.910500e-01	-1.539064e-03	0.0	9.878400e-01	-2.306892e-03	0.0	9.841300e-01	-3.354115e-03	0.0	9.799500e-01	-4.696394e-03	0.0	9.752800e-01	-6.307141e-03	0.0	9.701500e-01	-8.078617e-03	0.0	9.645400e-01	-9.874407e-03	0.0	9.584700e-01	-1.154092e-02	0.0	9.519400e-01	-1.297529e-02	0.0	9.449600e-01	-1.414787e-02	0.0	9.375400e-01	-1.510766e-02	0.0	9.296900e-01	-1.595661e-02	0.0	9.214000e-01	-1.681295e-02	0.0	9.127000e-01	-1.777028e-02	0.0	9.035800e-01	-1.888540e-02	0.0	8.940600e-01	-2.016630e-02	0.0	8.841500e-01	-2.158464e-02	0.0	8.738500e-01	-2.309041e-02	0.0	8.631800e-01	-2.462201e-02	0.0	8.521600e-01	-2.612105e-02	0.0	8.407700e-01	-2.754497e-02	0.0	8.290500e-01	-2.885744e-02	0.0	8.170100e-01	-3.004097e-02	0.0	8.046400e-01	-3.109247e-02	0.0	7.919700e-01	-3.201521e-02	0.0	7.790100e-01	-3.282128e-02	0.0	7.657800e-01	-3.352587e-02	0.0	7.522800e-01	-3.414619e-02	0.0	7.385200e-01	-3.469768e-02	0.0	7.245300e-01	-3.519278e-02	0.0	7.103200e-01	-3.564181e-02	0.0	6.958900e-01	-3.605232e-02	0.0	6.812700e-01	-3.642838e-02	0.0	6.664700e-01	-3.677278e-02	0.0	6.515000e-01	-3.708716e-02	0.0	6.363800e-01	-3.737266e-02	0.0	6.211300e-01	-3.763079e-02	0.0	6.057600e-01	-3.786405e-02	0.0	5.902800e-01	-3.807599e-02	0.0	5.747100e-01	-3.827113e-02	0.0	5.590600e-01	-3.845508e-02	0.0	5.433600e-01	-3.863390e-02	0.0	5.276100e-01	-3.881425e-02	0.0	5.118400e-01	-3.900225e-02	0.0	4.960500e-01	-3.920380e-02	0.0	4.802700e-01	-3.942340e-02	0.0	4.645100e-01	-3.966448e-02	0.0	4.487800e-01	-3.992894e-02	0.0	4.331100e-01	-4.021666e-02	0.0	4.175000e-01	-4.052635e-02	0.0	4.019700e-01	-4.085471e-02	0.0	3.865400e-01	-4.119693e-02	0.0	3.712300e-01	-4.154685e-02	0.0	3.560400e-01	-4.189773e-02	0.0	3.409900e-01	-4.224153e-02	0.0	3.261100e-01	-4.256946e-02	0.0	3.114000e-01	-4.287308e-02	0.0	2.968700e-01	-4.314364e-02	0.0	2.825500e-01	-4.337215e-02	0.0	2.684500e-01	-4.355031e-02	0.0	2.545700e-01	-4.367031e-02	0.0	2.409400e-01	-4.372451e-02	0.0	2.275700e-01	-4.370613e-02	0.0	2.144700e-01	-4.360894e-02	0.0	2.016600e-01	-4.342747e-02	0.0	1.891400e-01	-4.315658e-02	0.0	1.769300e-01	-4.279211e-02	0.0	1.650400e-01	-4.233033e-02	0.0	1.534900e-01	-4.176867e-02	0.0	1.422900e-01	-4.110491e-02	0.0	1.314400e-01	-4.033675e-02	0.0	1.209500e-01	-3.946297e-02	0.0	1.108500e-01	-3.848509e-02	0.0	1.011300e-01	-3.740187e-02	0.0	9.181000e-02	-3.621574e-02	0.0	8.290000e-02	-3.492923e-02	0.0	7.440000e-02	-3.354418e-02	0.0	6.633000e-02	-3.206663e-02	0.0	5.869000e-02	-3.050033e-02	0.0	5.149000e-02	-2.885174e-02	0.0	4.474000e-02	-2.712862e-02	0.0	3.844000e-02	-2.533704e-02	0.0	3.260000e-02	-2.348643e-02	0.0	2.723000e-02	-2.158743e-02	0.0	2.232000e-02	-1.964357e-02	0.0	1.790000e-02	-1.767440e-02	0.0	1.395000e-02	-1.567813e-02	0.0	1.049000e-02	-1.367024e-02	0.0	7.520000e-03	-1.165553e-02	0.0	5.040000e-03	-9.634966e-03	0.0	3.050000e-03	-7.602914e-03	0.0	1.560000e-03	-5.557221e-03	0.0	5.600000e-04	-3.450429e-03	0.0	6.000000e-05	-1.210295e-03	0.0	0.000000e+00	0.000000e+00	0.0	6.000000e-05	1.166317e-03	0.0	5.600000e-04	3.218930e-03	0.0	1.560000e-03	5.048535e-03	0.0	3.050000e-03	6.745106e-03	0.0	5.040000e-03	8.364626e-03	0.0	7.520000e-03	9.921603e-03	0.0	1.049000e-02	1.143171e-02	0.0	1.395000e-02	1.290421e-02	0.0	1.790000e-02	1.434468e-02	0.0	2.232000e-02	1.575044e-02	0.0	2.723000e-02	1.713061e-02	0.0	3.260000e-02	1.847858e-02	0.0	3.844000e-02	1.979860e-02	0.0	4.474000e-02	2.108932e-02	0.0	5.149000e-02	2.234968e-02	0.0	5.869000e-02	2.358050e-02	0.0	6.633000e-02	2.478078e-02	0.0	7.440000e-02	2.594981e-02	0.0	8.290000e-02	2.708843e-02	0.0	9.181000e-02	2.819493e-02	0.0	1.011300e-01	2.927043e-02	0.0	1.108500e-01	3.031484e-02	0.0	1.209500e-01	3.132728e-02	0.0	1.314400e-01	3.230998e-02	0.0	1.422900e-01	3.326137e-02	0.0	1.534900e-01	3.418199e-02	0.0	1.650400e-01	3.507312e-02	0.0	1.769300e-01	3.593511e-02	0.0	1.891400e-01	3.676759e-02	0.0	2.016600e-01	3.757087e-02	0.0	2.144700e-01	3.834446e-02	0.0	2.275700e-01	3.908894e-02	0.0	2.409400e-01	3.980340e-02	0.0	2.545700e-01	4.048722e-02	0.0	2.684500e-01	4.113940e-02	0.0	2.825500e-01	4.175769e-02	0.0	2.968700e-01	4.234078e-02	0.0	3.114000e-01	4.288637e-02	0.0	3.261100e-01	4.339105e-02	0.0	3.409900e-01	4.385172e-02	0.0	3.560400e-01	4.426508e-02	0.0	3.712300e-01	4.462660e-02	0.0	3.865400e-01	4.493180e-02	0.0	4.019700e-01	4.517636e-02	0.0	4.175000e-01	4.535531e-02	0.0	4.331100e-01	4.546370e-02	0.0	4.487800e-01	4.549667e-02	0.0	4.645100e-01	4.544939e-02	0.0	4.802700e-01	4.531720e-02	0.0	4.960500e-01	4.509559e-02	0.0	5.118400e-01	4.478022e-02	0.0	5.276100e-01	4.436746e-02	0.0	5.433600e-01	4.385338e-02	0.0	5.590600e-01	4.323542e-02	0.0	5.747100e-01	4.251052e-02	0.0	5.902800e-01	4.167776e-02	0.0	6.057600e-01	4.073642e-02	0.0	6.211300e-01	3.968775e-02	0.0	6.363800e-01	3.853410e-02	0.0	6.515000e-01	3.727976e-02	0.0	6.664700e-01	3.593216e-02	0.0	6.812700e-01	3.450139e-02	0.0	6.958900e-01	3.299907e-02	0.0	7.103200e-01	3.143884e-02	0.0	7.245300e-01	2.983811e-02	0.0	7.385200e-01	2.821162e-02	0.0	7.522800e-01	2.657468e-02	0.0	7.657800e-01	2.494339e-02	0.0	7.790100e-01	2.332875e-02	0.0	7.919700e-01	2.173698e-02	0.0	8.046400e-01	2.017287e-02	0.0	8.170100e-01	1.863623e-02	0.0	8.290500e-01	1.712629e-02	0.0	8.407700e-01	1.563511e-02	0.0	8.521600e-01	1.415586e-02	0.0	8.631800e-01	1.268507e-02	0.0	8.738500e-01	1.121133e-02	0.0	8.841500e-01	9.729186e-03	0.0	8.940600e-01	8.236205e-03	0.0	9.035800e-01	6.733986e-03	0.0	9.127000e-01	5.239051e-03	0.0	9.214000e-01	3.790456e-03	0.0	9.296900e-01	2.447501e-03	0.0	9.375400e-01	1.297294e-03	0.0	9.449600e-01	4.262215e-04	0.0	9.519400e-01	-9.702892e-05	0.0	9.584700e-01	-2.544209e-04	0.0	9.645400e-01	-9.673343e-05	0.0	9.701500e-01	2.629608e-04	0.0	9.752800e-01	6.785566e-04	0.0	9.799500e-01	1.018880e-03	0.0	9.841300e-01	1.197955e-03	0.0	9.878400e-01	1.196143e-03	0.0	9.910500e-01	1.046832e-03	0.0	9.937800e-01	8.109072e-04	0.0	9.960200e-01	5.521569e-04	0.0	9.977600e-01	3.205030e-04	0.0	9.990000e-01	1.448332e-04	0.0	9.997500e-01	3.632230e-05	0.0	1.000000e+00	0.000000e+00	0.0	
CELLS 200	600
2	199	0	2	0	1	2	1	2	2	2	3	2	3	4	2	4	5	2	5	6	2	6	7	2	7	8	2	8	9	2	9	10	2	10	11	2	11	12	2	12	13	2	13	14	2	14	15	2	15	16	2	16	17	2	17	18	2	18	19	2	19	20	2	20	21	2	21	22	2	22	23	2	23	24	2	24	25	2	25	26	2	26	27	2	27	28	2	28	29	2	29	30	2	30	31	2	31	32	2	32	33	2	33	34	2	34	35	2	35	36	2	36	37	2	37	38	2	38	39	2	39	40	2	40	41	2	41	42	2	42	43	2	43	44	2	44	45	2	45	46	2	46	47	2	47	48	2	48	49	2	49	50	2	50	51	2	51	52	2	52	53	2	53	54	2	54	55	2	55	56	2	56	57	2	57	58	2	58	59	2	59	60	2	60	61	2	61	62	2	62	63	2	63	64	2	64	65	2	65	66	2	66	67	2	67	68	2	68	69	2	69	70	2	70	71	2	71	72	2	72	73	2	73	74	2	74	75	2	75	76	2	76	77	2	77	78	2	78	79	2	79	80	2	80	81	2	81	82	2	82	83	2	83	84	2	84	85	2	85	86	2	86	87	2	87	88	2	88	89	2	89	90	2	90	91	2	91	92	2	92	93	2	93	94	2	94	95	2	95	96	2	96	97	2	97	98	2	98	99	2	99	100	2	100	101	2	101	102	2	102	103	2	103	104	2	104	105	2	105	106	2	106	107	2	107	108	2	108	109	2	109	110	2	110	111	2	111	112	2	112	113	2	113	114	2	114	115	2	115	116	2	116	117	2	117	118	2	118	119	2	119	120	2	120	121	2	121	122	2	122	123	2	123	124	2	124	125	2	125	126	2	126	127	2	127	128	2	128	129	2	129	130	2	130	131	2	131	132	2	132	133	2	133	134	2	134	135	2	135	136	2	136	137	2	137	138	2	138	139	2	139	140	2	140	141	2	141	142	2	142	143	2	143	144	2	144	145	2	145	146	2	146	147	2	147	148	2	148	149	2	149	150	2	150	151	2	151	152	2	152	153	2	153	154	2	154	155	2	155	156	2	156	157	2	157	158	2	158	159	2	159	160	2	160	161	2	161	162	2	162	163	2	163	164	2	164	165	2	165	166	2	166	167	2	167	168	2	168	169	2	169	170	2	170	171	2	171	172	2	172	173	2	173	174	2	174	175	2	175	176	2	176	177	2	177	178	2	178	179	2	179	180	2	180	181	2	181	182	2	182	183	2	183	184	2	184	185	2	185	186	2	186	187	2	187	188	2	188	189	2	189	190	2	190	191	2	191	192	2	192	193	2	193	194	2	194	195	2	195	196	2	196	197	2	197	198	2	198	199	
CELL_TYPES 200
3	3	3	3	3	3	3	3	3	3	3	3	3	3	3	3	3	3	3	3	3	3	3	3	3	3	3	3	3	3	3	3	3	3	3	3	3	3	3	3	3	3	3	3	3	3	3	3	3	3	3	3	3	3	3	3	3	3	3	3	3	3	3	3	3	3	3	3	3	3	3	3	3	3	3	3	3	3	3	3	3	3	3	3	3	3	3	3	3	3	3	3	3	3	3	3	3	3	3	3	3	3	3	3	3	3	3	3	3	3	3	3	3	3	3	3	3	3	3	3	3	3	3	3	3	3	3	3	3	3	3	3	3	3	3	3	3	3	3	3	3	3	3	3	3	3	3	3	3	3	3	3	3	3	3	3	3	3	3	3	3	3	3	3	3	3	3	3	3	3	3	3	3	3	3	3	3	3	3	3	3	3	3	3	3	3	3	3	3	3	3	3	3	3	3	3	3	3	3	3	
POINT_DATA 200

SCALARS Conservative_1 float 1
LOOKUP_TABLE default
1.194904e+00	1.179135e+00	1.172139e+00	1.169503e+00	1.168173e+00	1.165298e+00	1.156985e+00	1.140401e+00	1.113023e+00	1.074343e+00	1.024709e+00	9.629169e-01	9.070507e-01	8.849842e-01	8.958250e-01	9.235317e-01	9.535349e-01	9.755148e-01	9.862819e-01	9.866618e-01	9.783625e-01	9.635461e-01	9.446024e-01	9.233614e-01	8.997132e-01	8.737261e-01	8.504454e-01	8.364487e-01	8.334234e-01	8.386343e-01	8.482351e-01	8.592040e-01	8.698522e-01	8.792735e-01	8.873257e-01	8.940934e-01	8.998114e-01	9.047617e-01	9.091601e-01	9.132657e-01	9.172142e-01	9.211422e-01	9.250673e-01	9.289972e-01	9.328499e-01	9.365501e-01	9.399748e-01	9.430297e-01	9.455983e-01	9.475981e-01	9.489359e-01	9.495616e-01	9.494245e-01	9.485077e-01	9.467960e-01	9.442986e-01	9.410272e-01	9.370130e-01	9.322987e-01	9.269315e-01	9.209852e-01	9.144737e-01	9.073920e-01	8.997067e-01	8.916432e-01	8.835716e-01	8.756514e-01	8.671253e-01	8.566206e-01	8.434610e-01	8.298117e-01	8.193747e-01	8.142728e-01	8.140312e-01	8.171793e-01	8.224111e-01	8.292454e-01	8.375700e-01	8.472333e-01	8.581419e-01	8.703133e-01	8.837132e-01	8.984046e-01	9.143860e-01	9.317188e-01	9.505138e-01	9.708044e-01	9.927223e-01	1.016493e+00	1.042201e+00	1.070219e+00	1.101058e+00	1.135086e+00	1.173179e+00	1.215754e+00	1.262080e+00	1.307492e+00	1.347998e+00	1.347985e+00	1.321536e+00	1.296559e+00	1.222664e+00	1.088493e+00	9.924030e-01	9.282260e-01	8.884985e-01	8.645914e-01	8.494715e-01	8.390876e-01	8.316492e-01	8.261900e-01	8.220442e-01	8.189636e-01	8.166109e-01	8.149088e-01	8.139139e-01	8.134978e-01	8.135267e-01	8.140045e-01	8.150706e-01	8.170237e-01	8.200271e-01	8.239112e-01	8.282185e-01	8.324925e-01	8.364526e-01	8.399331e-01	8.428086e-01	8.450624e-01	8.468125e-01	8.481888e-01	8.492442e-01	8.499462e-01	8.502352e-01	8.500807e-01	8.494673e-01	8.484075e-01	8.469095e-01	8.449766e-01	8.426154e-01	8.398134e-01	8.365668e-01	8.329400e-01	8.290604e-01	8.250270e-01	8.208705e-01	8.165698e-01	8.123800e-01	8.090915e-01	8.084250e-01	8.125162e-01	8.225709e-01	8.367844e-01	8.506645e-01	8.609143e-01	8.682134e-01	8.749569e-01	8.829804e-01	8.927826e-01	9.037410e-01	9.150975e-01	9.265458e-01	9.380236e-01	9.494204e-01	9.604783e-01	9.710028e-01	9.808025e-01	9.897893e-01	9.978688e-01	1.005118e+00	1.011608e+00	1.017512e+00	1.023071e+00	1.028545e+00	1.034239e+00	1.040480e+00	1.047643e+00	1.056212e+00	1.066689e+00	1.079578e+00	1.094977e+00	1.112358e+00	1.130258e+00	1.146676e+00	1.159262e+00	1.165710e+00	1.164004e+00	1.152837e+00	1.132067e+00	1.104046e+00	1.074979e+00	1.052647e+00	1.044494e+00	1.053629e+00	1.075711e+00	1.102815e+00	1.129796e+00	1.156195e+00	1.184488e+00	1.174596e+00	
SCALARS Conservative_2 float 1
LOOKUP_TABLE default
7.157999e-01	7.378403e-01	7.506056e-01	7.552119e-01	7.548942e-01	7.549977e-01	7.590280e-01	7.713234e-01	7.944165e-01	8.281632e-01	8.691984e-01	9.104405e-01	9.416149e-01	9.619199e-01	9.711883e-01	9.689715e-01	9.607189e-01	9.516841e-01	9.449097e-01	9.425419e-01	9.446089e-01	9.499274e-01	9.567632e-01	9.637589e-01	9.700416e-01	9.746598e-01	9.768890e-01	9.778086e-01	9.784181e-01	9.789933e-01	9.794409e-01	9.795613e-01	9.794496e-01	9.789875e-01	9.783750e-01	9.776431e-01	9.768980e-01	9.761887e-01	9.754316e-01	9.746874e-01	9.738713e-01	9.730229e-01	9.720846e-01	9.711066e-01	9.700679e-01	9.690363e-01	9.680169e-01	9.670875e-01	9.662641e-01	9.656145e-01	9.651509e-01	9.649362e-01	9.649648e-01	9.652613e-01	9.658122e-01	9.666180e-01	9.676421e-01	9.688596e-01	9.702208e-01	9.716683e-01	9.731777e-01	9.746745e-01	9.761681e-01	9.775573e-01	9.787921e-01	9.797018e-01	9.803719e-01	9.808739e-01	9.813766e-01	9.814995e-01	9.808865e-01	9.797034e-01	9.786744e-01	9.779205e-01	9.774775e-01	9.769842e-01	9.764157e-01	9.755688e-01	9.741351e-01	9.719496e-01	9.689026e-01	9.646772e-01	9.590539e-01	9.516598e-01	9.420928e-01	9.298175e-01	9.141955e-01	8.945606e-01	8.698818e-01	8.387157e-01	7.993340e-01	7.492155e-01	6.844937e-01	6.007525e-01	4.919018e-01	3.540503e-01	1.974712e-01	5.381982e-02	-1.069743e-02	6.912133e-03	7.781272e-02	2.415129e-01	4.701781e-01	6.456182e-01	7.589151e-01	8.295736e-01	8.731050e-01	9.009355e-01	9.191660e-01	9.317232e-01	9.407293e-01	9.473049e-01	9.523479e-01	9.562955e-01	9.594425e-01	9.620517e-01	9.641966e-01	9.659911e-01	9.675991e-01	9.690509e-01	9.704140e-01	9.716951e-01	9.728454e-01	9.737994e-01	9.745941e-01	9.752643e-01	9.758316e-01	9.763051e-01	9.767095e-01	9.770648e-01	9.773842e-01	9.776641e-01	9.779171e-01	9.781388e-01	9.783478e-01	9.785349e-01	9.787098e-01	9.788612e-01	9.789765e-01	9.790639e-01	9.791101e-01	9.790970e-01	9.790158e-01	9.788715e-01	9.786406e-01	9.783424e-01	9.779636e-01	9.776281e-01	9.774131e-01	9.776056e-01	9.783834e-01	9.795522e-01	9.802168e-01	9.799927e-01	9.793313e-01	9.787014e-01	9.780557e-01	9.770651e-01	9.755253e-01	9.733628e-01	9.706326e-01	9.674064e-01	9.637105e-01	9.596106e-01	9.552096e-01	9.506544e-01	9.460817e-01	9.416486e-01	9.373626e-01	9.333605e-01	9.295766e-01	9.259124e-01	9.222661e-01	9.184451e-01	9.142106e-01	9.092788e-01	9.032363e-01	8.955867e-01	8.856043e-01	8.726765e-01	8.563710e-01	8.371196e-01	8.165031e-01	7.975332e-01	7.838719e-01	7.790058e-01	7.853425e-01	8.033934e-01	8.308959e-01	8.629681e-01	8.919635e-01	9.096763e-01	9.119279e-01	9.001738e-01	8.774604e-01	8.479182e-01	8.139949e-01	7.759229e-01	7.325730e-01	6.650751e-01	
SCALARS Conservative_3 float 1
LOOKUP_TABLE default
1.015343e-01	1.065375e-01	1.139435e-01	1.243839e-01	1.416022e-01	1.666631e-01	1.983586e-01	2.328631e-01	2.642820e-01	2.846543e-01	2.872374e-01	2.706022e-01	2.328286e-01	1.855475e-01	1.434745e-01	1.139693e-01	1.004727e-01	1.008968e-01	1.094304e-01	1.207886e-01	1.309327e-01	1.372519e-01	1.383942e-01	1.342869e-01	1.262881e-01	1.160271e-01	1.038754e-01	9.073105e-02	7.793587e-02	6.638514e-02	5.652683e-02	4.838372e-02	4.187008e-02	3.671484e-02	3.259055e-02	2.922183e-02	2.637093e-02	2.385610e-02	2.156078e-02	1.942035e-02	1.742470e-02	1.560437e-02	1.400919e-02	1.270042e-02	1.173593e-02	1.115860e-02	1.099145e-02	1.123039e-02	1.185305e-02	1.280503e-02	1.402327e-02	1.541840e-02	1.690231e-02	1.837288e-02	1.973257e-02	2.088581e-02	2.174495e-02	2.222705e-02	2.226601e-02	2.179537e-02	2.076121e-02	1.912625e-02	1.688153e-02	1.403385e-02	1.055189e-02	6.324215e-03	1.250968e-03	-4.581696e-03	-1.085273e-02	-1.734156e-02	-2.447366e-02	-3.267935e-02	-4.195475e-02	-5.210011e-02	-6.305113e-02	-7.481878e-02	-8.752919e-02	-1.012162e-01	-1.159156e-01	-1.317017e-01	-1.486119e-01	-1.666648e-01	-1.859108e-01	-2.063516e-01	-2.279820e-01	-2.508036e-01	-2.748105e-01	-2.999532e-01	-3.260607e-01	-3.529529e-01	-3.802406e-01	-4.068417e-01	-4.308959e-01	-4.481978e-01	-4.495571e-01	-4.181732e-01	-3.276409e-01	-1.511015e-01	9.122854e-02	2.867934e-01	4.676310e-01	6.546941e-01	6.965124e-01	6.346874e-01	5.477194e-01	4.683500e-01	4.039950e-01	3.525538e-01	3.111260e-01	2.770161e-01	2.486707e-01	2.246785e-01	2.041414e-01	1.863647e-01	1.708214e-01	1.571388e-01	1.450191e-01	1.341810e-01	1.244452e-01	1.156459e-01	1.076862e-01	1.005085e-01	9.402146e-02	8.810903e-02	8.266888e-02	7.762918e-02	7.296880e-02	6.863655e-02	6.459296e-02	6.079862e-02	5.723238e-02	5.385786e-02	5.063237e-02	4.750268e-02	4.443162e-02	4.137660e-02	3.830482e-02	3.517802e-02	3.196021e-02	2.861889e-02	2.511912e-02	2.143276e-02	1.752610e-02	1.339049e-02	9.022816e-03	4.411231e-03	-4.800507e-04	-5.708707e-03	-1.130855e-02	-1.728660e-02	-2.346487e-02	-2.960105e-02	-3.545528e-02	-4.151250e-02	-4.835989e-02	-5.579533e-02	-6.331029e-02	-7.060853e-02	-7.761281e-02	-8.432110e-02	-9.067286e-02	-9.653454e-02	-1.016738e-01	-1.059745e-01	-1.093443e-01	-1.118189e-01	-1.134314e-01	-1.143424e-01	-1.147516e-01	-1.149180e-01	-1.151069e-01	-1.155666e-01	-1.165087e-01	-1.180812e-01	-1.203792e-01	-1.234683e-01	-1.273314e-01	-1.318117e-01	-1.364329e-01	-1.401525e-01	-1.411975e-01	-1.371949e-01	-1.256971e-01	-1.051636e-01	-7.558792e-02	-3.907466e-02	3.689766e-05	3.548353e-02	5.983918e-02	6.638739e-02	5.199678e-02	2.020977e-02	-2.013454e-02	-5.861699e-02	-8.719981e-02	-1.032669e-01	-1.092864e-01	-1.071133e-01	-1.008224e-01	4.115877e-03	
SCALARS Conservative_4 float 1
LOOKUP_TABLE default
3.432133e+00	3.392507e+00	3.375697e+00	3.369572e+00	3.366404e+00	3.359439e+00	3.338706e+00	3.297265e+00	3.228706e+00	3.131634e+00	3.006520e+00	2.849276e+00	2.706074e+00	2.650587e+00	2.679933e+00	2.751615e+00	2.828772e+00	2.885088e+00	2.912386e+00	2.913139e+00	2.891786e+00	2.853791e+00	2.805127e+00	2.750384e+00	2.689144e+00	2.621441e+00	2.560384e+00	2.523496e+00	2.515396e+00	2.528973e+00	2.554135e+00	2.582895e+00	2.610833e+00	2.635497e+00	2.656550e+00	2.674205e+00	2.689102e+00	2.701994e+00	2.713421e+00	2.724085e+00	2.734321e+00	2.744502e+00	2.754659e+00	2.764826e+00	2.774779e+00	2.784337e+00	2.793173e+00	2.801054e+00	2.807675e+00	2.812831e+00	2.816275e+00	2.817891e+00	2.817540e+00	2.815184e+00	2.810779e+00	2.804352e+00	2.795924e+00	2.785576e+00	2.773410e+00	2.759540e+00	2.744161e+00	2.727290e+00	2.708924e+00	2.688950e+00	2.667957e+00	2.646874e+00	2.626150e+00	2.603814e+00	2.576315e+00	2.541783e+00	2.505820e+00	2.478176e+00	2.464606e+00	2.463884e+00	2.472182e+00	2.485983e+00	2.504046e+00	2.526034e+00	2.551480e+00	2.580123e+00	2.612014e+00	2.647009e+00	2.685265e+00	2.726726e+00	2.771511e+00	2.819853e+00	2.871777e+00	2.927594e+00	2.987810e+00	3.052517e+00	3.122617e+00	3.199302e+00	3.283291e+00	3.376786e+00	3.480622e+00	3.593063e+00	3.703134e+00	3.804097e+00	3.802229e+00	3.735644e+00	3.681074e+00	3.504824e+00	3.162246e+00	2.916578e+00	2.752420e+00	2.651496e+00	2.591083e+00	2.552925e+00	2.526559e+00	2.507563e+00	2.493579e+00	2.482898e+00	2.474965e+00	2.468911e+00	2.464541e+00	2.462032e+00	2.461026e+00	2.461178e+00	2.462531e+00	2.465442e+00	2.470702e+00	2.478734e+00	2.489073e+00	2.500493e+00	2.511805e+00	2.522280e+00	2.531487e+00	2.539093e+00	2.545058e+00	2.549696e+00	2.553349e+00	2.556153e+00	2.558026e+00	2.558808e+00	2.558423e+00	2.556826e+00	2.554056e+00	2.550128e+00	2.545049e+00	2.538840e+00	2.531465e+00	2.522909e+00	2.513341e+00	2.503099e+00	2.492437e+00	2.481443e+00	2.470059e+00	2.458997e+00	2.450349e+00	2.448706e+00	2.459704e+00	2.486454e+00	2.523990e+00	2.560457e+00	2.587325e+00	2.606492e+00	2.624230e+00	2.645276e+00	2.670898e+00	2.699449e+00	2.728946e+00	2.758603e+00	2.788255e+00	2.817626e+00	2.846049e+00	2.873041e+00	2.898119e+00	2.921083e+00	2.941677e+00	2.960140e+00	2.976647e+00	2.991637e+00	3.005738e+00	3.019608e+00	3.034013e+00	3.049777e+00	3.067826e+00	3.089365e+00	3.115606e+00	3.147798e+00	3.186129e+00	3.229278e+00	3.273603e+00	3.314261e+00	3.345557e+00	3.361874e+00	3.358199e+00	3.331151e+00	3.280017e+00	3.210355e+00	3.137543e+00	3.080836e+00	3.059283e+00	3.081579e+00	3.136777e+00	3.204467e+00	3.271331e+00	3.336292e+00	3.406221e+00	3.366174e+00	
SCALARS Pressure float 1
LOOKUP_TABLE default
1.285369e+00	1.262737e+00	1.251930e+00	1.247647e+00	1.245563e+00	1.241176e+00	1.229090e+00	1.205058e+00	1.165529e+00	1.109890e+00	1.039047e+00	9.523365e-01	8.749776e-01	8.433457e-01	8.567993e-01	8.945038e-01	9.358001e-01	9.662610e-01	9.814716e-01	9.822191e-01	9.708059e-01	9.503058e-01	9.241794e-01	8.950628e-01	8.629389e-01	8.280443e-01	7.971895e-01	7.788182e-01	7.749733e-01	7.819695e-01	7.947121e-01	8.092573e-01	8.233588e-01	8.358902e-01	8.466272e-01	8.556909e-01	8.633686e-01	8.700209e-01	8.759592e-01	8.815035e-01	8.868565e-01	8.921830e-01	8.975228e-01	9.028708e-01	9.081280e-01	9.131784e-01	9.178642e-01	9.220431e-01	9.255638e-01	9.283030e-01	9.301401e-01	9.309944e-01	9.308040e-01	9.295404e-01	9.271875e-01	9.237554e-01	9.192673e-01	9.137673e-01	9.073207e-01	9.000008e-01	8.919050e-01	8.830682e-01	8.734753e-01	8.631074e-01	8.522660e-01	8.414822e-01	8.309365e-01	8.196119e-01	8.056380e-01	7.882160e-01	7.702906e-01	7.567290e-01	7.501565e-01	7.499254e-01	7.540560e-01	7.609100e-01	7.698295e-01	7.807066e-01	7.934114e-01	8.078364e-01	8.239982e-01	8.419055e-01	8.616521e-01	8.832860e-01	9.069309e-01	9.327915e-01	9.609751e-01	9.916904e-01	1.025322e+00	1.062109e+00	1.102625e+00	1.147694e+00	1.198047e+00	1.254943e+00	1.319197e+00	1.389650e+00	1.458868e+00	1.517821e+00	1.519640e+00	1.481803e+00	1.437764e+00	1.322275e+00	1.135141e+00	1.001446e+00	9.122320e-01	8.563113e-01	8.223381e-01	8.008027e-01	7.861736e-01	7.758028e-01	7.682330e-01	7.625469e-01	7.583174e-01	7.550832e-01	7.527327e-01	7.513147e-01	7.506775e-01	7.506392e-01	7.511724e-01	7.524709e-01	7.549217e-01	7.587469e-01	7.637428e-01	7.693284e-01	7.748898e-01	7.800488e-01	7.845834e-01	7.883299e-01	7.912628e-01	7.935348e-01	7.953154e-01	7.966776e-01	7.975760e-01	7.979355e-01	7.977108e-01	7.968849e-01	7.954715e-01	7.934848e-01	7.909326e-01	7.878200e-01	7.841333e-01	7.798715e-01	7.751206e-01	7.700457e-01	7.647839e-01	7.593679e-01	7.537723e-01	7.482930e-01	7.439578e-01	7.429702e-01	7.481240e-01	7.610700e-01	7.796487e-01	7.979811e-01	8.115794e-01	8.212297e-01	8.301151e-01	8.407460e-01	8.538226e-01	8.685363e-01	8.838741e-01	8.994159e-01	9.150779e-01	9.307025e-01	9.459359e-01	9.604946e-01	9.741060e-01	9.866217e-01	9.979264e-01	1.008083e+00	1.017200e+00	1.025518e+00	1.033363e+00	1.041106e+00	1.049181e+00	1.058056e+00	1.068288e+00	1.080578e+00	1.095700e+00	1.114395e+00	1.136858e+00	1.162330e+00	1.188676e+00	1.212836e+00	1.231229e+00	1.240371e+00	1.237307e+00	1.220268e+00	1.189405e+00	1.148437e+00	1.106493e+00	1.075032e+00	1.064398e+00	1.078166e+00	1.110147e+00	1.149466e+00	1.189125e+00	1.228388e+00	1.270157e+00	1.271151e+00	
SCALARS Temperature float 1
LOOKUP_TABLE default
1.075709e+00	1.070902e+00	1.068073e+00	1.066818e+00	1.066249e+00	1.065115e+00	1.062322e+00	1.056696e+00	1.047174e+00	1.033088e+00	1.013993e+00	9.890121e-01	9.646402e-01	9.529500e-01	9.564360e-01	9.685686e-01	9.814010e-01	9.905140e-01	9.951228e-01	9.954972e-01	9.922763e-01	9.862589e-01	9.783793e-01	9.693527e-01	9.591267e-01	9.477161e-01	9.373788e-01	9.311010e-01	9.298675e-01	9.324321e-01	9.369008e-01	9.418687e-01	9.465503e-01	9.506600e-01	9.541335e-01	9.570488e-01	9.594995e-01	9.616022e-01	9.634818e-01	9.652213e-01	9.669023e-01	9.685616e-01	9.702243e-01	9.718768e-01	9.734986e-01	9.750450e-01	9.764774e-01	9.777456e-01	9.788129e-01	9.796379e-01	9.801927e-01	9.804466e-01	9.803876e-01	9.800030e-01	9.792896e-01	9.782450e-01	9.768764e-01	9.751917e-01	9.732082e-01	9.709465e-01	9.684249e-01	9.656573e-01	9.626218e-01	9.593209e-01	9.558374e-01	9.523645e-01	9.489353e-01	9.452058e-01	9.404841e-01	9.345019e-01	9.282715e-01	9.235446e-01	9.212595e-01	9.212490e-01	9.227545e-01	9.252186e-01	9.283494e-01	9.321090e-01	9.364733e-01	9.413786e-01	9.467834e-01	9.526909e-01	9.590914e-01	9.659882e-01	9.733955e-01	9.813550e-01	9.898751e-01	9.989605e-01	1.008686e+00	1.019102e+00	1.030280e+00	1.042356e+00	1.055468e+00	1.069695e+00	1.085085e+00	1.101079e+00	1.115776e+00	1.125982e+00	1.127342e+00	1.121273e+00	1.108907e+00	1.081470e+00	1.042856e+00	1.009112e+00	9.827693e-01	9.637735e-01	9.511293e-01	9.427070e-01	9.369386e-01	9.328486e-01	9.298502e-01	9.276227e-01	9.259477e-01	9.246548e-01	9.237018e-01	9.230886e-01	9.227776e-01	9.226977e-01	9.228111e-01	9.231972e-01	9.239899e-01	9.252705e-01	9.269723e-01	9.288954e-01	9.308070e-01	9.325679e-01	9.341022e-01	9.353605e-01	9.363365e-01	9.370844e-01	9.376631e-01	9.381018e-01	9.383842e-01	9.384880e-01	9.383942e-01	9.380996e-01	9.376055e-01	9.369181e-01	9.360409e-01	9.349699e-01	9.336994e-01	9.322286e-01	9.305840e-01	9.288173e-01	9.269804e-01	9.250763e-01	9.230960e-01	9.211120e-01	9.194977e-01	9.190341e-01	9.207496e-01	9.252334e-01	9.317200e-01	9.380679e-01	9.426948e-01	9.458845e-01	9.487497e-01	9.521684e-01	9.563612e-01	9.610456e-01	9.658797e-01	9.707193e-01	9.755383e-01	9.802849e-01	9.848593e-01	9.891780e-01	9.931724e-01	9.967997e-01	1.000058e+00	1.002950e+00	1.005527e+00	1.007868e+00	1.010060e+00	1.012212e+00	1.014447e+00	1.016892e+00	1.019706e+00	1.023070e+00	1.027197e+00	1.032250e+00	1.038249e+00	1.044924e+00	1.051686e+00	1.057697e+00	1.062080e+00	1.064047e+00	1.062975e+00	1.058491e+00	1.050648e+00	1.040208e+00	1.029316e+00	1.021266e+00	1.019056e+00	1.023288e+00	1.032013e+00	1.042301e+00	1.052512e+00	1.062439e+00	1.072326e+00	1.082203e+00	
SCALARS Pressure_Coefficient float 1
LOOKUP_TABLE default
6.369836e-01	5.864671e-01	5.623438e-01	5.527824e-01	5.481328e-01	5.383385e-01	5.113626e-01	4.577178e-01	3.694852e-01	2.452911e-01	8.715862e-02	-1.063917e-01	-2.790679e-01	-3.496748e-01	-3.196445e-01	-2.354827e-01	-1.433034e-01	-7.531016e-02	-4.135795e-02	-3.968961e-02	-6.516534e-02	-1.109245e-01	-1.692424e-01	-2.342347e-01	-3.059399e-01	-3.838296e-01	-4.527019e-01	-4.937095e-01	-5.022917e-01	-4.866752e-01	-4.582320e-01	-4.257649e-01	-3.942884e-01	-3.663165e-01	-3.423499e-01	-3.221184e-01	-3.049808e-01	-2.901320e-01	-2.768768e-01	-2.645011e-01	-2.525525e-01	-2.406631e-01	-2.287437e-01	-2.168062e-01	-2.050713e-01	-1.937981e-01	-1.833388e-01	-1.740109e-01	-1.661523e-01	-1.600379e-01	-1.559374e-01	-1.540303e-01	-1.544554e-01	-1.572759e-01	-1.625280e-01	-1.701889e-01	-1.802070e-01	-1.924837e-01	-2.068734e-01	-2.232125e-01	-2.412834e-01	-2.610085e-01	-2.824212e-01	-3.055639e-01	-3.297634e-01	-3.538343e-01	-3.773738e-01	-4.026520e-01	-4.338437e-01	-4.727322e-01	-5.127442e-01	-5.430156e-01	-5.576864e-01	-5.582023e-01	-5.489822e-01	-5.336830e-01	-5.137735e-01	-4.894943e-01	-4.611354e-01	-4.289366e-01	-3.928612e-01	-3.528894e-01	-3.088123e-01	-2.605222e-01	-2.077434e-01	-1.500191e-01	-8.710920e-02	-1.854822e-02	5.652326e-02	1.386351e-01	2.290732e-01	3.296749e-01	4.420693e-01	5.690691e-01	7.124924e-01	8.697539e-01	1.024260e+00	1.155851e+00	1.159911e+00	1.075452e+00	9.771510e-01	7.193643e-01	3.016550e-01	3.227890e-03	-1.959107e-01	-3.207338e-01	-3.965667e-01	-4.446368e-01	-4.772911e-01	-5.004403e-01	-5.173371e-01	-5.300293e-01	-5.394700e-01	-5.466893e-01	-5.519360e-01	-5.551011e-01	-5.565234e-01	-5.566089e-01	-5.554188e-01	-5.525204e-01	-5.470498e-01	-5.385113e-01	-5.273597e-01	-5.148920e-01	-5.024780e-01	-4.909624e-01	-4.808407e-01	-4.724779e-01	-4.659312e-01	-4.608597e-01	-4.568854e-01	-4.538447e-01	-4.518392e-01	-4.510368e-01	-4.515384e-01	-4.533819e-01	-4.565368e-01	-4.609715e-01	-4.666682e-01	-4.736160e-01	-4.818453e-01	-4.913584e-01	-5.019629e-01	-5.132909e-01	-5.250359e-01	-5.371253e-01	-5.496153e-01	-5.618460e-01	-5.715228e-01	-5.737273e-01	-5.622232e-01	-5.333258e-01	-4.918555e-01	-4.509351e-01	-4.205817e-01	-3.990409e-01	-3.792073e-01	-3.554777e-01	-3.262888e-01	-2.934457e-01	-2.592096e-01	-2.245181e-01	-1.895582e-01	-1.546819e-01	-1.206787e-01	-8.818171e-02	-5.779918e-02	-2.986225e-02	-4.628622e-03	1.804299e-02	3.839212e-02	5.695973e-02	7.447000e-02	9.175395e-02	1.097782e-01	1.295900e-01	1.524291e-01	1.798627e-01	2.136163e-01	2.553458e-01	3.054868e-01	3.623433e-01	4.211526e-01	4.750796e-01	5.161365e-01	5.365418e-01	5.297034e-01	4.916688e-01	4.227785e-01	3.313329e-01	2.377069e-01	1.674818e-01	1.437460e-01	1.744771e-01	2.458649e-01	3.336284e-01	4.221534e-01	5.097939e-01	6.030284e-01	6.052487e-01	
SCALARS Mach float 1
LOOKUP_TABLE default
4.930296e-01	5.163461e-01	5.296820e-01	5.355133e-01	5.381393e-01	5.433481e-01	5.560111e-01	5.808725e-01	6.212458e-01	6.777802e-01	7.497960e-01	8.382630e-01	9.201983e-01	9.583787e-01	9.470576e-01	9.072218e-01	8.642404e-01	8.330897e-01	8.171089e-01	8.158034e-01	8.269978e-01	8.477056e-01	8.744487e-01	9.046221e-01	9.382830e-01	9.752821e-01	1.008367e+00	1.028286e+00	1.032185e+00	1.024072e+00	1.009888e+00	9.940432e-01	9.790328e-01	9.657878e-01	9.545408e-01	9.450621e-01	9.370646e-01	9.301809e-01	9.240101e-01	9.182838e-01	9.127357e-01	9.072450e-01	9.017284e-01	8.962311e-01	8.908210e-01	8.856488e-01	8.808452e-01	8.765823e-01	8.729874e-01	8.702038e-01	8.683292e-01	8.674709e-01	8.676703e-01	8.689703e-01	8.713795e-01	8.749013e-01	8.795051e-01	8.851573e-01	8.917908e-01	8.993278e-01	9.076978e-01	9.168461e-01	9.268357e-01	9.376485e-01	9.490051e-01	9.602750e-01	9.713542e-01	9.833516e-01	9.984677e-01	1.017510e+00	1.037225e+00	1.052109e+00	1.059283e+00	1.059316e+00	1.054591e+00	1.046844e+00	1.036979e+00	1.025096e+00	1.011248e+00	9.956102e-01	9.782832e-01	9.592180e-01	9.383984e-01	9.157545e-01	8.911652e-01	8.643961e-01	8.352925e-01	8.036749e-01	7.690621e-01	7.309644e-01	6.886686e-01	6.409709e-01	5.861935e-01	5.220678e-01	4.447168e-01	3.496713e-01	2.340965e-01	9.477332e-02	5.423994e-02	1.732593e-01	2.934473e-01	4.638365e-01	6.389416e-01	7.675252e-01	8.595988e-01	9.230510e-01	9.642713e-01	9.913611e-01	1.009768e+00	1.022753e+00	1.032240e+00	1.039271e+00	1.044549e+00	1.048618e+00	1.051615e+00	1.053541e+00	1.054518e+00	1.054769e+00	1.054413e+00	1.053200e+00	1.050709e+00	1.046681e+00	1.041322e+00	1.035256e+00	1.029216e+00	1.023642e+00	1.018778e+00	1.014784e+00	1.011683e+00	1.009304e+00	1.007462e+00	1.006065e+00	1.005166e+00	1.004835e+00	1.005134e+00	1.006072e+00	1.007645e+00	1.009833e+00	1.012622e+00	1.016025e+00	1.020056e+00	1.024717e+00	1.029921e+00	1.035502e+00	1.041296e+00	1.047292e+00	1.053518e+00	1.059745e+00	1.064805e+00	1.066257e+00	1.060882e+00	1.046798e+00	1.026327e+00	1.006173e+00	9.914003e-01	9.811722e-01	9.719525e-01	9.609098e-01	9.473010e-01	9.320050e-01	9.161123e-01	9.000833e-01	8.839960e-01	8.680176e-01	8.524855e-01	8.376925e-01	8.238915e-01	8.112534e-01	7.998118e-01	7.895792e-01	7.803981e-01	7.720070e-01	7.641017e-01	7.562929e-01	7.481340e-01	7.391440e-01	7.287180e-01	7.161326e-01	7.004939e-01	6.810397e-01	6.574560e-01	6.305102e-01	6.023645e-01	5.765097e-01	5.570968e-01	5.482154e-01	5.530688e-01	5.730282e-01	6.067433e-01	6.496282e-01	6.923816e-01	7.228997e-01	7.311344e-01	7.153104e-01	6.819609e-01	6.411916e-01	5.988571e-01	5.554825e-01	5.095274e-01	4.600151e-01	