# vtk DataFile Version 3.0
vtk output
ASCII
DATASET UNSTRUCTURED_GRID
POINTS 5233 float
9.997500e-01	-3.633567e-05	0.0	9.990000e-01	-1.456765e-04	0.0	9.977600e-01	-3.297396e-04	0.0	9.960200e-01	-6.019159e-04	0.0	9.937800e-01	-9.900577e-04	0.0	9.910500e-01	-1.539418e-03	0.0	9.878400e-01	-2.307686e-03	0.0	9.841300e-01	-3.355643e-03	0.0	9.799500e-01	-4.698970e-03	0.0	9.752800e-01	-6.311019e-03	0.0	9.701500e-01	-8.083882e-03	0.0	9.645400e-01	-9.880915e-03	0.0	9.584700e-01	-1.154829e-02	0.0	9.519400e-01	-1.298297e-02	0.0	9.449600e-01	-1.415526e-02	0.0	9.375400e-01	-1.511426e-02	0.0	9.296900e-01	-1.596207e-02	0.0	9.214000e-01	-1.681712e-02	0.0	9.127000e-01	-1.777320e-02	0.0	9.035800e-01	-1.888722e-02	0.0	8.940600e-01	-2.016723e-02	0.0	8.841500e-01	-2.158490e-02	0.0	8.738500e-01	-2.309015e-02	0.0	8.631800e-01	-2.462134e-02	0.0	8.521600e-01	-2.612001e-02	0.0	8.407700e-01	-2.754354e-02	0.0	8.290500e-01	-2.885557e-02	0.0	8.170100e-01	-3.003857e-02	0.0	8.046400e-01	-3.108943e-02	0.0	7.919700e-01	-3.201144e-02	0.0	7.790100e-01	-3.281668e-02	0.0	7.657800e-01	-3.352036e-02	0.0	7.522800e-01	-3.413970e-02	0.0	7.385200e-01	-3.469019e-02	0.0	7.245300e-01	-3.518426e-02	0.0	7.103200e-01	-3.563229e-02	0.0	6.958900e-01	-3.604182e-02	0.0	6.812700e-01	-3.641695e-02	0.0	6.664700e-01	-3.676050e-02	0.0	6.515000e-01	-3.707414e-02	0.0	6.363800e-01	-3.735898e-02	0.0	6.211300e-01	-3.761657e-02	0.0	6.057600e-01	-3.784942e-02	0.0	5.902800e-01	-3.806107e-02	0.0	5.747100e-01	-3.825606e-02	0.0	5.590600e-01	-3.843999e-02	0.0	5.433600e-01	-3.861892e-02	0.0	5.276100e-01	-3.879949e-02	0.0	5.118400e-01	-3.898784e-02	0.0	4.960500e-01	-3.918985e-02	0.0	4.802700e-01	-3.941001e-02	0.0	4.645100e-01	-3.965173e-02	0.0	4.487800e-01	-3.991691e-02	0.0	4.331100e-01	-4.020541e-02	0.0	4.175000e-01	-4.051594e-02	0.0	4.019700e-01	-4.084517e-02	0.0	3.865400e-01	-4.118829e-02	0.0	3.712300e-01	-4.153911e-02	0.0	3.560400e-01	-4.189089e-02	0.0	3.409900e-01	-4.223557e-02	0.0	3.261100e-01	-4.256434e-02	0.0	3.114000e-01	-4.286876e-02	0.0	2.968700e-01	-4.314006e-02	0.0	2.825500e-01	-4.336925e-02	0.0	2.684500e-01	-4.354802e-02	0.0	2.545700e-01	-4.366853e-02	0.0	2.409400e-01	-4.372316e-02	0.0	2.275700e-01	-4.370512e-02	0.0	2.144700e-01	-4.360817e-02	0.0	2.016600e-01	-4.342684e-02	0.0	1.891400e-01	-4.315600e-02	0.0	1.769300e-01	-4.279147e-02	0.0	1.650400e-01	-4.232954e-02	0.0	1.534900e-01	-4.176764e-02	0.0	1.422900e-01	-4.110357e-02	0.0	1.314400e-01	-4.033503e-02	0.0	1.209500e-01	-3.946079e-02	0.0	1.108500e-01	-3.848242e-02	0.0	1.011300e-01	-3.739865e-02	0.0	9.181000e-02	-3.621195e-02	0.0	8.290000e-02	-3.492486e-02	0.0	7.440000e-02	-3.353924e-02	0.0	6.633000e-02	-3.206115e-02	0.0	5.869000e-02	-3.049433e-02	0.0	5.149000e-02	-2.884529e-02	0.0	4.474000e-02	-2.712178e-02	0.0	3.844000e-02	-2.532990e-02	0.0	3.260000e-02	-2.347910e-02	0.0	2.723000e-02	-2.158004e-02	0.0	2.232000e-02	-1.963625e-02	0.0	1.790000e-02	-1.766729e-02	0.0	1.395000e-02	-1.567140e-02	0.0	1.049000e-02	-1.366404e-02	0.0	7.520000e-03	-1.165003e-02	0.0	5.040000e-03	-9.630331e-03	0.0	3.050000e-03	-7.599281e-03	0.0	1.560000e-03	-5.554695e-03	0.0	5.600000e-04	-3.449057e-03	0.0	6.000000e-05	-1.209973e-03	0.0	0.000000e+00	0.000000e+00	0.0	6.000000e-05	1.166006e-03	0.0	5.600000e-04	3.217696e-03	0.0	1.560000e-03	5.046415e-03	0.0	3.050000e-03	6.742286e-03	0.0	5.040000e-03	8.361346e-03	0.0	7.520000e-03	9.918133e-03	0.0	1.049000e-02	1.142833e-02	0.0	1.395000e-02	1.290119e-02	0.0	1.790000e-02	1.434229e-02	0.0	2.232000e-02	1.574892e-02	0.0	2.723000e-02	1.713020e-02	0.0	3.260000e-02	1.847947e-02	0.0	3.844000e-02	1.980097e-02	0.0	4.474000e-02	2.109332e-02	0.0	5.149000e-02	2.235542e-02	0.0	5.869000e-02	2.358807e-02	0.0	6.633000e-02	2.479024e-02	0.0	7.440000e-02	2.596118e-02	0.0	8.290000e-02	2.710171e-02	0.0	9.181000e-02	2.821010e-02	0.0	1.011300e-01	2.928742e-02	0.0	1.108500e-01	3.033356e-02	0.0	1.209500e-01	3.134763e-02	0.0	1.314400e-01	3.233183e-02	0.0	1.422900e-01	3.328457e-02	0.0	1.534900e-01	3.420637e-02	0.0	1.650400e-01	3.509849e-02	0.0	1.769300e-01	3.596129e-02	0.0	1.891400e-01	3.679437e-02	0.0	2.016600e-01	3.759802e-02	0.0	2.144700e-01	3.837179e-02	0.0	2.275700e-01	3.911622e-02	0.0	2.409400e-01	3.983042e-02	0.0	2.545700e-01	4.051378e-02	0.0	2.684500e-01	4.116531e-02	0.0	2.825500e-01	4.178275e-02	0.0	2.968700e-01	4.236482e-02	0.0	3.114000e-01	4.290925e-02	0.0	3.261100e-01	4.341261e-02	0.0	3.409900e-01	4.387186e-02	0.0	3.560400e-01	4.428370e-02	0.0	3.712300e-01	4.464363e-02	0.0	3.865400e-01	4.494719e-02	0.0	4.019700e-01	4.519007e-02	0.0	4.175000e-01	4.536736e-02	0.0	4.331100e-01	4.547410e-02	0.0	4.487800e-01	4.550546e-02	0.0	4.645100e-01	4.545664e-02	0.0	4.802700e-01	4.532298e-02	0.0	4.960500e-01	4.510001e-02	0.0	5.118400e-01	4.478337e-02	0.0	5.276100e-01	4.436948e-02	0.0	5.433600e-01	4.385441e-02	0.0	5.590600e-01	4.323559e-02	0.0	5.747100e-01	4.250998e-02	0.0	5.902800e-01	4.167664e-02	0.0	6.057600e-01	4.073487e-02	0.0	6.211300e-01	3.968591e-02	0.0	6.363800e-01	3.853209e-02	0.0	6.515000e-01	3.727771e-02	0.0	6.664700e-01	3.593018e-02	0.0	6.812700e-01	3.449957e-02	0.0	6.958900e-01	3.299750e-02	0.0	7.103200e-01	3.143760e-02	0.0	7.245300e-01	2.983725e-02	0.0	7.385200e-01	2.821118e-02	0.0	7.522800e-01	2.657470e-02	0.0	7.657800e-01	2.494388e-02	0.0	7.790100e-01	2.332972e-02	0.0	7.919700e-01	2.173843e-02	0.0	8.046400e-01	2.017477e-02	0.0	8.170100e-01	1.863855e-02	0.0	8.290500e-01	1.712899e-02	0.0	8.407700e-01	1.563813e-02	0.0	8.521600e-01	1.415912e-02	0.0	8.631800e-01	1.268850e-02	0.0	8.738500e-01	1.121483e-02	0.0	8.841500e-01	9.732641e-03	0.0	8.940600e-01	8.239504e-03	0.0	9.035800e-01	6.737017e-03	0.0	9.127000e-01	5.241710e-03	0.0	9.214000e-01	3.792664e-03	0.0	9.296900e-01	2.449212e-03	0.0	9.375400e-01	1.298503e-03	0.0	9.449600e-01	4.269695e-04	0.0	9.519400e-01	-9.666288e-05	0.0	9.584700e-01	-2.543329e-04	0.0	9.645400e-01	-9.681425e-05	0.0	9.701500e-01	2.628064e-04	0.0	9.752800e-01	6.783968e-04	0.0	9.799500e-01	1.018752e-03	0.0	9.841300e-01	1.197870e-03	0.0	9.878400e-01	1.196095e-03	0.0	9.910500e-01	1.046809e-03	0.0	9.937800e-01	8.108988e-04	0.0	9.960200e-01	5.521546e-04	0.0	9.977600e-01	3.205026e-04	0.0	9.990000e-01	1.448331e-04	0.0	9.997500e-01	3.632230e-05	0.0	1.000000e+00	0.000000e+00	0.0	1.984229e+01	2.506660e+00	0.0	1.937166e+01	4.973800e+00	0.0	1.859553e+01	7.362490e+00	0.0	1.752613e+01	9.635070e+00	0.0	1.618034e+01	1.175571e+01	0.0	1.457937e+01	1.369094e+01	0.0	1.274848e+01	1.541027e+01	0.0	1.071654e+01	1.688656e+01	0.0	8.515590e+00	1.809654e+01	0.0	6.180340e+00	1.902113e+01	0.0	3.747630e+00	1.964575e+01	0.0	1.255810e+00	1.996053e+01	0.0	-1.255810e+00	1.996053e+01	0.0	-3.747630e+00	1.964574e+01	0.0	-6.180340e+00	1.902113e+01	0.0	-8.515590e+00	1.809654e+01	0.0	-1.071654e+01	1.688656e+01	0.0	-1.274848e+01	1.541026e+01	0.0	-1.457937e+01	1.369094e+01	0.0	-1.618034e+01	1.175570e+01	0.0	-1.752613e+01	9.635070e+00	0.0	-1.859553e+01	7.362490e+00	0.0	-1.937166e+01	4.973800e+00	0.0	-1.984229e+01	2.506660e+00	0.0	-2.000000e+01	0.000000e+00	0.0	-1.984229e+01	-2.506670e+00	0.0	-1.937166e+01	-4.973800e+00	0.0	-1.859553e+01	-7.362490e+00	0.0	-1.752613e+01	-9.635080e+00	0.0	-1.618034e+01	-1.175571e+01	0.0	-1.457937e+01	-1.369094e+01	0.0	-1.274848e+01	-1.541027e+01	0.0	-1.071653e+01	-1.688656e+01	0.0	-8.515580e+00	-1.809654e+01	0.0	-6.180340e+00	-1.902113e+01	0.0	-3.747620e+00	-1.964575e+01	0.0	-1.255810e+00	-1.996053e+01	0.0	1.255810e+00	-1.996053e+01	0.0	3.747630e+00	-1.964574e+01	0.0	6.180340e+00	-1.902113e+01	0.0	8.515590e+00	-1.809654e+01	0.0	1.071654e+01	-1.688656e+01	0.0	1.274848e+01	-1.541026e+01	0.0	1.457937e+01	-1.369094e+01	0.0	1.618034e+01	-1.175570e+01	0.0	1.752614e+01	-9.635070e+00	0.0	1.859553e+01	-7.362490e+00	0.0	1.937166e+01	-4.973790e+00	0.0	1.984229e+01	-2.506660e+00	0.0	2.000000e+01	0.000000e+00	0.0	6.108543e-02	-3.816121e-02	0.0	6.596172e-01	-5.067320e-02	0.0	4.254823e-01	5.960481e-02	0.0	6.898002e-01	4.694639e-02	0.0	3.791921e-01	-5.563894e-02	0.0	9.994689e-01	-7.250039e-04	0.0	9.985588e-01	-1.332452e-03	0.0	7.734185e-01	-4.509812e-02	0.0	6.892983e-01	-4.963773e-02	0.0	-8.296145e-04	4.943767e-03	0.0	7.463101e-01	-4.690756e-02	0.0	5.833279e-01	5.609675e-02	0.0	9.928466e-01	-3.842885e-03	0.0	9.899844e-01	-4.961076e-03	0.0	5.989134e-01	5.512245e-02	0.0	7.182378e-01	-4.839416e-02	0.0	-1.259587e-03	5.821434e-04	0.0	9.866441e-01	-6.298691e-03	0.0	9.828301e-01	-7.864016e-03	0.0	-9.282697e-04	-5.357447e-03	0.0	6.445387e-01	-5.112253e-02	0.0	8.242639e-01	-4.018589e-02	0.0	7.994356e-01	-4.289085e-02	0.0	3.484143e-01	5.784835e-02	0.0	8.477560e-01	-3.701402e-02	0.0	2.473350e-01	5.273538e-02	0.0	8.698460e-01	-3.351069e-02	0.0	1.069248e-02	1.538703e-02	0.0	8.904306e-01	-2.996785e-02	0.0	7.735917e-02	-4.190399e-02	0.0	9.094522e-01	-2.669797e-02	0.0	-1.478696e-03	-2.676522e-03	0.0	9.425480e-01	-2.093081e-02	0.0	9.268504e-01	-2.378985e-02	0.0	1.834952e-02	-2.265911e-02	0.0	4.256822e-01	-5.492504e-02	0.0	8.589855e-01	-3.528599e-02	0.0	9.564615e-01	-1.760655e-02	0.0	9.785309e-01	-9.669312e-03	0.0	9.684787e-01	-1.366982e-02	0.0	1.586193e-01	-5.258861e-02	0.0	9.001424e-01	-2.828501e-02	0.0	7.599951e-01	-4.604796e-02	0.0	9.971456e-01	-2.101223e-03	0.0	5.985333e-01	-5.222913e-02	0.0	4.413404e-01	-5.468281e-02	0.0	5.359436e-01	-5.329146e-02	0.0	4.728216e-01	-5.420970e-02	0.0	5.043907e-01	-5.375102e-02	0.0	4.885946e-01	-5.397804e-02	0.0	1.252952e-01	-4.941846e-02	0.0	2.822706e-02	-2.739366e-02	0.0	3.945961e-01	-5.540798e-02	0.0	4.657428e-02	-3.407506e-02	0.0	4.100941e-01	-5.516912e-02	0.0	3.189295e-01	-5.636506e-02	0.0	3.487596e-01	-5.605994e-02	0.0	3.387978e-02	-2.967133e-02	0.0	2.897807e-01	-5.650334e-02	0.0	9.349173e-01	-2.238627e-02	0.0	1.471574e-01	-5.164103e-02	0.0	1.950012e-01	-5.476445e-02	0.0	8.613287e-02	-4.362622e-02	0.0	1.049270e-01	-4.675289e-02	0.0	5.673664e-01	-5.280687e-02	0.0	1.704241e-01	-5.342566e-02	0.0	6.139885e-01	-5.189476e-02	0.0	8.803343e-01	-3.172392e-02	0.0	2.306071e-02	-2.505183e-02	0.0	9.952398e-01	-2.914803e-03	0.0	7.154976e-03	-1.536365e-02	0.0	1.868946e-02	1.918518e-02	0.0	9.183568e-01	-2.520832e-02	0.0	9.49
[...]
POINT_DATA 5233

SCALARS Conservative_1 float 1
LOOKUP_TABLE default
1.194908e+00	1.179153e+00	1.172168e+00	1.169541e+00	1.168219e+00	1.165348e+00	1.157033e+00	1.140439e+00	1.113037e+00	1.074315e+00	1.024619e+00	9.626864e-01	9.066509e-01	8.845500e-01	8.954687e-01	9.232891e-01	9.533972e-01	9.754482e-01	9.862577e-01	9.866612e-01	9.783719e-01	9.635563e-01	9.446085e-01	9.233597e-01	8.996912e-01	8.736623e-01	8.503392e-01	8.363301e-01	8.333227e-01	8.385653e-01	8.481987e-01	8.591963e-01	8.698681e-01	8.793091e-01	8.873781e-01	8.941603e-01	8.998911e-01	9.048522e-01	9.092594e-01	9.133717e-01	9.173248e-01	9.212554e-01	9.251812e-01	9.291100e-01	9.329602e-01	9.366566e-01	9.400766e-01	9.431259e-01	9.456885e-01	9.476816e-01	9.490123e-01	9.496306e-01	9.494858e-01	9.485611e-01	9.468412e-01	9.443354e-01	9.410552e-01	9.370320e-01	9.323083e-01	9.269316e-01	9.209760e-01	9.144545e-01	9.073610e-01	8.996625e-01	8.915893e-01	8.835153e-01	8.755950e-01	8.670534e-01	8.565000e-01	8.432672e-01	8.295687e-01	8.191388e-01	8.140846e-01	8.139002e-01	8.170964e-01	8.223633e-01	8.292233e-01	8.375682e-01	8.472489e-01	8.581730e-01	8.703584e-01	8.837708e-01	8.984730e-01	9.144633e-01	9.318030e-01	9.506024e-01	9.708947e-01	9.928111e-01	1.016577e+00	1.042275e+00	1.070279e+00	1.101099e+00	1.135103e+00	1.173169e+00	1.215719e+00	1.262025e+00	1.307441e+00	1.347985e+00	1.348000e+00	1.321566e+00	1.296587e+00	1.222688e+00	1.088565e+00	9.925810e-01	9.285325e-01	8.889228e-01	8.651003e-01	8.500306e-01	8.396704e-01	8.322368e-01	8.267684e-01	8.226020e-01	8.194914e-01	8.171013e-01	8.153550e-01	8.143085e-01	8.138321e-01	8.137907e-01	8.141857e-01	8.151519e-01	8.169838e-01	8.198475e-01	8.235903e-01	8.277841e-01	8.319983e-01	8.359561e-01	8.394717e-01	8.423909e-01	8.446761e-01	8.464395e-01	8.478173e-01	8.488724e-01	8.495794e-01	8.498808e-01	8.497441e-01	8.491510e-01	8.481123e-01	8.466360e-01	8.447259e-01	8.423895e-01	8.396141e-01	8.363957e-01	8.327977e-01	8.289465e-01	8.249409e-01	8.208141e-01	8.165531e-01	8.124298e-01	8.092578e-01	8.087670e-01	8.130499e-01	8.231973e-01	8.373002e-01	8.509316e-01	8.609900e-01	8.682300e-01	8.750026e-01	8.830692e-01	8.928865e-01	9.038322e-01	9.151704e-01	9.266069e-01	9.380768e-01	9.494652e-01	9.605140e-01	9.710300e-01	9.808221e-01	9.898018e-01	9.978748e-01	1.005118e+00	1.011602e+00	1.017501e+00	1.023054e+00	1.028524e+00	1.034214e+00	1.040453e+00	1.047615e+00	1.056185e+00	1.066665e+00	1.079560e+00	1.094966e+00	1.112356e+00	1.130266e+00	1.146692e+00	1.159285e+00	1.165739e+00	1.164037e+00	1.152873e+00	1.132106e+00	1.104084e+00	1.075016e+00	1.052681e+00	1.044525e+00	1.053656e+00	1.075736e+00	1.102840e+00	1.129821e+00	1.156220e+00	1.184514e+00	1.174612e+00	9.999828e-01	9.999865e-01	9.999802e-01	9.999681e-01	9.999565e-01	9.999428e-01	9.999207e-01	9.998874e-01	9.998482e-01	9.998133e-01	9.997886e-01	9.997931e-01	9.998272e-01	9.998982e-01	9.999597e-01	1.000009e+00	1.000035e+00	1.000050e+00	1.000058e+00	1.000061e+00	1.000061e+00	1.000061e+00	1.000060e+00	1.000061e+00	1.000061e+00	1.000063e+00	1.000067e+00	1.000071e+00	1.000077e+00	1.000086e+00	1.000096e+00	1.000109e+00	1.000120e+00	1.000134e+00	1.000140e+00	1.000135e+00	1.000120e+00	1.000098e+00	1.000082e+00	1.000073e+00	1.000072e+00	1.000070e+00	1.000066e+00	1.000059e+00	1.000049e+00	1.000036e+00	1.000029e+00	1.000023e+00	1.000002e+00	9.999790e-01	9.211925e-01	9.130043e-01	8.268280e-01	9.358436e-01	9.390996e-01	1.179026e+00	1.171997e+00	8.597306e-01	9.044319e-01	1.218003e+00	8.787292e-01	8.706871e-01	1.156908e+00	1.149772e+00	8.770647e-01	8.935536e-01	1.316508e+00	1.137678e+00	1.118477e+00	1.326885e+00	9.169009e-01	8.505645e-01	8.432119e-01	8.441457e-01	8.943229e-01	8.526909e-01	9.376340e-01	9.042837e-01	9.692894e-01	8.904314e-01	9.821571e-01	1.344721e+00	9.230294e-01	9.649616e-01	1.076677e+00	9.472293e-01	9.178518e-01	9.185644e-01	1.091090e+00	1.009804e+00	8.211850e-01	9.789860e-01	8.695873e-01	1.165293e+00	9.281993e-01	9.484786e-01	9.417310e-01	9.488066e-01	9.464084e-01	9.479303e-01	8.357133e-01	1.023182e+00	9.425275e-01	9.573017e-01	9.452424e-01	9.190933e-01	9.302519e-01	9.994951e-01	9.057053e-01	9.450890e-01	8.237855e-01	8.414219e-01	8.769612e-01	8.536862e-01	9.354159e-01	8.226178e-01	9.244634e-01	9.548821e-01	1.048823e+00	1.161359e+00	1.176686e+00	8.661691e-01	9.776210e-01	9.098210e-01	1.055645e+00	1.129702e+00	8.695039e-01	8.832680e-01	9.387356e-01	8.867111e-01	8.502119e-01	8.439837e-01	8.670136e-01	9.318787e-01	9.089107e-01	9.385508e-01	1.215932e+00	1.107044e+00	9.349910e-01	8.295368e-01	1.205247e+00	8.759165e-01	8.647177e-01	9.126973e-01	8.905768e-01	9.490014e-01	8.993998e-01	1.286303e+00	1.296488e+00	8.345137e-01	1.331576e+00	8.458338e-01	8.269853e-01	8.340176e-01	8.274426e-01	8.306770e-01	1.121223e+00	8.217011e-01	8.151401e-01	1.112779e+00	1.143698e+00	1.063287e+00	8.130658e-01	8.228596e-01	8.380063e-01	1.116641e+00	1.087363e+00	8.226830e-01	1.091960e+00	1.149522e+00	1.141783e+00	8.230383e-01	8.248665e-01	8.514974e-01	8.527152e-01	8.450296e-01	8.486229e-01	8.188190e-01	8.344274e-01	8.386174e-01	8.309798e-01	8.926710e-01	8.491254e-01	8.515161e-01	9.138864e-01	8.621962e-01	9.773395e-01	9.574258e-01	1.008830e+00	9.945292e-01	1.032645e+00	1.021020e+00	1.074432e+00	1.045867e+00	1.148579e+00	1.101750e+00	1.131052e+00	1.038908e+00	1.053875e+00	1.015105e+00	1.026778e+00	9.863114e-01	1.002027e+00	9.467416e-01	9.676741e-01	9.029499e-01	9.248817e-01	8.496314e-01	8.839517e-01	8.504730e-01	8.522749e-01	8.420810e-01	8.473623e-01	8.299892e-01	8.348389e-01	8.819944e-01	8.391990e-01	8.551836e-01	9.841442e-01	9.564302e-01	8.421044e-01	9.249328e-01	9.443208e-01	1.049492e+00	8.545268e-01	9.365861e-01	8.224597e-01	8.234809e-01	8.523169e-01	8.246890e-01	1.073774e+00	1.063708e+00	8.502610e-01	1.065635e+00	1.078763e+00	8.465895e-01	8.412792e-01	1.130568e+00	1.200244e+00	1.144305e+00	1.164886e+00	9.206944e-01	9.775844e-01	1.098860e+00	8.145965e-01	1.257262e+00	1.140359e+00	9.051592e-01	8.289166e-01	8.981849e-01	8.335830e-01	1.196967e+00	1.259726e+00	9.045680e-01	9.041436e-01	9.761923e-01	1.169993e+00	8.720600e-01	9.086639e-01	8.616179e-01	1.132787e+00	9.232225e-01	9.135298e-01	8.709438e-01	8.844397e-01	1.300995e+00	8.663749e-01	1.106800e+00	9.620106e-01	8.323905e-01	8.989805e-01	9.166352e-01	9.481015e-01	8.978108e-01	9.407204e-01	9.712744e-01	8.547637e-01	9.682113e-01	8.906544e-01	9.238189e-01	1.030868e+00	8.330720e-01	9.342756e-01	8.480127e-01	1.051604e+00	1.077861e+00	8.486434e-01	8.240108e-01	1.135423e+00	1.060137e+00	1.083763e+00	1.133575e+00	1.089002e+00	8.556963e-01	8.507806e-01	8.552316e-01	8.315533e-01	9.127984e-01	8.545333e-01	9.348537e-01	8.418996e-01	8.432745e-01	1.115824e+00	1.096609e+00	1.069830e+00	8.308980e-01	1.209405e+00	1.131378e+00	1.113053e+00	1.012429e+00	1.129913e+00	1.204236e+00	1.331150e+00	1.319433e+00	1.078310e+00	1.212056e+00	9.281361e-01	1.161926e+00	1.150358e+00	8.329552e-01	9.404344e-01	1.117857e+00	9.478199e-01	8.793613e-01	1.143253e+00	1.324569e+00	9.472630e-01	8.364907e-01	8.917900e-01	8.549479e-01	9.320844e-01	9.612179e-01	9.123649e-01	9.765520e-01	9.697912e-01	9.342406e-01	1.027422e+00	9.380490e-01	1.000258e+00	1.097036e+00	8.436172e-01	8.785157e-01	8.700785e-01	1.156081e+00	9.482747e-01	9.478104e-01	9.467265e-01	1.052038e+00	9.435735e-01	9.457606e-01	9.284259e-01	9.833434e-01	9.581135e-01	9.440971e-01	8.370124e-01	8.722359e-01	9.375253e-01	9.275114e-01	1.038399e+00	1.070521e+00	8.930967e-01	8.863117e-01	8.613404e-01	8.517670e-01	9.343611e-01	9.309856e-01	9.636372e-01	9.452467e-01	1.137256e+00	9.330951e-01	9.372180e-01	8.342529e-01	8.426784e-01	8.760063e-01	8.835572e-01	9.113098e-01	9.175441e-01	8.904631e-01	1.301908e+00	1.239713e+00	8.487392e-01	1.079711e+00	8.341718e-01	8.194552e-01	8.194516e-01	8.220116e-01	1.102226e+00	1.126841e+00	1.104575e+00	8.255995e-01	8.293155e-01	8.399372e-01	1.092477e+00	1.132595e+00	8.358818e-01	8.390441e-01	8.558255e-01	8.555759e-01	8.451237e-01	8.386437e-01	8.355772e-01	1.005960e+00	9.742086e-01	9.647820e-01	9.989515e-01	1.024805e+00	1.080668e+00	1.044022e+00	1.037188e+00	1.018798e+00	1.012576e+00	9.913071e-01	9.830584e-01	9.548920e-01	9.446646e-01	9.133434e-01	9.030840e-01	8.617459e-01	8.481455e-01	8.937365e-01	8.859485e-01	8.544678e-01	8.534465e-01	8.521165e-01	8.503533e-01	9.098448e-01	8.557713e-01	8.647277e-01	8.520745e-01	8.568967e-01	9.451078e-01	9.429752e-01	1.067876e+00	8.760437e-01	8.312422e-01	8.319919e-01	8.525420e-01	8.539294e-01	8.431953e-01	8.461242e-01	1.125808e+00	1.116069e+00	9.239441e-01	9.203444e-01	1.004528e+00	1.273823e+00	8.974622e-01	1.298244e+00	9.420793e-01	9.103937e-01	8.664709e-01	9.417980e-01	9.724839e-01	1.089581e+00	1.086699e+00	1.120202e+00	1.078994e+00	1.098083e+00	1.149109e+00	1.174370e+00	1.151626e+00	1.194974e+00	1.079875e+00	1.281351e+00	8.926895e-01	9.665392e-01	1.129605e+00	8.735459e-01	1.170212e+00	1.193363e+00	9.041816e-01	1.252774e+00	8.991254e-01	1.105993e+00	9.434694e-01	1.163168e+00	9.269749e-01	9.288637e-01	9.087230e-01	1.138802e+00	1.134051e+00	1.096288e+00	8.358796e-01	1.123094e+00	9.238689e-01	1.110207e+00	8.282133e-01	8.584365e-01	8.531271e-01	8.512699e-01	8.463107e-01	1.162970e+00	1.274672e+00	1.180635e+00	9.320122e-01	1.237059e+00	9.984761e-01	9.059071e-01	1.311959e+00	8.416029e-01	9.477000e-01	1.055163e+00	9.905981e-01	1.029079e+00	1.003526e+00	9.338094e-01	1.089267e+00	1.123407e+00	1.065480e+00	1.056873e+00	8.549632e-01	8.576253e-01	8.588213e-01	8.399203e-01	9.166167e-01	9.128159e-01	8.659463e-01	9.581395e-01	8.484772e-01	1.105222e+00	1.122326e+00	1.031139e+00	1.130035e+00	1.223625e+00	1.308308e+00	1.031635e+00	1.180640e+00	1.173887e+00	1.029466e+00	1.117810e+00	8.821569e-01	9.472141e-01	8.390832e-01	8.916038e-01	9.113156e-01	9.558597e-01	9.658113e-01	9.357339e-01	9.202710e-01	9.722840e-01	9.746118e-01	9.551558e-01	9.707496e-01	1.102195e+00	8.796145e-01	8.725232e-01	1.144986e+00	9.475920e-01	9.468802e-01	9.444169e-01	9.461152e-01	1.009881e+00	9.585881e-01	9.528168e-01	8.522623e-01	8.458097e-01	9.393108e-01	9.365382e-01	1.057558e+00	1.081879e+00	8.933427e-01	8.868245e-01	8.806475e-01	8.696346e-01	8.601042e-01	9.335152e-01	9.303405e-01	9.897038e-01	9.705293e-01	9.524521e-01	9.315213e-01	9.356124e-01	9.391302e-01	8.415431e-01	8.461572e-01	8.551118e-01	8.760933e-01	8.841972e-01	9.164245e-01	9.219180e-01	8.910280e-01	8.624464e-01	8.254529e-01	8.262871e-01	1.113797e+00	8.290760e-01	8.324272e-01	8.357875e-01	8.422981e-01	1.094818e+00	8.505084e-01	8.558191e-01	8.588915e-01	8.590201e-01	8.456465e-01	8.432364e-01	8.412581e-01	9.720454e-01	1.084782e+00	1.074785e+00	1.049047e+00	1.041936e+00	1.035415e+00	1.022857e+00	1.016675e+00	1.010270e+00	9.964455e-01	9.888405e-01	9.806812e-01	9.629456e-01	9.534483e-01	9.437143e-01	9.139381e-01	8.615454e-01	8.480505e-01	9.044409e-01	8.959905e-01	8.889011e-01	8.583471e-01	8.576069e-01	8.566310e-01	8.553391e-01	8.535978e-01	8.708539e-01	8.815664e-01	8.630614e-01	8.652479e-01	8.748036e-01	9.456612e-01	9.439250e-01	8.948832e-01	9.112644e-01	8.397242e-01	8.409073e-01	8.431447e-01	8.564754e-01	8.454421e-01	8.483961e-01	8.509724e-01	1.119441e+00	1.112994e+00	1.104543e+00	9.270421e-01	9.236718e-01	9.201999e-01	8.974588e-01	9.040225e-01	1.273253e+00	9.014891e-01	1.116936e+00	1.094727e+00	9.408732e-01	1.255134e+00	1.156723e+00	9.719105e-01	9.687172e-01	1.035114e+00	1.099225e+00	8.347207e-01	1.251050e+00	9.780657e-01	1.180776e+00	1.112695e+00	1.107271e+00	1.166483e+00	9.240171e-01	1.126159e+00	1.179297e+00	1.181695e+00	8.731177e-01	8.530748e-01	1.080478e+00	9.431578e-01	9.145247e-01	9.469748e-01	9.158871e-01	1.092590e+00	8.738044e-01	1.113522e+00	1.111943e+00	1.001608e+00	8.551965e-01	8.622118e-01	1.116866e+00	8.617564e-01	9.415179e-01	1.135099e+00	1.093943e+00	1.141500e+00	1.048676e+00	1.103973e+00	9.089558e-01	1.206925e+00	9.049905e-01	8.995184e-01	1.129188e+00	1.126667e+00	1.155001e+00	1.027032e+00	8.383837e-01	8.593647e-01	1.213086e+00	1.008691e+00	9.342666e-01	1.061804e+00	8.578209e-01	8.606326e-01	8.615737e-01	9.166888e-01	9.133610e-01	1.099321e+00	1.043978e+00	1.084361e+00	1.231704e+00	1.284706e+00	1.057232e+00	1.025400e+00	1.104290e+00	8.855818e-01	9.121117e-01	9.279585e-01	9.528448e-01	9.622281e-01	9.435328e-01	9.285214e-01	9.690387e-01	9.729696e-01	9.737944e-01	9.815621e-01	1.001553e+00	8.817934e-01	8.782449e-01	1.134815e+00	9.471793e-01	9.468214e-01	9.449798e-01	9.462463e-01	9.667196e-01	9.698744e-01	8.623651e-01	8.557641e-01	9.385523e-01	1.069884e+00	1.088665e+00	8.947603e-01	8.881217e-01	8.894862e-01	8.788667e-01	8.700646e-01	9.357672e-01	9.330663e-01	1.015227e+00	9.957996e-01	9.769289e-01	9.594651e-01	9.303320e-01	9.343061e-01	9.377467e-01	9.407244e-01	8.542522e-01	8.594548e-01	8.676136e-01	8.769233e-01	8.852279e-01	9.259787e-01	9.211069e-01	8.923191e-01	8.326884e-01	1.104749e+00	1.109570e+00	8.340564e-01	8.365887e-01	8.395352e-01	8.424985e-01	8.454318e-01	8.684382e-01	8.766419e-01	8.625418e-01	8.626091e-01	8.527894e-01	8.507116e-01	8.494170e-01	8.486902e-01	1.086871e+00	1.078373e+00	1.070007e+00	1.054085e+00	1.046957e+00	1.040350e+00	1.033201e+00	1.021615e+00	1.014577e+00	1.008240e+00	9.943209e-01	9.869835e-01	9.787880e-01	9.707202e-01	9.615750e-01	9.529686e-01	9.431140e-01	8.493614e-01	8.607210e-01	9.154808e-01	9.058700e-01	8.993085e-01	8.916169e-01	8.623900e-01	8.619273e-01	8.611740e-01	8.601855e-01	8.589147e-01	8.572249e-01	8.861236e-01	8.980118e-01	8.757408e-01	8.822504e-01	8.951292e-01	9.459308e-01	9.447353e-01	9.429956e-01	9.130272e-01	9.308586e-01	9.520272e-01	8.487430e-01	8.500092e-01	8.529312e-01	8.568585e-01	8.482887e-01	8.510829e-01	8.537775e-01	8.559542e-01	1.094941e+00	1.107981e+00	1.102295e+00	9.298655e-01	9.269914e-01	9.235187e-01	9.204971e-01	8.983947e-01	9.044064e-01	9.102040e-01	1.124210e+00	1.113752e+00	1.043997e+00	1.170066e+00	1.147144e+00	9.038758e-01	9.109668e-01	1.169505e+00	1.096609e+00	1.213002e+00	1.058708e+00	8.660754e-01	8.599099e-01	1.022894e+00	1.122115e+00	1.225966e+00	1.288010e+00	1.289547e+00	1.274396e+00	1.230240e+00	1.135675e+00	8.628764e-01	1.061862e+00	1.115976e+00	9.777646e-01	8.850458e-01	9.440806e-01	1.105120e+00	1.087728e+00	1.102205e+00	8.667147e-01	8.483781e-01	9.295395e-01	9.960682e-01	8.418351e-01	9.412710e-01	8.606617e-01	1.099773e+00	9.237250e-01	1.156213e+00	1.095427e+00	1.284192e+00	1.176896e+00	1.168937e+00	9.752996e-01	1.039114e+00	1.248335e+00	9.946425e-01	1.191747e+00	1.105124e+00	1.155501e+00	1.170731e+00	1.171527e+00	1.102068e+00	9.250607e-01	9.206631e-01	1.096359e+00	8.863827e-01	1.104636e+00	1.105402e+00	9.119952e-01	1.192266e+00	8.636310e-01	8.652334e-01	8.654352e-01	9.190684e-01	1.053631e+00	1.087233e+00	1.259594e+00	1.080784e+00	9.299696e-01	9.406494e-01	9.516877e-01	9.604003e-01	9.372326e-01	9.522616e-01	9.676778e-01	9.723341e-01	9.750975e-01	9.762782e-01	1.006882e+00	1.025255e+00	8.889655e-01	1.124456e+00	9.467417e-01	9.466745e-01	9.453475e-01	9.461598e-01	9.819902e-01	9.915436e-01	8.726992e-01	8.656063e-01	1.078400e+00	1.093011e+00	8.964132e-01	8.989574e-01	8.876973e-01	8.818482e-01	9.366901e-01	1.020371e+00	1.001714e+00	9.836707e-01	9.677909e-01	9.293876e-01	9.331429e-01	9.365619e-01	9.395338e-01	9.419573e-01	8.656883e-01	8.717004e-01	8.776051e-01	8.859813e-01	8.928845e-01	1.099088e+00	1.101889e+00	1.104114e+00	8.396647e-01	8.423733e-01	8.436011e-01	8.470589e-01	8.487959e-01	8.816266e-01	8.911048e-01	8.665309e-01	8.662324e-01	8.572833e-01	8.575411e-01	8.576657e-01	1.079901e+00	1.073152e+00	1.065378e+00	1.058362e+00	1.051190e+00	1.044667e+00	1.037727e+00	1.028281e+00	1.019709e+00	1.009233e+00	9.813186e-01	9.651652e-01	9.477397e-01	9.126350e-01	8.989926e-01	8.668443e-01	8.660157e-01	8.661536e-01	8.647468e-01	8.646094e-01	8.632971e-01	8.617231e-01	9.021432e-01	9.146820e-01	8.905925e-01	8.985024e-01	9.142848e-01	9.460358e-01	9.444622e-01	9.302023e-01	9.491673e-01	9.701922e-01	8.584313e-01	8.602284e-01	8.635664e-01	8.690102e-01	8.749035e-01	8.520910e-01	8.537992e-01	8.568384e-01	8.594654e-01	1.098700e+00	1.092510e+00	9.312923e-01	9.254261e-01	8.996826e-01	9.049929e-01	9.107651e-01	9.155289e-01	1.163110e+00	1.143324e+00	1.158527e+00	1.245433e+00	1.174413e+00	1.070845e+00	1.099474e+00	1.174480e+00	1.098208e+00	1.137591e+00	1.095783e+00	1.237626e+00	1.060191e+00	1.138871e+00	8.652254e-01	1.171136e+00	1.060274e+00	1.145053e+00	1.118915e+00	1.056783e+00	9.431400e-01	1.096868e+00	9.265659e-01	9.912963e-01	9.832741e-01	9.299626e-01	9.205666e-01	8.772700e-01	1.210548e+00	9.450777e-01	9.474447e-01	9.341808e-01	8.650495e-01	1.095900e+00	1.082402e+00	1.202378e+00	1.033502e+00	1.042050e+00	1.162749e+00	1.095725e+00	1.285247e+00	1.225690e+00	1.106216e+00	9.048740e-01	8.529095e-01	8.481465e-01	1.103640e+00	1.167253e+00	1.118848e+00	1.262344e+00	1.171697e+00	1.042732e+00	1.195288e+00	1.177507e+00	8.834216e-01	1.079658e+00	1.098104e+00	1.095820e+00	8.650486e-01	8.678907e-01	8.696672e-01	9.115567e-01	1.088457e+00	1.117198e+00	1.099903e+00	9.470698e-01	9.633326e-01	9.608110e-01	9.748601e-01	9.803047e-01	1.026957e+00	1.115231e+00	9.463061e-01	1.000440e+00	1.012511e+00	8.804220e-01	1.083891e+00	8.989061e-01	8.954359e-01	9.040327e-01	8.920115e-01	9.397074e-01	1.025221e+00	1.006677e+00	9.896607e-01	9.779207e-01	9.338389e-01	9.396117e-01	9.431755e-01	8.839117e-01	8.965920e-01	1.096778e+00	1.097749e+00	8.503336e-01	8.544749e-01	9.056669e-01	8.706134e-01	8.666992e-01	1.015636e+00	1.070676e+00	1.057551e+00	1.044884e+00	1.034094e+00	1.025054e+00	1.004084e+00	9.907523e-01	9.761403e-01	9.603562e-01	9.433396e-01	9.265012e-01	9.123368e-01	8.996901e-01	8.706991e-01	8.699731e-01	8.694204e-01	8.673365e-01	8.669094e-01	9.183775e-01	9.316215e-01	8.984575e-01	9.105206e-01	9.311934e-01	9.462622e-01	9.452083e-01	9.468278e-01	9.655225e-01	9.863887e-01	1.008582e+00	8.686656e-01	8.710038e-01	8.747676e-01	8.808482e-01	8.893361e-01	8.940652e-01	8.585769e-01	8.626974e-01	1.094917e+00	1.090163e+00	9.351448e-01	9.243720e-01	9.182842e-01	9.085847e-01	9.182136e-01	1.108271e+00	1.162006e+00	1.157770e+00	1.125559e+00	1.004723e+00	1.101596e+00	1.167402e+00	1.131649e+00	1.164363e+00	1.113950e+00	1.144414e+00	1.121958e+00	1.088416e+00	1.182363e+00	1.216935e+00	1.093327e+00	9.076629e-01	8.686848e-01	1.114996e+00	9.825577e-01	1.078618e+00	9.142773e-01	1.064926e+00	1.148192e+00	9.442856e-01	1.006818e+00	9.290766e-01	9.419929e-01	1.065726e+00	1.076998e+00	1.061547e+00	1.046496e+00	1.163970e+00	1.095778e+00	1.098037e+00	1.092592e+00	8.733059e-01	8.986706e-01	9.181746e-01	9.686443e-01	1.140105e+00	1.147808e+00	1.261456e+00	1.053766e+00	1.092987e+00	1.168952e+00	1.087698e+00	1.159388e+00	1.130932e+00	9.444178e-01	1.205362e+00	9.588049e-01	9.432543e-01	1.094383e+00	1.221862e+00	1.041553e+00	1.097512e+00	9.125127e-01	1.238759e+00	1.170552e+00	9.845351e-01	1.192745e+00	1.179256e+00	8.669644e-01	1.096552e+00	1.090860e+00	8.819655e-01	8.711795e-01	9.126305e-01	1.112167e+00	1.135484e+00	9.609136e-01	9.734463e-01	9.885157e-01	9.962352e-01	1.107174e+00	9.457127e-01	1.017639e+00	1.029252e+00	9.418050e-01	9.157036e-01	9.312963e-01	9.049581e-01	9.282912e-01	9.135168e-01	9.007495e-01	1.028599e+00	9.317552e-01	9.375895e-01	8.916798e-01	8.898228e-01	9.238076e-01	1.093664e+00	8.581811e-01	8.563511e-01	8.757648e-01	1.073160e+00	1.062123e+00	1.021208e+00	1.050471e+00	1.039694e+00	1.030248e+00	1.011040e+00	9.991134e-01	9.858526e-01	9.715874e-01	9.561493e-01	9.400203e-01	9.253239e-01	8.747705e-01	8.755928e-01	8.757904e-01	8.753838e-01	8.735904e-01	8.739278e-01	9.335564e-01	9.482138e-01	9.068218e-01	9.471305e-01	9.462801e-01	9.457985e-01	9.628016e-01	9.800730e-01	1.000016e+00	1.020323e+00	1.041940e+00	8.796458e-01	8.835809e-01	8.872438e-01	8.930047e-01	9.019396e-01	8.587151e-01	8.621270e-01	8.656571e-01	1.088190e+00	1.081923e+00	9.384168e-01	9.339805e-01	8.962000e-01	9.068791e-01	9.168733e-01	9.248784e-01	1.142908e+00	1.150130e+00	1.147514e+00	1.110654e+00	1.145987e+00	1.129011e+00	1.106941e+00	1.021281e+00	1.166484e+00	1.114853e+00	1.111634e+00	1.051540e+00	1.157990e+00	1.089139e+00	8.790067e-01	1.133387e+00	1.137532e+00	1.108297e+00	1.162668e+00	1.068183e+00	9.108497e-01	1.007575e+00	9.914666e-01	9.140001e-01	1.128948e+00	1.122338e+00	1.118639e+00	1.166730e+00	1.151971e+00	8.983927e-01	9.