# vtk DataFile Version 3.0
vtk output
ASCII
DATASET UNSTRUCTURED_GRID
POINTS 200 float
9.997500e-01	-3.633567e-05	0.0	9.990000e-01	-1.456765e-04	0.0	9.977600e-01	-3.297396e-04	0.0	9.960200e-01	-6.019159e-04	0.0	9.937800e-01	-9.900577e-04	0.0	9.910500e-01	-1.539418e-03	0.0	9.878400e-01	-2.307686e-03	0.0	9.841300e-01	-3.355643e-03	0.0	9.799500e-01	-4.698970e-03	0.0	9.752800e-01	-6.311019e-03	0.0	9.701500e-01	-8.083882e-03	0.0	9.645400e-01	-9.880915e-03	0.0	9.584700e-01	-1.154829e-02	0.0	9.519400e-01	-1.298297e-02	0.0	9.449600e-01	-1.415526e-02	0.0	9.375400e-01	-1.511426e-02	0.0	9.296900e-01	-1.596207e-02	0.0	9.214000e-01	-1.681712e-02	0.0	9.127000e-01	-1.777320e-02	0.0	9.035800e-01	-1.888722e-02	0.0	8.940600e-01	-2.016723e-02	0.0	8.841500e-01	-2.158490e-02	0.0	8.738500e-01	-2.309015e-02	0.0	8.631800e-01	-2.462134e-02	0.0	8.521600e-01	-2.612001e-02	0.0	8.407700e-01	-2.754354e-02	0.0	8.290500e-01	-2.885557e-02	0.0	8.170100e-01	-3.003857e-02	0.0	8.046400e-01	-3.108943e-02	0.0	7.919700e-01	-3.201144e-02	0.0	7.790100e-01	-3.281668e-02	0.0	7.657800e-01	-3.352036e-02	0.0	7.522800e-01	-3.413970e-02	0.0	7.385200e-01	-3.469019e-02	0.0	7.245300e-01	-3.518426e-02	0.0	7.103200e-01	-3.563229e-02	0.0	6.958900e-01	-3.604182e-02	0.0	6.812700e-01	-3.641695e-02	0.0	6.664700e-01	-3.676050e-02	0.0	6.515000e-01	-3.707414e-02	0.0	6.363800e-01	-3.735898e-02	0.0	6.211300e-01	-3.761657e-02	0.0	6.057600e-01	-3.784942e-02	0.0	5.902800e-01	-3.806107e-02	0.0	5.747100e-01	-3.825606e-02	0.0	5.590600e-01	-3.843999e-02	0.0	5.433600e-01	-3.861892e-02	0.0	5.276100e-01	-3.879949e-02	0.0	5.118400e-01	-3.898784e-02	0.0	4.960500e-01	-3.918985e-02	0.0	4.802700e-01	-3.941001e-02	0.0	4.645100e-01	-3.965173e-02	0.0	4.487800e-01	-3.991691e-02	0.0	4.331100e-01	-4.020541e-02	0.0	4.175000e-01	-4.051594e-02	0.0	4.019700e-01	-4.084517e-02	0.0	3.865400e-01	-4.118829e-02	0.0	3.712300e-01	-4.153911e-02	0.0	3.560400e-01	-4.189089e-02	0.0	3.409900e-01	-4.223557e-02	0.0	3.261100e-01	-4.256434e-02	0.0	3.114000e-01	-4.286876e-02	0.0	2.968700e-01	-4.314006e-02	0.0	2.825500e-01	-4.336925e-02	0.0	2.684500e-01	-4.354802e-02	0.0	2.545700e-01	-4.366853e-02	0.0	2.409400e-01	-4.372316e-02	0.0	2.275700e-01	-4.370512e-02	0.0	2.144700e-01	-4.360817e-02	0.0	2.016600e-01	-4.342684e-02	0.0	1.891400e-01	-4.315600e-02	0.0	1.769300e-01	-4.279147e-02	0.0	1.650400e-01	-4.232954e-02	0.0	1.534900e-01	-4.176764e-02	0.0	1.422900e-01	-4.110357e-02	0.0	1.314400e-01	-4.033503e-02	0.0	1.209500e-01	-3.946079e-02	0.0	1.108500e-01	-3.848242e-02	0.0	1.011300e-01	-3.739865e-02	0.0	9.181000e-02	-3.621195e-02	0.0	8.290000e-02	-3.492486e-02	0.0	7.440000e-02	-3.353924e-02	0.0	6.633000e-02	-3.206115e-02	0.0	5.869000e-02	-3.049433e-02	0.0	5.149000e-02	-2.884529e-02	0.0	4.474000e-02	-2.712178e-02	0.0	3.844000e-02	-2.532990e-02	0.0	3.260000e-02	-2.347910e-02	0.0	2.723000e-02	-2.158004e-02	0.0	2.232000e-02	-1.963625e-02	0.0	1.790000e-02	-1.766729e-02	0.0	1.395000e-02	-1.567140e-02	0.0	1.049000e-02	-1.366404e-02	0.0	7.520000e-03	-1.165003e-02	0.0	5.040000e-03	-9.630331e-03	0.0	3.050000e-03	-7.599281e-03	0.0	1.560000e-03	-5.554695e-03	0.0	5.600000e-04	-3.449057e-03	0.0	6.000000e-05	-1.209973e-03	0.0	0.000000e+00	0.000000e+00	0.0	6.000000e-05	1.166006e-03	0.0	5.600000e-04	3.217696e-03	0.0	1.560000e-03	5.046415e-03	0.0	3.050000e-03	6.742286e-03	0.0	5.040000e-03	8.361346e-03	0.0	7.520000e-03	9.918133e-03	0.0	1.049000e-02	1.142833e-02	0.0	1.395000e-02	1.290119e-02	0.0	1.790000e-02	1.434229e-02	0.0	2.232000e-02	1.574892e-02	0.0	2.723000e-02	1.713020e-02	0.0	3.260000e-02	1.847947e-02	0.0	3.844000e-02	1.980097e-02	0.0	4.474000e-02	2.109332e-02	0.0	5.149000e-02	2.235542e-02	0.0	5.869000e-02	2.358807e-02	0.0	6.633000e-02	2.479024e-02	0.0	7.440000e-02	2.596118e-02	0.0	8.290000e-02	2.710171e-02	0.0	9.181000e-02	2.821010e-02	0.0	1.011300e-01	2.928742e-02	0.0	1.108500e-01	3.033356e-02	0.0	1.209500e-01	3.134763e-02	0.0	1.314400e-01	3.233183e-02	0.0	1.422900e-01	3.328457e-02	0.0	1.534900e-01	3.420637e-02	0.0	1.650400e-01	3.509849e-02	0.0	1.769300e-01	3.596129e-02	0.0	1.891400e-01	3.679437e-02	0.0	2.016600e-01	3.759802e-02	0.0	2.144700e-01	3.837179e-02	0.0	2.275700e-01	3.911622e-02	0.0	2.409400e-01	3.983042e-02	0.0	2.545700e-01	4.051378e-02	0.0	2.684500e-01	4.116531e-02	0.0	2.825500e-01	4.178275e-02	0.0	2.968700e-01	4.236482e-02	0.0	3.114000e-01	4.290925e-02	0.0	3.261100e-01	4.341261e-02	0.0	3.409900e-01	4.387186e-02	0.0	3.560400e-01	4.428370e-02	0.0	3.712300e-01	4.464363e-02	0.0	3.865400e-01	4.494719e-02	0.0	4.019700e-01	4.519007e-02	0.0	4.175000e-01	4.536736e-02	0.0	4.331100e-01	4.547410e-02	0.0	4.487800e-01	4.550546e-02	0.0	4.645100e-01	4.545664e-02	0.0	4.802700e-01	4.532298e-02	0.0	4.960500e-01	4.510001e-02	0.0	5.118400e-01	4.478337e-02	0.0	5.276100e-01	4.436948e-02	0.0	5.433600e-01	4.385441e-02	0.0	5.590600e-01	4.323559e-02	0.0	5.747100e-01	4.250998e-02	0.0	5.902800e-01	4.167664e-02	0.0	6.057600e-01	4.073487e-02	0.0	6.211300e-01	3.968591e-02	0.0	6.363800e-01	3.853209e-02	0.0	6.515000e-01	3.727771e-02	0.0	6.664700e-01	3.593018e-02	0.0	6.812700e-01	3.449957e-02	0.0	6.958900e-01	3.299750e-02	0.0	7.103200e-01	3.143760e-02	0.0	7.245300e-01	2.983725e-02	0.0	7.385200e-01	2.821118e-02	0.0	7.522800e-01	2.657470e-02	0.0	7.657800e-01	2.494388e-02	0.0	7.790100e-01	2.332972e-02	0.0	7.919700e-01	2.173843e-02	0.0	8.046400e-01	2.017477e-02	0.0	8.170100e-01	1.863855e-02	0.0	8.290500e-01	1.712899e-02	0.0	8.407700e-01	1.563813e-02	0.0	8.521600e-01	1.415912e-02	0.0	8.631800e-01	1.268850e-02	0.0	8.738500e-01	1.121483e-02	0.0	8.841500e-01	9.732641e-03	0.0	8.940600e-01	8.239504e-03	0.0	9.035800e-01	6.737017e-03	0.0	9.127000e-01	5.241710e-03	0.0	9.214000e-01	3.792664e-03	0.0	9.296900e-01	2.449212e-03	0.0	9.375400e-01	1.298503e-03	0.0	9.449600e-01	4.269695e-04	0.0	9.519400e-01	-9.666288e-05	0.0	9.584700e-01	-2.543329e-04	0.0	9.645400e-01	-9.681425e-05	0.0	9.701500e-01	2.628064e-04	0.0	9.752800e-01	6.783968e-04	0.0	9.799500e-01	1.018752e-03	0.0	9.841300e-01	1.197870e-03	0.0	9.878400e-01	1.196095e-03	0.0	9.910500e-01	1.046809e-03	0.0	9.937800e-01	8.108988e-04	0.0	9.960200e-01	5.521546e-04	0.0	9.977600e-01	3.205026e-04	0.0	9.990000e-01	1.448331e-04	0.0	9.997500e-01	3.632230e-05	0.0	1.000000e+00	0.000000e+00	0.0	
CELLS 200	600
2	199	0	2	0	1	2	1	2	2	2	3	2	3	4	2	4	5	2	5	6	2	6	7	2	7	8	2	8	9	2	9	10	2	10	11	2	11	12	2	12	13	2	13	14	2	14	15	2	15	16	2	16	17	2	17	18	2	18	19	2	19	20	2	20	21	2	21	22	2	22	23	2	23	24	2	24	25	2	25	26	2	26	27	2	27	28	2	28	29	2	29	30	2	30	31	2	31	32	2	32	33	2	33	34	2	34	35	2	35	36	2	36	37	2	37	38	2	38	39	2	39	40	2	40	41	2	41	42	2	42	43	2	43	44	2	44	45	2	45	46	2	46	47	2	47	48	2	48	49	2	49	50	2	50	51	2	51	52	2	52	53	2	53	54	2	54	55	2	55	56	2	56	57	2	57	58	2	58	59	2	59	60	2	60	61	2	61	62	2	62	63	2	63	64	2	64	65	2	65	66	2	66	67	2	67	68	2	68	69	2	69	70	2	70	71	2	71	72	2	72	73	2	73	74	2	74	75	2	75	76	2	76	77	2	77	78	2	78	79	2	79	80	2	80	81	2	81	82	2	82	83	2	83	84	2	84	85	2	85	86	2	86	87	2	87	88	2	88	89	2	89	90	2	90	91	2	91	92	2	92	93	2	93	94	2	94	95	2	95	96	2	96	97	2	97	98	2	98	99	2	99	100	2	100	101	2	101	102	2	102	103	2	103	104	2	104	105	2	105	106	2	106	107	2	107	108	2	108	109	2	109	110	2	110	111	2	111	112	2	112	113	2	113	114	2	114	115	2	115	116	2	116	117	2	117	118	2	118	119	2	119	120	2	120	121	2	121	122	2	122	123	2	123	124	2	124	125	2	125	126	2	126	127	2	127	128	2	128	129	2	129	130	2	130	131	2	131	132	2	132	133	2	133	134	2	134	135	2	135	136	2	136	137	2	137	138	2	138	139	2	139	140	2	140	141	2	141	142	2	142	143	2	143	144	2	144	145	2	145	146	2	146	147	2	147	148	2	148	149	2	149	150	2	150	151	2	151	152	2	152	153	2	153	154	2	154	155	2	155	156	2	156	157	2	157	158	2	158	159	2	159	160	2	160	161	2	161	162	2	162	163	2	163	164	2	164	165	2	165	166	2	166	167	2	167	168	2	168	169	2	169	170	2	170	171	2	171	172	2	172	173	2	173	174	2	174	175	2	175	176	2	176	177	2	177	178	2	178	179	2	179	180	2	180	181	2	181	182	2	182	183	2	183	184	2	184	185	2	185	186	2	186	187	2	187	188	2	188	189	2	189	190	2	190	191	2	191	192	2	192	193	2	193	194	2	194	195	2	195	196	2	196	197	2	197	198	2	198	199	
CELL_TYPES 200
3	3	3	3	3	3	3	3	3	3	3	3	3	3	3	3	3	3	3	3	3	3	3	3	3	3	3	3	3	3	3	3	3	3	3	3	3	3	3	3	3	3	3	3	3	3	3	3	3	3	3	3	3	3	3	3	3	3	3	3	3	3	3	3	3	3	3	3	3	3	3	3	3	3	3	3	3	3	3	3	3	3	3	3	3	3	3	3	3	3	3	3	3	3	3	3	3	3	3	3	3	3	3	3	3	3	3	3	3	3	3	3	3	3	3	3	3	3	3	3	3	3	3	3	3	3	3	3	3	3	3	3	3	3	3	3	3	3	3	3	3	3	3	3	3	3	3	3	3	3	3	3	3	3	3	3	3	3	3	3	3	3	3	3	3	3	3	3	3	3	3	3	3	3	3	3	3	3	3	3	3	3	3	3	3	3	3	3	3	3	3	3	3	3	3	3	3	3	3	3	
POINT_DATA 200

SCALARS Conservative_1 float 1
LOOKUP_TABLE default
1.194908e+00	1.179153e+00	1.172168e+00	1.169541e+00	1.168219e+00	1.165348e+00	1.157033e+00	1.140439e+00	1.113037e+00	1.074315e+00	1.024619e+00	9.626864e-01	9.066509e-01	8.845500e-01	8.954687e-01	9.232891e-01	9.533972e-01	9.754482e-01	9.862577e-01	9.866612e-01	9.783719e-01	9.635563e-01	9.446085e-01	9.233597e-01	8.996912e-01	8.736623e-01	8.503392e-01	8.363301e-01	8.333227e-01	8.385653e-01	8.481987e-01	8.591963e-01	8.698681e-01	8.793091e-01	8.873781e-01	8.941603e-01	8.998911e-01	9.048522e-01	9.092594e-01	9.133717e-01	9.173248e-01	9.212554e-01	9.251812e-01	9.291100e-01	9.329602e-01	9.366566e-01	9.400766e-01	9.431259e-01	9.456885e-01	9.476816e-01	9.490123e-01	9.496306e-01	9.494858e-01	9.485611e-01	9.468412e-01	9.443354e-01	9.410552e-01	9.370320e-01	9.323083e-01	9.269316e-01	9.209760e-01	9.144545e-01	9.073610e-01	8.996625e-01	8.915893e-01	8.835153e-01	8.755950e-01	8.670534e-01	8.565000e-01	8.432672e-01	8.295687e-01	8.191388e-01	8.140846e-01	8.139002e-01	8.170964e-01	8.223633e-01	8.292233e-01	8.375682e-01	8.472489e-01	8.581730e-01	8.703584e-01	8.837708e-01	8.984730e-01	9.144633e-01	9.318030e-01	9.506024e-01	9.708947e-01	9.928111e-01	1.016577e+00	1.042275e+00	1.070279e+00	1.101099e+00	1.135103e+00	1.173169e+00	1.215719e+00	1.262025e+00	1.307441e+00	1.347985e+00	1.348000e+00	1.321566e+00	1.296587e+00	1.222688e+00	1.088565e+00	9.925810e-01	9.285325e-01	8.889228e-01	8.651003e-01	8.500306e-01	8.396704e-01	8.322368e-01	8.267684e-01	8.226020e-01	8.194914e-01	8.171013e-01	8.153550e-01	8.143085e-01	8.138321e-01	8.137907e-01	8.141857e-01	8.151519e-01	8.169838e-01	8.198475e-01	8.235903e-01	8.277841e-01	8.319983e-01	8.359561e-01	8.394717e-01	8.423909e-01	8.446761e-01	8.464395e-01	8.478173e-01	8.488724e-01	8.495794e-01	8.498808e-01	8.497441e-01	8.491510e-01	8.481123e-01	8.466360e-01	8.447259e-01	8.423895e-01	8.396141e-01	8.363957e-01	8.327977e-01	8.289465e-01	8.249409e-01	8.208141e-01	8.165531e-01	8.124298e-01	8.092578e-01	8.087670e-01	8.130499e-01	8.231973e-01	8.373002e-01	8.509316e-01	8.609900e-01	8.682300e-01	8.750026e-01	8.830692e-01	8.928865e-01	9.038322e-01	9.151704e-01	9.266069e-01	9.380768e-01	9.494652e-01	9.605140e-01	9.710300e-01	9.808221e-01	9.898018e-01	9.978748e-01	1.005118e+00	1.011602e+00	1.017501e+00	1.023054e+00	1.028524e+00	1.034214e+00	1.040453e+00	1.047615e+00	1.056185e+00	1.066665e+00	1.079560e+00	1.094966e+00	1.112356e+00	1.130266e+00	1.146692e+00	1.159285e+00	1.165739e+00	1.164037e+00	1.152873e+00	1.132106e+00	1.104084e+00	1.075016e+00	1.052681e+00	1.044525e+00	1.053656e+00	1.075736e+00	1.102840e+00	1.129821e+00	1.156220e+00	1.184514e+00	1.174612e+00	
SCALARS Conservative_2 float 1
LOOKUP_TABLE default
7.156627e-01	7.377002e-01	7.504537e-01	7.550446e-01	7.547110e-01	7.548024e-01	7.588277e-01	7.711295e-01	7.942437e-01	8.280267e-01	8.691104e-01	9.104098e-01	9.416146e-01	9.619484e-01	9.712488e-01	9.690382e-01	9.607771e-01	9.517256e-01	9.449315e-01	9.425491e-01	9.446081e-01	9.499238e-01	9.567598e-01	9.637571e-01	9.700436e-01	9.746645e-01	9.768900e-01	9.778051e-01	9.784143e-01	9.789913e-01	9.794405e-01	9.795615e-01	9.794491e-01	9.789847e-01	9.783692e-01	9.776339e-01	9.768852e-01	9.761724e-01	9.754120e-01	9.746649e-01	9.738461e-01	9.729955e-01	9.720553e-01	9.710759e-01	9.700362e-01	9.690043e-01	9.679849e-01	9.670559e-01	9.662336e-01	9.655854e-01	9.651236e-01	9.649112e-01	9.649422e-01	9.652414e-01	9.657953e-01	9.666041e-01	9.676313e-01	9.688518e-01	9.702160e-01	9.716662e-01	9.731779e-01	9.746769e-01	9.761727e-01	9.775634e-01	9.787979e-01	9.797054e-01	9.803733e-01	9.808757e-01	9.813805e-01	9.814998e-01	9.808746e-01	9.796818e-01	9.786523e-01	9.779029e-01	9.774652e-01	9.769760e-01	9.764098e-01	9.755636e-01	9.741290e-01	9.719413e-01	9.688910e-01	9.646610e-01	9.590322e-01	9.516319e-01	9.420585e-01	9.297771e-01	9.141504e-01	8.945131e-01	8.698359e-01	8.386774e-01	7.993117e-01	7.492200e-01	6.845382e-01	6.008498e-01	4.920577e-01	3.542467e-01	1.976525e-01	5.392152e-02	-1.066830e-02	6.917777e-03	7.783019e-02	2.415931e-01	4.702783e-01	6.456611e-01	7.589117e-01	8.295466e-01	8.730700e-01	9.009020e-01	9.191394e-01	9.317061e-01	9.407216e-01	9.473058e-01	9.523555e-01	9.563080e-01	9.594578e-01	9.620672e-01	9.642103e-01	9.660009e-01	9.676026e-01	9.690460e-01	9.703994e-01	9.716723e-01	9.728188e-01	9.737756e-01	9.745783e-01	9.752572e-01	9.758302e-01	9.763063e-01	9.767121e-01	9.770691e-01	9.773910e-01	9.776737e-01	9.779287e-01	9.781514e-01	9.783603e-01	9.785468e-01	9.787207e-01	9.788708e-01	9.789848e-01	9.790707e-01	9.791156e-01	9.791014e-01	9.790194e-01	9.788748e-01	9.786444e-01	9.783487e-01	9.779756e-01	9.776513e-01	9.774539e-01	9.776676e-01	9.784569e-01	9.796049e-01	9.802281e-01	9.799892e-01	9.793397e-01	9.787207e-01	9.780734e-01	9.770747e-01	9.755282e-01	9.733632e-01	9.706335e-01	9.674085e-01	9.637139e-01	9.596157e-01	9.552172e-01	9.506649e-01	9.460954e-01	9.416657e-01	9.373832e-01	9.333847e-01	9.296046e-01	9.259440e-01	9.223013e-01	9.184837e-01	9.142521e-01	9.093225e-01	9.032812e-01	8.956312e-01	8.856464e-01	8.727140e-01	8.564016e-01	8.371415e-01	8.165152e-01	7.975357e-01	7.838660e-01	7.789935e-01	7.853263e-01	8.033757e-01	8.308793e-01	8.629548e-01	8.919553e-01	9.096730e-01	9.119279e-01	9.001749e-01	8.774612e-01	8.479174e-01	8.139922e-01	7.759192e-01	7.325727e-01	6.650152e-01	
SCALARS Conservative_3 float 1
LOOKUP_TABLE default
1.015209e-01	1.065190e-01	1.139290e-01	1.243790e-01	1.416152e-01	1.667034e-01	1.984340e-01	2.329776e-01	2.644345e-01	2.848313e-01	2.874100e-01	2.707594e-01	2.329207e-01	1.855500e-01	1.434066e-01	1.138487e-01	1.003297e-01	1.007573e-01	1.093076e-01	1.206886e-01	1.308559e-01	1.371950e-01	1.383507e-01	1.342495e-01	1.262527e-01	1.159941e-01	1.038395e-01	9.068682e-02	7.788281e-02	6.632466e-02	5.646062e-02	4.831362e-02	4.179806e-02	3.664248e-02	3.251938e-02	2.915331e-02	2.630637e-02	2.379665e-02	2.150744e-02	1.937393e-02	1.738584e-02	1.557348e-02	1.398652e-02	1.268608e-02	1.172989e-02	1.116065e-02	1.100131e-02	1.124765e-02	1.187724e-02	1.283560e-02	1.405963e-02	1.545988e-02	1.694824e-02	1.842253e-02	1.978521e-02	2.094067e-02	2.180126e-02	2.228402e-02	2.232287e-02	2.185124e-02	2.081516e-02	1.917747e-02	1.692971e-02	1.407888e-02	1.059258e-02	6.358009e-03	1.275252e-03	-4.566345e-03	-1.084076e-02	-1.732839e-02	-2.446553e-02	-3.268239e-02	-4.196937e-02	-5.212433e-02	-6.308330e-02	-7.485800e-02	-8.757490e-02	-1.012679e-01	-1.159723e-01	-1.317623e-01	-1.486749e-01	-1.667281e-01	-1.859722e-01	-2.064084e-01	-2.280311e-01	-2.508416e-01	-2.748336e-01	-2.999577e-01	-3.260430e-01	-3.529104e-01	-3.801721e-01	-4.067496e-01	-4.307890e-01	-4.480952e-01	-4.494924e-01	-4.181922e-01	-3.277736e-01	-1.513128e-01	9.102682e-02	2.866467e-01	4.675444e-01	6.546069e-01	6.963367e-01	6.344878e-01	5.475790e-01	4.683032e-01	4.040371e-01	3.526660e-01	3.112894e-01	2.772156e-01	2.488950e-01	2.249189e-01	2.043907e-01	1.866174e-01	1.710728e-01	1.573852e-01	1.452571e-01	1.344080e-01	1.246593e-01	1.158454e-01	1.078689e-01	1.006719e-01	9.416334e-02	8.822893e-02	8.276947e-02	7.771476e-02	7.304137e-02	6.869514e-02	6.463513e-02	6.082266e-02	5.723809e-02	5.384644e-02	5.060563e-02	4.746231e-02	4.437901e-02	4.131278e-02	3.823082e-02	3.509506e-02	3.186963e-02	2.852223e-02	2.501797e-02	2.132867e-02	1.742055e-02	1.328480e-02	8.918032e-03	4.307797e-03	-5.819758e-04	-5.808802e-03	-1.140527e-02	-1.737363e-02	-2.353207e-02	-2.964097e-02	-3.548492e-02	-4.156330e-02	-4.842193e-02	-5.584600e-02	-6.333925e-02	-7.062018e-02	-7.761482e-02	-8.431833e-02	-9.066580e-02	-9.652187e-02	-1.016553e-01	-1.059513e-01	-1.093178e-01	-1.117900e-01	-1.134008e-01	-1.143109e-01	-1.147202e-01	-1.148873e-01	-1.150780e-01	-1.155404e-01	-1.164862e-01	-1.180636e-01	-1.203679e-01	-1.234646e-01	-1.273367e-01	-1.318271e-01	-1.364587e-01	-1.401885e-01	-1.412421e-01	-1.372453e-01	-1.257495e-01	-1.052141e-01	-7.563326e-02	-3.911214e-02	8.997530e-06	3.546599e-02	5.983175e-02	6.638866e-02	5.200385e-02	2.021904e-02	-2.012607e-02	-5.861095e-02	-8.719628e-02	-1.032650e-01	-1.092853e-01	-1.071129e-01	-1.008158e-01	4.109060e-03	
SCALARS Conservative_4 float 1
LOOKUP_TABLE default
3.432120e+00	3.392531e+00	3.375746e+00	3.369646e+00	3.366498e+00	3.359544e+00	3.338806e+00	3.297338e+00	3.228717e+00	3.131542e+00	3.006269e+00	2.848662e+00	2.705019e+00	2.649448e+00	2.679005e+00	2.750986e+00	2.828416e+00	2.884917e+00	2.912323e+00	2.913136e+00	2.891808e+00	2.853815e+00	2.805141e+00	2.750377e+00	2.689085e+00	2.621273e+00	2.560104e+00	2.523182e+00	2.515130e+00	2.528790e+00	2.554038e+00	2.582873e+00	2.610873e+00	2.635589e+00	2.656686e+00	2.674379e+00	2.689309e+00	2.702228e+00	2.713678e+00	2.724360e+00	2.734607e+00	2.744795e+00	2.754953e+00	2.765118e+00	2.775064e+00	2.784612e+00	2.793435e+00	2.801302e+00	2.807907e+00	2.813045e+00	2.816472e+00	2.818068e+00	2.817698e+00	2.815321e+00	2.810896e+00	2.804446e+00	2.795996e+00	2.785625e+00	2.773435e+00	2.759541e+00	2.744136e+00	2.727240e+00	2.708843e+00	2.688835e+00	2.667816e+00	2.646726e+00	2.626002e+00	2.603625e+00	2.575999e+00	2.541273e+00	2.505180e+00	2.477552e+00	2.464107e+00	2.463536e+00	2.471962e+00	2.485856e+00	2.503987e+00	2.526030e+00	2.551521e+00	2.580205e+00	2.612132e+00	2.647160e+00	2.685443e+00	2.726926e+00	2.771729e+00	2.820082e+00	2.872009e+00	2.927821e+00	2.988023e+00	3.052706e+00	3.122769e+00	3.199406e+00	3.283334e+00	3.376762e+00	3.480536e+00	3.592928e+00	3.703007e+00	3.804070e+00	3.802267e+00	3.735720e+00	3.681144e+00	3.504881e+00	3.162425e+00	2.917030e+00	2.753216e+00	2.652609e+00	2.592424e+00	2.554402e+00	2.528100e+00	2.509119e+00	2.495113e+00	2.484378e+00	2.476367e+00	2.470215e+00	2.465729e+00	2.463082e+00	2.461917e+00	2.461883e+00	2.463016e+00	2.465661e+00	2.470599e+00	2.478262e+00	2.488228e+00	2.499350e+00	2.510506e+00	2.520977e+00	2.530277e+00	2.537997e+00	2.544044e+00	2.548717e+00	2.552374e+00	2.555178e+00	2.557065e+00	2.557879e+00	2.557541e+00	2.555998e+00	2.553282e+00	2.549412e+00	2.544392e+00	2.538248e+00	2.530942e+00	2.522460e+00	2.512968e+00	2.502801e+00	2.492212e+00	2.481297e+00	2.470020e+00	2.459136e+00	2.450798e+00	2.449621e+00	2.461124e+00	2.488112e+00	2.525348e+00	2.561159e+00	2.587528e+00	2.606543e+00	2.624357e+00	2.645514e+00	2.671175e+00	2.699691e+00	2.729140e+00	2.758766e+00	2.788398e+00	2.817746e+00	2.846146e+00	2.873116e+00	2.898174e+00	2.921121e+00	2.941697e+00	2.960146e+00	2.976637e+00	2.991614e+00	3.005701e+00	3.019560e+00	3.033956e+00	3.049714e+00	3.067760e+00	3.089302e+00	3.115551e+00	3.147758e+00	3.186108e+00	3.229280e+00	3.273628e+00	3.314307e+00	3.345621e+00	3.361952e+00	3.358289e+00	3.331248e+00	3.280119e+00	3.210457e+00	3.137641e+00	3.080927e+00	3.059365e+00	3.081654e+00	3.136847e+00	3.204535e+00	3.271399e+00	3.336359e+00	3.406295e+00	3.366208e+00	
SCALARS Pressure float 1
LOOKUP_TABLE default
1.285397e+00	1.262784e+00	1.251992e+00	1.247723e+00	1.245652e+00	1.241270e+00	1.229182e+00	1.205134e+00	1.165570e+00	1.109873e+00	1.038943e+00	9.520401e-01	8.744546e-01	8.427708e-01	8.563205e-01	8.941757e-01	9.356121e-01	9.661692e-01	9.814391e-01	9.822198e-01	9.708210e-01	9.503222e-01	9.241901e-01	8.950627e-01	8.629113e-01	8.279606e-01	7.970504e-01	7.786636e-01	7.748424e-01	7.818802e-01	7.946655e-01	8.092482e-01	8.233808e-01	8.359383e-01	8.466979e-01	8.557814e-01	8.634764e-01	8.701434e-01	8.760938e-01	8.816475e-01	8.870069e-01	8.923371e-01	8.976781e-01	9.030249e-01	9.082789e-01	9.133243e-01	9.180039e-01	9.221754e-01	9.256878e-01	9.284179e-01	9.302453e-01	9.310895e-01	9.308885e-01	9.296140e-01	9.272498e-01	9.238061e-01	9.193059e-01	9.137935e-01	9.073341e-01	9.000013e-01	8.918927e-01	8.830423e-01	8.734335e-01	8.630480e-01	8.521939e-01	8.414077e-01	8.308624e-01	8.195171e-01	8.054782e-01	7.879597e-01	7.699721e-01	7.564221e-01	7.499128e-01	7.497562e-01	7.539488e-01	7.608482e-01	7.698007e-01	7.807041e-01	7.934317e-01	8.078773e-01	8.240579e-01	8.419822e-01	8.617438e-01	8.833905e-01	9.070455e-01	9.329129e-01	9.610997e-01	9.918139e-01	1.025440e+00	1.062213e+00	1.102710e+00	1.147753e+00	1.198072e+00	1.254928e+00	1.319144e+00	1.389569e+00	1.458792e+00	1.517799e+00	1.519661e+00	1.481846e+00	1.437804e+00	1.322312e+00	1.135250e+00	1.001697e+00	9.126468e-01	8.568737e-01	8.230067e-01	8.015338e-01	7.869333e-01	7.765667e-01	7.689831e-01	7.632688e-01	7.589991e-01	7.557154e-01	7.533070e-01	7.518218e-01	7.511064e-01	7.509771e-01	7.514034e-01	7.525729e-01	7.548665e-01	7.585098e-01	7.633206e-01	7.687561e-01	7.742372e-01	7.793918e-01	7.839720e-01	7.877765e-01	7.907511e-01	7.930409e-01	7.948233e-01	7.961846e-01	7.970894e-01	7.974651e-01	7.972639e-01	7.964651e-01	7.950798e-01	7.931219e-01	7.906000e-01	7.875202e-01	7.838688e-01	7.796443e-01	7.749315e-01	7.698939e-01	7.646684e-01	7.592908e-01	7.537460e-01	7.483513e-01	7.441655e-01	7.434055e-01	7.488107e-01	7.618853e-01	7.803277e-01	7.983336e-01	8.116751e-01	8.212442e-01	8.301686e-01	8.408585e-01	8.539567e-01	8.686545e-01	8.839682e-01	8.994941e-01	9.151456e-01	9.307589e-01	9.459801e-01	9.605271e-01	9.741279e-01	9.866339e-01	9.979294e-01	1.008078e+00	1.017186e+00	1.025496e+00	1.033334e+00	1.041070e+00	1.049140e+00	1.058012e+00	1.068242e+00	1.080533e+00	1.095659e+00	1.114362e+00	1.136836e+00	1.162321e+00	1.188681e+00	1.212853e+00	1.231257e+00	1.240407e+00	1.237350e+00	1.220315e+00	1.189455e+00	1.148487e+00	1.106540e+00	1.075075e+00	1.064436e+00	1.078199e+00	1.110179e+00	1.149496e+00	1.189155e+00	1.228418e+00	1.270189e+00	1.271180e+00	
SCALARS Temperature float 1
LOOKUP_TABLE default
1.075729e+00	1.070925e+00	1.068099e+00	1.066848e+00	1.066283e+00	1.065150e+00	1.062357e+00	1.056728e+00	1.047199e+00	1.033098e+00	1.013980e+00	9.889411e-01	9.644888e-01	9.527678e-01	9.562819e-01	9.684677e-01	9.813456e-01	9.904875e-01	9.951142e-01	9.954986e-01	9.922822e-01	9.862653e-01	9.783843e-01	9.693543e-01	9.591193e-01	9.476895e-01	9.373323e-01	9.310482e-01	9.298229e-01	9.324023e-01	9.368860e-01	9.418666e-01	9.465582e-01	9.506764e-01	9.541569e-01	9.570783e-01	9.595344e-01	9.616415e-01	9.635247e-01	9.652669e-01	9.669497e-01	9.686099e-01	9.702728e-01	9.719246e-01	9.735452e-01	9.750899e-01	9.765202e-01	9.777860e-01	9.788506e-01	9.796728e-01	9.802247e-01	9.804755e-01	9.804133e-01	9.800255e-01	9.793087e-01	9.782606e-01	9.768884e-01	9.751999e-01	9.732125e-01	9.709468e-01	9.684213e-01	9.656493e-01	9.626086e-01	9.593020e-01	9.558144e-01	9.523408e-01	9.489117e-01	9.451748e-01	9.404299e-01	9.344129e-01	9.281595e-01	9.234358e-01	9.211730e-01	9.211893e-01	9.227171e-01	9.251971e-01	9.283395e-01	9.321081e-01	9.364800e-01	9.413921e-01	9.468029e-01	9.527156e-01	9.591204e-01	9.660207e-01	9.734304e-01	9.813912e-01	9.899113e-01	9.989955e-01	1.008718e+00	1.019130e+00	1.030302e+00	1.042370e+00	1.055474e+00	1.069691e+00	1.085073e+00	1.101063e+00	1.115762e+00	1.125976e+00	1.127345e+00	1.121280e+00	1.108915e+00	1.081479e+00	1.042886e+00	1.009184e+00	9.828915e-01	9.639462e-01	9.513425e-01	9.429470e-01	9.371931e-01	9.331079e-01	9.301071e-01	9.278713e-01	9.261832e-01	9.248735e-01	9.239006e-01	9.232641e-01	9.229255e-01	9.228136e-01	9.228895e-01	9.232302e-01	9.239676e-01	9.251841e-01	9.268209e-01	9.286916e-01	9.305755e-01	9.323358e-01	9.338874e-01	9.351674e-01	9.361590e-01	9.369139e-01	9.374935e-01	9.379320e-01	9.382165e-01	9.383258e-01	9.382400e-01	9.379546e-01	9.374699e-01	9.367920e-01	9.359249e-01	9.348647e-01	9.336060e-01	9.321476e-01	9.305159e-01	9.287618e-01	9.269373e-01	9.250460e-01	9.230826e-01	9.211273e-01	9.195655e-01	9.191837e-01	9.209898e-01	9.255197e-01	9.319568e-01	9.381877e-01	9.427230e-01	9.458832e-01	9.487613e-01	9.522000e-01	9.564001e-01	9.610794e-01	9.659055e-01	9.707397e-01	9.755551e-01	9.802980e-01	9.848686e-01	9.891837e-01	9.931750e-01	9.967994e-01	1.000055e+00	1.002945e+00	1.005520e+00	1.007858e+00	1.010048e+00	1.012198e+00	1.014432e+00	1.016876e+00	1.019689e+00	1.023053e+00	1.027183e+00	1.032238e+00	1.038239e+00	1.044918e+00	1.051683e+00	1.057697e+00	1.062083e+00	1.064052e+00	1.062982e+00	1.058499e+00	1.050657e+00	1.040217e+00	1.029324e+00	1.021273e+00	1.019062e+00	1.023293e+00	1.032018e+00	1.042305e+00	1.052516e+00	1.062443e+00	1.072329e+00	1.082213e+00	
SCALARS Pressure_Coefficient float 1
LOOKUP_TABLE default
6.370468e-01	5.865715e-01	5.624811e-01	5.529528e-01	5.483298e-01	5.385497e-01	5.115674e-01	4.578873e-01	3.695768e-01	2.452528e-01	8.692629e-02	-1.070534e-01	-2.802352e-01	-3.509580e-01	-3.207131e-01	-2.362149e-01	-1.437230e-01	-7.551510e-02	-4.143066e-02	-3.968788e-02	-6.513163e-02	-1.108880e-01	-1.692185e-01	-2.342351e-01	-3.060016e-01	-3.840166e-01	-4.530124e-01	-4.940545e-01	-5.025838e-01	-4.868746e-01	-4.583360e-01	-4.257852e-01	-3.942392e-01	-3.662091e-01	-3.421921e-01	-3.219164e-01	-3.047402e-01	-2.898585e-01	-2.765763e-01	-2.641798e-01	-2.522168e-01	-2.403190e-01	-2.283971e-01	-2.164622e-01	-2.047346e-01	-1.934724e-01	-1.830271e-01	-1.737157e-01	-1.658755e-01	-1.597814e-01	-1.557024e-01	-1.538180e-01	-1.542667e-01	-1.571115e-01	-1.623888e-01	-1.700757e-01	-1.801207e-01	-1.924252e-01	-2.068436e-01	-2.232114e-01	-2.413108e-01	-2.610662e-01	-2.825145e-01	-3.056964e-01	-3.299243e-01	-3.540007e-01	-3.775394e-01	-4.028636e-01	-4.342004e-01	-4.733042e-01	-5.134552e-01	-5.437007e-01	-5.582305e-01	-5.585800e-01	-5.492213e-01	-5.338210e-01	-5.138377e-01	-4.894998e-01	-4.610900e-01	-4.288453e-01	-3.927279e-01	-3.527182e-01	-3.086076e-01	-2.602891e-01	-2.074878e-01	-1.497481e-01	-8.683113e-02	-1.827265e-02	5.678478e-02	1.388691e-01	2.292643e-01	3.298061e-01	4.421242e-01	5.690368e-01	7.123751e-01	8.695741e-01	1.024090e+00	1.155802e+00	1.159957e+00	1.075550e+00	9.772420e-01	7.194463e-01	3.018963e-01	3.786930e-03	-1.949849e-01	-3.194783e-01	-3.950742e-01	-4.430048e-01	-4.755953e-01	-4.987350e-01	-5.156627e-01	-5.284179e-01	-5.379484e-01	-5.452782e-01	-5.506540e-01	-5.539692e-01	-5.555660e-01	-5.558546e-01	-5.549032e-01	-5.522927e-01	-5.471729e-01	-5.390405e-01	-5.283021e-01	-5.161693e-01	-5.039348e-01	-4.924290e-01	-4.822053e-01	-4.737132e-01	-4.670734e-01	-4.619622e-01	-4.579838e-01	-4.549451e-01	-4.529254e-01	-4.520869e-01	-4.525359e-01	-4.543191e-01	-4.574113e-01	-4.617815e-01	-4.674106e-01	-4.742853e-01	-4.824358e-01	-4.918654e-01	-5.023851e-01	-5.136298e-01	-5.252937e-01	-5.372973e-01	-5.496741e-01	-5.617159e-01	-5.710591e-01	-5.727557e-01	-5.606905e-01	-5.315061e-01	-4.903400e-01	-4.501481e-01	-4.203682e-01	-3.990085e-01	-3.790880e-01	-3.552267e-01	-3.259895e-01	-2.931819e-01	-2.589996e-01	-2.243435e-01	-1.894072e-01	-1.545560e-01	-1.205802e-01	-8.810926e-02	-5.775024e-02	-2.983505e-02	-4.621805e-03	1.803047e-02	3.836123e-02	5.691147e-02	7.440556e-02	9.167498e-02	1.096871e-01	1.294903e-01	1.523256e-01	1.797616e-01	2.135251e-01	2.552725e-01	3.054383e-01	3.623242e-01	4.211636e-01	4.751184e-01	5.161992e-01	5.366237e-01	5.297997e-01	4.917751e-01	4.228901e-01	3.314444e-01	2.378123e-01	1.675772e-01	1.438301e-01	1.745519e-01	2.459348e-01	3.336969e-01	4.222219e-01	5.098610e-01	6.030996e-01	6.053118e-01	
SCALARS Mach float 1
LOOKUP_TABLE default
4.929294e-01	5.162347e-01	5.295564e-01	5.353721e-01	5.379851e-01	5.431878e-01	5.558550e-01	5.807347e-01	6.211452e-01	6.777388e-01	7.498424e-01	8.385074e-01	9.206970e-01	9.589687e-01	9.475591e-01	9.075559e-01	8.644281e-01	8.331808e-01	8.171389e-01	8.157986e-01	8.269776e-01	8.476835e-01	8.744320e-01	9.046166e-01	9.383070e-01	9.753679e-01	1.008515e+00	1.028453e+00	1.032326e+00	1.024167e+00	1.009935e+00	9.940500e-01	9.790071e-01	9.657350e-01	9.544648e-01	9.449658e-01	9.369507e-01	9.300521e-01	9.238691e-01	9.181335e-01	9.125790e-01	9.070849e-01	9.015674e-01	8.960717e-01	8.906653e-01	8.854984e-01	8.807015e-01	8.764464e-01	8.728601e-01	8.700857e-01	8.682211e-01	8.673731e-01	8.675833e-01	8.688944e-01	8.713150e-01	8.748487e-01	8.794648e-01	8.851298e-01	8.917764e-01	8.993266e-01	9.077099e-01	9.168724e-01	9.268789e-01	9.377102e-01	9.490800e-01	9.603518e-01	9.714303e-01	9.834510e-01	9.986408e-01	1.017793e+00	1.037578e+00	1.052451e+00	1.059554e+00	1.059503e+00	1.054708e+00	1.046912e+00	1.037010e+00	1.025098e+00	1.011226e+00	9.955669e-01	9.782205e-01	9.591380e-01	9.383035e-01	9.156473e-01	8.910487e-01	8.642735e-01	8.351675e-01	8.035518e-01	7.689459e-01	7.308607e-01	6.885839e-01	6.409125e-01	5.861690e-01	5.220846e-01	4.447798e-01	3.497793e-01	2.342341e-01	9.491222e-02	5.411896e-02	1.731663e-01	2.933888e-01	4.637896e-01	6.388218e-01	7.672677e-01	8.591836e-01	9.224827e-01	9.635818e-01	9.905928e-01	1.008958e+00	1.021931e+00	1.031428e+00	1.038487e+00	1.043808e+00	1.047930e+00	1.050990e+00	1.052990e+00	1.054054e+00	1.054405e+00	1.054167e+00	1.053097e+00	1.050779e+00	1.046953e+00	1.041799e+00	1.035899e+00	1.029948e+00	1.024377e+00	1.019460e+00	1.015398e+00	1.012247e+00	1.009846e+00	1.008002e+00	1.006606e+00	1.005700e+00	1.005351e+00	1.005625e+00	1.006534e+00	1.008077e+00	1.010234e+00	1.012991e+00	1.016359e+00	1.020352e+00	1.024973e+00	1.030136e+00	1.035677e+00	1.041432e+00	1.047388e+00	1.053560e+00	1.059698e+00	1.064593e+00	1.065789e+00	1.060129e+00	1.045897e+00	1.025577e+00	1.005791e+00	9.913098e-01	9.811763e-01	9.719152e-01	9.608075e-01	9.471744e-01	9.318947e-01	9.160272e-01	9.000153e-01	8.839396e-01	8.679731e-01	8.524537e-01	8.376728e-01	8.238826e-01	8.112545e-01	7.998222e-01	7.895986e-01	7.804259e-01	7.720427e-01	7.641449e-01	7.563429e-01	7.481896e-01	7.392038e-01	7.287798e-01	7.161935e-01	7.005506e-01	6.810885e-01	6.574940e-01	6.305351e-01	6.023758e-01	5.765080e-01	5.570838e-01	5.481932e-01	5.530398e-01	5.729947e-01	6.067077e-01	6.495928e-01	6.923488e-01	7.228711e-01	7.311106e-01	7.152906e-01	6.819434e-01	6.411749e-01	5.988407e-01	5.554672e-01	5.095144e-01	4.599654e-01	