TITLE = "Visualization of the volumetric solution"
VARIABLES = "x""y""Conservative_1""Conservative_2""Conservative_3""Conservative_4""Pressure""Temperature""C<sub>p</sub>""Mach"
ZONE NODES= 5233, ELEMENTS= 10216, DATAPACKING=POINT, ZONETYPE=FEQUADRILATERAL
9.997500e-01	-3.633243e-05	1.199832e+00	7.195665e-01	1.010183e-01	3.446408e+00	1.290554e+00	1.075612e+00	6.485581e-01	4.935109e-01	
9.990000e-01	-1.454725e-04	1.181610e+00	7.459367e-01	1.066658e-01	3.400807e+00	1.264217e+00	1.069910e+00	5.897695e-01	5.210572e-01	
9.977600e-01	-3.275093e-04	1.171191e+00	7.640207e-01	1.128618e-01	3.375530e+00	1.248356e+00	1.065886e+00	5.543659e-01	5.398158e-01	
9.960200e-01	-5.899374e-04	1.164757e+00	7.748220e-01	1.197602e-01	3.360024e+00	1.238461e+00	1.063279e+00	5.322792e-01	5.517036e-01	
9.937800e-01	-9.471318e-04	1.160189e+00	7.807053e-01	1.301787e-01	3.348888e+00	1.231565e+00	1.061520e+00	5.168851e-01	5.596097e-01	
9.910500e-01	-1.422199e-03	1.155729e+00	7.854709e-01	1.448023e-01	3.338026e+00	1.224816e+00	1.059778e+00	5.018208e-01	5.673616e-01	
9.878400e-01	-2.045752e-03	1.148847e+00	7.912708e-01	1.632844e-01	3.320937e+00	1.214735e+00	1.057352e+00	4.793203e-01	5.780222e-01	
9.841300e-01	-2.854138e-03	1.137930e+00	8.009329e-01	1.837110e-01	3.293750e+00	1.198821e+00	1.053510e+00	4.437961e-01	5.946088e-01	
9.799500e-01	-3.859694e-03	1.121745e+00	8.159436e-01	2.029323e-01	3.253371e+00	1.175304e+00	1.047746e+00	3.913045e-01	6.188802e-01	
9.752800e-01	-5.059582e-03	1.100384e+00	8.363564e-01	2.170242e-01	3.200026e+00	1.144314e+00	1.039922e+00	3.221291e-01	6.507779e-01	
9.701500e-01	-6.406966e-03	1.075085e+00	8.604552e-01	2.228023e-01	3.136735e+00	1.107724e+00	1.030360e+00	2.404561e-01	6.883651e-01	
9.645400e-01	-7.843335e-03	1.048460e+00	8.849110e-01	2.186881e-01	3.069887e+00	1.069457e+00	1.020026e+00	1.550386e-01	7.275293e-01	
9.584700e-01	-9.293306e-03	1.024878e+00	9.060780e-01	2.056472e-01	3.010502e+00	1.035738e+00	1.010597e+00	7.977255e-02	7.621629e-01	
9.519400e-01	-1.070148e-02	1.008330e+00	9.215736e-01	1.874751e-01	2.968813e+00	1.012098e+00	1.003736e+00	2.700336e-02	7.867898e-01	
9.449600e-01	-1.203990e-02	9.999484e-01	9.308075e-01	1.688998e-01	2.947724e+00	1.000094e+00	1.000146e+00	2.105423e-04	7.995049e-01	
9.375400e-01	-1.331295e-02	9.978863e-01	9.347749e-01	1.535915e-01	2.942525e+00	9.971511e-01	9.992633e-01	-6.359098e-03	8.026139e-01	
9.296900e-01	-1.454794e-02	9.989942e-01	9.355315e-01	1.431897e-01	2.945268e+00	9.987824e-01	9.997880e-01	-2.717821e-03	8.007663e-01	
9.214000e-01	-1.578319e-02	1.000436e+00	9.351723e-01	1.374538e-01	2.948824e+00	1.000919e+00	1.000483e+00	2.052040e-03	7.983157e-01	
9.127000e-01	-1.704594e-02	1.000462e+00	9.351570e-01	1.350318e-01	2.948795e+00	1.001050e+00	1.000588e+00	2.343983e-03	7.979456e-01	
9.035800e-01	-1.835723e-02	9.984712e-01	9.360976e-01	1.342907e-01	2.943659e+00	9.983272e-01	9.998557e-01	-3.734017e-03	8.005279e-01	
8.940600e-01	-1.972071e-02	9.946847e-01	9.380476e-01	1.339341e-01	2.933979e+00	9.930577e-01	9.983643e-01	-1.549628e-02	8.057738e-01	
8.841500e-01	-2.113175e-02	9.896598e-01	9.407059e-01	1.331984e-01	2.921156e+00	9.860423e-01	9.963447e-01	-3.115554e-02	8.128485e-01	
8.738500e-01	-2.258215e-02	9.839824e-01	9.436966e-01	1.317980e-01	2.906662e+00	9.781220e-01	9.940442e-01	-4.883491e-02	8.208673e-01	
8.631800e-01	-2.405979e-02	9.781242e-01	9.467294e-01	1.297607e-01	2.891691e+00	9.699649e-01	9.916582e-01	-6.704257e-02	8.291409e-01	
8.521600e-01	-2.555402e-02	9.723632e-01	9.496176e-01	1.272551e-01	2.876945e+00	9.619662e-01	9.893075e-01	-8.489686e-02	8.372506e-01	
8.407700e-01	-2.706168e-02	9.668100e-01	9.522953e-01	1.244807e-01	2.862708e+00	9.542782e-01	9.870380e-01	-1.020577e-01	8.450426e-01	
8.290500e-01	-2.857353e-02	9.614558e-01	9.547579e-01	1.215713e-01	2.848960e+00	9.468883e-01	9.848484e-01	-1.185530e-01	8.525261e-01	
8.170100e-01	-3.008572e-02	9.562540e-01	9.570474e-01	1.186160e-01	2.835587e+00	9.397240e-01	9.827138e-01	-1.345447e-01	8.597910e-01	
8.046400e-01	-3.159743e-02	9.511398e-01	9.591742e-01	1.156406e-01	2.822420e+00	9.327006e-01	9.806137e-01	-1.502218e-01	8.669095e-01	
7.919700e-01	-3.310302e-02	9.460816e-01	9.611707e-01	1.126326e-01	2.809380e+00	9.257703e-01	9.785311e-01	-1.656913e-01	8.739410e-01	
7.790100e-01	-3.459922e-02	9.410636e-01	9.630719e-01	1.095808e-01	2.796436e+00	9.189034e-01	9.764520e-01	-1.810191e-01	8.809343e-01	
7.657800e-01	-3.608141e-02	9.360418e-01	9.648701e-01	1.064645e-01	2.783466e+00	9.120473e-01	9.743660e-01	-1.963230e-01	8.879251e-01	
7.522800e-01	-3.754704e-02	9.309822e-01	9.665795e-01	1.032722e-01	2.770383e+00	9.051545e-01	9.722576e-01	-2.117086e-01	8.949655e-01	
7.385200e-01	-3.899225e-02	9.259013e-01	9.681979e-01	9.999668e-02	2.757231e+00	8.982472e-01	9.701328e-01	-2.271269e-01	9.020361e-01	
7.245300e-01	-4.041118e-02	9.208504e-01	9.697127e-01	9.662371e-02	2.744142e+00	8.913955e-01	9.680133e-01	-2.424208e-01	9.090643e-01	
7.103200e-01	-4.180019e-02	9.158781e-01	9.711116e-01	9.316825e-02	2.731241e+00	8.846656e-01	9.659207e-01	-2.574428e-01	9.159806e-01	
6.958900e-01	-4.315673e-02	9.110031e-01	9.724093e-01	8.962675e-02	2.718582e+00	8.780782e-01	9.638587e-01	-2.721469e-01	9.227743e-01	
6.812700e-01	-4.447559e-02	9.062299e-01	9.735869e-01	8.601771e-02	2.706170e+00	8.716451e-01	9.618366e-01	-2.865066e-01	9.294160e-01	
6.664700e-01	-4.575377e-02	9.015699e-01	9.746544e-01	8.234754e-02	2.694039e+00	8.653786e-01	9.598574e-01	-3.004941e-01	9.358978e-01	
6.515000e-01	-4.698851e-02	8.970398e-01	9.756273e-01	7.862823e-02	2.682236e+00	8.592962e-01	9.579243e-01	-3.140710e-01	9.422117e-01	
6.363800e-01	-4.817648e-02	8.926393e-01	9.764865e-01	7.487303e-02	2.670755e+00	8.534041e-01	9.560458e-01	-3.272230e-01	9.483307e-01	
6.211300e-01	-4.931479e-02	8.883790e-01	9.772670e-01	7.108884e-02	2.659634e+00	8.477060e-01	9.542166e-01	-3.399420e-01	9.542747e-01	
6.057600e-01	-5.040157e-02	8.842415e-01	9.779423e-01	6.729418e-02	2.648817e+00	8.421879e-01	9.524411e-01	-3.522590e-01	9.600305e-01	
5.902800e-01	-5.143520e-02	8.802435e-01	9.785495e-01	6.349061e-02	2.638359e+00	8.368609e-01	9.507153e-01	-3.641497e-01	9.656127e-01	
5.747100e-01	-5.241363e-02	8.763998e-01	9.790562e-01	5.968567e-02	2.628290e+00	8.317556e-01	9.490595e-01	-3.755456e-01	9.709573e-01	
5.590600e-01	-5.333569e-02	8.727622e-01	9.795032e-01	5.587076e-02	2.618756e+00	8.269275e-01	9.474832e-01	-3.863226e-01	9.760353e-01	
5.433600e-01	-5.419931e-02	8.693199e-01	9.798678e-01	5.204971e-02	2.609723e+00	8.223710e-01	9.459936e-01	-3.964933e-01	9.808252e-01	
5.276100e-01	-5.500430e-02	8.660088e-01	9.802022e-01	4.823462e-02	2.601035e+00	8.179862e-01	9.445472e-01	-4.062809e-01	9.854684e-01	
5.118400e-01	-5.574901e-02	8.626818e-01	9.804744e-01	4.444903e-02	2.592296e+00	8.135902e-01	9.430943e-01	-4.160932e-01	9.901247e-01	
4.960500e-01	-5.643340e-02	8.593293e-01	9.807237e-01	4.069732e-02	2.583492e+00	8.091581e-01	9.416159e-01	-4.259864e-01	9.948549e-01	
4.802700e-01	-5.705613e-02	8.561538e-01	9.808910e-01	3.694323e-02	2.575138e+00	8.049759e-01	9.402235e-01	-4.353217e-01	9.993030e-01	
4.645100e-01	-5.761681e-02	8.535096e-01	9.810035e-01	3.312998e-02	2.568171e+00	8.015029e-01	9.390673e-01	-4.430738e-01	1.002992e+00	
4.487800e-01	-5.811499e-02	8.515115e-01	9.810459e-01	2.923509e-02	2.562888e+00	7.988975e-01	9.382111e-01	-4.488894e-01	1.005720e+00	
4.331100e-01	-5.854958e-02	8.498693e-01	9.810750e-01	2.524535e-02	2.558543e+00	7.967597e-01	9.375085e-01	-4.536614e-01	1.007957e+00	
4.175000e-01	-5.892037e-02	8.479110e-01	9.811100e-01	2.119259e-02	2.553374e+00	7.941969e-01	9.366513e-01	-4.593818e-01	1.010685e+00	
4.019700e-01	-5.922646e-02	8.448837e-01	9.811835e-01	1.712062e-02	2.545416e+00	7.902029e-01	9.352800e-01	-4.682972e-01	1.015043e+00	
3.865400e-01	-5.946697e-02	8.402825e-01	9.812229e-01	1.307481e-02	2.533325e+00	7.841286e-01	9.331726e-01	-4.818559e-01	1.021729e+00	
3.712300e-01	-5.964103e-02	8.342473e-01	9.811476e-01	9.043050e-03	2.517449e+00	7.761771e-01	9.303921e-01	-4.996048e-01	1.030531e+00	
3.560400e-01	-5.974783e-02	8.276525e-01	9.808250e-01	4.918395e-03	2.500046e+00	7.675437e-01	9.273743e-01	-5.188756e-01	1.040058e+00	
3.409900e-01	-5.978623e-02	8.217588e-01	9.803290e-01	5.631146e-04	2.484444e+00	7.598779e-01	9.246969e-01	-5.359869e-01	1.048489e+00	
3.261100e-01	-5.975513e-02	8.174613e-01	9.798231e-01	-4.060379e-03	2.473033e+00	7.543225e-01	9.227623e-01	-5.483873e-01	1.054570e+00	
3.114000e-01	-5.965337e-02	8.149590e-01	9.794074e-01	-8.930570e-03	2.466360e+00	7.511164e-01	9.216615e-01	-5.555438e-01	1.058025e+00	
2.968700e-01	-5.947959e-02	8.139809e-01	9.791557e-01	-1.403585e-02	2.463737e+00	7.498769e-01	9.212463e-01	-5.583104e-01	1.059328e+00	
2.825500e-01	-5.923270e-02	8.140929e-01	9.790030e-01	-1.936462e-02	2.464009e+00	7.500476e-01	9.213293e-01	-5.579295e-01	1.059067e+00	
2.684500e-01	-5.891140e-02	8.149833e-01	9.789498e-01	-2.495508e-02	2.466361e+00	7.512107e-01	9.217498e-01	-5.553332e-01	1.057748e+00	
2.545700e-01	-5.851402e-02	8.164520e-01	9.789053e-01	-3.083534e-02	2.470243e+00	7.531276e-01	9.224395e-01	-5.510546e-01	1.055583e+00	
2.409400e-01	-5.803969e-02	8.184488e-01	9.788924e-01	-3.706182e-02	2.475533e+00	7.557201e-01	9.233566e-01	-5.452677e-01	1.052703e+00	
2.275700e-01	-5.748712e-02	8.208897e-01	9.788392e-01	-4.365141e-02	2.481993e+00	7.588970e-01	9.244811e-01	-5.381764e-01	1.049168e+00	
2.144700e-01	-5.685502e-02	8.236883e-01	9.787593e-01	-5.063774e-02	2.489405e+00	7.625344e-01	9.257560e-01	-5.300572e-01	1.045156e+00	
2.016600e-01	-5.614269e-02	8.267322e-01	9.785855e-01	-5.804082e-02	2.497456e+00	7.665011e-01	9.271456e-01	-5.212029e-01	1.040779e+00	
1.891400e-01	-5.534845e-02	8.300415e-01	9.783313e-01	-6.590780e-02	2.506208e+00	7.708139e-01	9.286449e-01	-5.115762e-01	1.036050e+00	
1.769300e-01	-5.447187e-02	8.337803e-01	9.779432e-01	-7.430298e-02	2.516081e+00	7.757016e-01	9.303429e-01	-5.006661e-01	1.030686e+00	
1.650400e-01	-5.351210e-02	8.381958e-01	9.774232e-01	-8.329682e-02	2.527733e+00	7.814823e-01	9.323386e-01	-4.877627e-01	1.024372e+00	
1.534900e-01	-5.246936e-02	8.433557e-01	9.766911e-01	-9.292185e-02	2.541325e+00	7.882611e-01	9.346722e-01	-4.726315e-01	1.016973e+00	
1.422900e-01	-5.134335e-02	8.491826e-01	9.757344e-01	-1.032208e-01	2.556664e+00	7.959271e-01	9.372861e-01	-4.555200e-01	1.008665e+00	
1.314400e-01	-5.013281e-02	8.555298e-01	9.744128e-01	-1.142457e-01	2.573332e+00	8.043184e-01	9.401407e-01	-4.367894e-01	9.995674e-01	
1.209500e-01	-4.883747e-02	8.624627e-01	9.727460e-01	-1.261078e-01	2.591525e+00	8.134961e-01	9.432246e-01	-4.163034e-01	9.897073e-01	
1.108500e-01	-4.746012e-02	8.701603e-01	9.706396e-01	-1.388742e-01	2.611706e+00	8.237054e-01	9.466134e-01	-3.935147e-01	9.788330e-01	
1.011300e-01	-4.599855e-02	8.786796e-01	9.678626e-01	-1.526207e-01	2.633977e+00	8.350693e-01	9.503684e-01	-3.681488e-01	9.667331e-01	
9.181000e-02	-4.445489e-02	8.880599e-01	9.642603e-01	-1.674718e-01	2.658426e+00	8.476541e-01	9.545010e-01	-3.400578e-01	9.533515e-01	
8.290000e-02	-4.283022e-02	8.984133e-01	9.597423e-01	-1.835462e-01	2.685362e+00	8.615934e-01	9.590168e-01	-3.089432e-01	9.386456e-01	
7.440000e-02	-4.112390e-02	9.097987e-01	9.540164e-01	-2.009566e-01	2.714899e+00	8.770057e-01	9.639557e-01	-2.745409e-01	9.224551e-01	
6.633000e-02	-3.933947e-02	9.223678e-01	9.468190e-01	-2.198588e-01	2.747424e+00	8.941045e-01	9.693579e-01	-2.363739e-01	9.046085e-01	
5.869000e-02	-3.747659e-02	9.362386e-01	9.377327e-01	-2.403877e-01	2.783200e+00	9.130899e-01	9.752748e-01	-1.939957e-01	8.848825e-01	
5.149000e-02	-3.553729e-02	9.516014e-01	9.262414e-01	-2.626641e-01	2.822682e+00	9.342610e-01	9.817777e-01	-1.467388e-01	8.629675e-01	
4.474000e-02	-3.352408e-02	9.687337e-01	9.116161e-01	-2.868062e-01	2.866527e+00	9.580549e-01	9.889765e-01	-9.362738e-02	8.383892e-01	
3.844000e-02	-3.143664e-02	9.878640e-01	8.929237e-01	-3.128846e-01	2.915250e+00	9.848585e-01	9.969576e-01	-3.379798e-02	8.107050e-01	
3.260000e-02	-2.927781e-02	1.009351e+00	8.690883e-01	-3.408442e-01	2.969731e+00	1.015210e+00	1.005804e+00	3.394987e-02	7.794136e-01	
2.723000e-02	-2.705127e-02	1.033681e+00	8.385361e-01	-3.702974e-01	3.031124e+00	1.049873e+00	1.015664e+00	1.113232e-01	7.436727e-01	
2.232000e-02	-2.475198e-02	1.061170e+00	7.991157e-01	-4.005108e-01	3.100077e+00	1.089443e+00	1.026644e+00	1.996505e-01	7.026082e-01	
1.790000e-02	-2.239395e-02	1.092346e+00	7.483404e-01	-4.300055e-01	3.177853e+00	1.134753e+00	1.038822e+00	3.007869e-01	6.551784e-01	
1.395000e-02	-1.996635e-02	1.127677e+00	6.831636e-01	-4.556701e-01	3.265494e+00	1.186598e+00	1.052250e+00	4.165137e-01	5.999759e-01	
1.049000e-02	-1.748046e-02	1.167006e+00	5.999252e-01	-4.724242e-01	3.362355e+00	1.245012e+00	1.066842e+00	5.469016e-01	5.354048e-01	
7.520000e-03	-1.493719e-02	1.209871e+00	4.964305e-01	-4.718478e-01	3.467242e+00	1.309354e+00	1.082226e+00	6.905229e-01	4.598996e-01	
5.040000e-03	-1.233675e-02	1.254557e+00	3.727057e-01	-4.410246e-01	3.575836e+00	1.377182e+00	1.097744e+00	8.419242e-01	3.712666e-01	
3.050000e-03	-9.677645e-03	1.298046e+00	2.365269e-01	-3.645444e-01	3.681292e+00	1.443421e+00	1.111995e+00	9.897796e-01	2.683111e-01	
1.560000e-03	-6.975167e-03	1.331742e+00	1.074077e-01	-2.307217e-01	3.762480e+00	1.495265e+00	1.122789e+00	1.105503e+00	1.524229e-01	
5.600000e-04	-4.208253e-03	1.350896e+00	1.082638e-02	-3.818396e-02	3.809714e+00	1.523652e+00	1.127883e+00	1.168867e+00	2.338048e-02	
6.000000e-05	-1.384463e-03	1.339555e+00	-2.154515e-02	1.855864e-01	3.781290e+00	1.507304e+00	1.125227e+00	1.132375e+00	1.111241e-01	
0.000000e+00	0.000000e+00	1.308336e+00	5.237855e-03	3.515836e-01	3.703029e+00	1.462311e+00	1.117688e+00	1.031945e+00	2.148489e-01	
6.000000e-05	1.264176e-03	1.284368e+00	7.298099e-02	4.960324e-01	3.649898e+00	1.420815e+00	1.106237e+00	9.393201e-01	3.136772e-01	
5.600000e-04	3.626959e-03	1.221294e+00	2.102831e-01	6.607894e-01	3.500316e+00	1.321380e+00	1.081951e+00	7.173668e-01	4.613409e-01	
1.560000e-03	5.792443e-03	1.099781e+00	4.131804e-01	7.235310e-01	3.191575e+00	1.150384e+00	1.046012e+00	3.356781e-01	6.260494e-01	
3.050000e-03	7.812181e-03	1.002348e+00	5.899487e-01	6.885316e-01	2.943808e+00	1.013485e+00	1.011111e+00	3.010138e-02	7.602986e-01	
5.040000e-03	9.731121e-03	9.263238e-01	7.150386e-01	6.114730e-01	2.748759e+00	9.083871e-01	9.806367e-01	-2.044932e-01	8.668316e-01	
7.520000e-03	1.155696e-02	8.705422e-01	7.966952e-01	5.278358e-01	2.604822e+00	8.320977e-01	9.558384e-01	-3.747819e-01	9.490054e-01	
1.049000e-02	1.330466e-02	8.324792e-01	8.483424e-01	4.533499e-01	2.506375e+00	7.802714e-01	9.372863e-01	-4.904656e-01	1.008665e+00	
1.395000e-02	1.498473e-02	8.074049e-01	8.812929e-01	3.915552e-01	2.441441e+00	7.462106e-01	9.242087e-01	-5.664942e-01	1.050024e+00	
1.790000e-02	1.660507e-02	7.905134e-01	9.025859e-01	3.413297e-01	2.397535e+00	7.234286e-01	9.151378e-01	-6.173468e-01	1.078443e+00	
2.232000e-02	1.816531e-02	7.790643e-01	9.169290e-01	3.002822e-01	2.367678e+00	7.080849e-01	9.088914e-01	-6.515963e-01	1.097905e+00	
2.723000e-02	1.967859e-02	7.713612e-01	9.269736e-01	2.666764e-01	2.347561e+00	6.977895e-01	9.046210e-01	-6.745770e-01	1.111166e+00	
3.260000e-02	2.114081e-02	7.662338e-01	9.341419e-01	2.387263e-01	2.334108e+00	6.909991e-01	9.018123e-01	-6.897342e-01	1.119869e+00	
3.844000e-02	2.255965e-02	7.631215e-01	9.396107e-01	2.152567e-01	2.325962e+00	6.868578e-01	9.000636e-01	-6.989781e-01	1.125282e+00	
4.474000e-02	2.393650e-02	7.612855e-01	9.438859e-01	1.953145e-01	2.321179e+00	6.843927e-01	8.989962e-01	-7.044805e-01	1.128583e+00	
5.149000e-02	2.527275e-02	7.603508e-01	9.473151e-01	1.781631e-01	2.318772e+00	6.831091e-01	8.984131e-01	-7.073457e-01	1.130385e+00	
5.869000e-02	2.657142e-02	7.603132e-01	9.502549e-01	1.632875e-01	2.318769e+00	6.829643e-01	8.982670e-01	-7.076690e-01	1.130836e+00	
6.633000e-02	2.783325e-02	7.610439e-01	9.527680e-01	1.503021e-01	2.320795e+00	6.838228e-01	8.985327e-01	-7.057526e-01	1.130015e+00	
7.440000e-02	2.905892e-02	7.623055e-01	9.549405e-01	1.388545e-01	2.324220e+00	6.853786e-01	8.990865e-01	-7.022799e-01	1.128303e+00	
8.290000e-02	3.025034e-02	7.637762e-01	9.568700e-01	1.286903e-01	2.328213e+00	6.871923e-01	8.997299e-01	-6.982315e-01	1.126314e+00	
9.181000e-02	3.140644e-02	7.651278e-01	9.585345e-01	1.195373e-01	2.331887e+00	6.888539e-01	9.003121e-01	-6.945226e-01	1.124512e+00	
1.011300e-01	3.252871e-02	7.663757e-01	9.600193e-01	1.111964e-01	2.335295e+00	6.903729e-01	9.008282e-01	-6.911319e-01	1.122916e+00	
1.108500e-01	3.361715e-02	7.678437e-01	9.614383e-01	1.035982e-01	2.339306e+00	6.921580e-01	9.014309e-01	-6.871473e-01	1.121050e+00	
1.209500e-01	3.467062e-02	7.697914e-01	9.628076e-01	9.669316e-02	2.344590e+00	6.945629e-01	9.022742e-01	-6.817792e-01	1.118439e+00	
1.314400e-01	3.569098e-02	7.720700e-01	9.640394e-01	9.038899e-02	2.350724e+00	6.974250e-01	9.033184e-01	-6.753906e-01	1.115204e+00	
1.422900e-01	3.667595e-02	7.742796e-01	9.651382e-01	8.455540e-02	2.356663e+00	7.002097e-01	9.043371e-01	-6.691747e-01	1.112046e+00	
1.534900e-01	3.762527e-02	7.761908e-01	9.661020e-01	7.904599e-02	2.361803e+00	7.026153e-01	9.052095e-01	-6.638051e-01	1.109340e+00	
1.650400e-01	3.853931e-02	7.778946e-01	9.669870e-01	7.383487e-02	2.366397e+00	7.047481e-01	9.059687e-01	-6.590443e-01	1.106985e+00	
1.769300e-01	3.941737e-02	7.795379e-01	9.677981e-01	6.889739e-02	2.370825e+00	7.068075e-01	9.067006e-01	-6.544476e-01	1.104713e+00	
1.891400e-01	4.025800e-02	7.812242e-01	9.685776e-01	6.422423e-02	2.375370e+00	7.089197e-01	9.074472e-01	-6.497328e-01	1.102394e+00	
2.016600e-01	4.106041e-02	7.830243e-01	9.693226e-01	5.976508e-02	2.380213e+00	7.111838e-01	9.082526e-01	-6.446791e-01	1.099891e+00	
2.144700e-01	4.182309e-02	7.849936e-01	9.700653e-01	5.548807e-02	2.385507e+00	7.136645e-01	9.091341e-01	-6.391417e-01	1.097150e+00	
2.275700e-01	4.254564e-02	7.871163e-01	9.707854e-01	5.136161e-02	2.391204e+00	7.163487e-01	9.100925e-01	-6.331503e-01	1.094169e+00	
2.409400e-01	4.322635e-02	7.893198e-01	9.714864e-01	4.735436e-02	2.397113e+00	7.191382e-01	9.110859e-01	-6.269238e-01	1.091077e+00	
2.545700e-01	4.386396e-02	7.915038e-01	9.721368e-01	4.342844e-02	2.402964e+00	7.219104e-01	9.120744e-01	-6.207358e-01	1.087998e+00	
2.684500e-01	4.445708e-02	7.936257e-01	9.727507e-01	3.955952e-02	2.408648e+00	7.246038e-01	9.130295e-01	-6.147238e-01	1.085021e+00	
2.825500e-01	4.500339e-02	7.956609e-01	9.733127e-01	3.572792e-02	2.414095e+00	7.271912e-01	9.139462e-01	-6.089482e-01	1.082162e+00	
2.968700e-01	4.550173e-02	7.975999e-01	9.738357e-01	3.191992e-02	2.419285e+00	7.296562e-01	9.148148e-01	-6.034460e-01	1.079452e+00	
3.114000e-01	4.595031e-02	7.994038e-01	9.743105e-01	2.811404e-02	2.424113e+00	7.319503e-01	9.156203e-01	-5.983252e-01	1.076937e+00	
3.261100e-01	4.634668e-02	8.010818e-01	9.747517e-01	2.428068e-02	2.428607e+00	7.340812e-01	9.163623e-01	-5.935687e-01	1.074618e+00	
3.409900e-01	4.668895e-02	8.027527e-01	9.751776e-01	2.039900e-02	2.433083e+00	7.362019e-01	9.170968e-01	-5.888350e-01	1.072322e+00	
3.560400e-01	4.697527e-02	8.046404e-01	9.756389e-01	1.647246e-02	2.438143e+00	7.385945e-01	9.179187e-01	-5.834945e-01	1.069752e+00	
3.712300e-01	4.720306e-02	8.069192e-01	9.761156e-01	1.250412e-02	2.444236e+00	7.414979e-01	9.189247e-01	-5.770136e-01	1.066603e+00	
3.865400e-01	4.737004e-02	8.096547e-01	9.766141e-01	8.485465e-03	2.451537e+00	7.449967e-01	9.201413e-01	-5.692038e-01	1.062792e+00	
4.019700e-01	4.747404e-02	8.128080e-01	9.771130e-01	4.386885e-03	2.459939e+00	7.490446e-01	9.215517e-01	-5.601684e-01	1.058370e+00	
4.175000e-01	4.751263e-02	8.163501e-01	9.776015e-01	1.904593e-04	2.469363e+00	7.536044e-01	9.231388e-01	-5.499902e-01	1.053387e+00	
4.331100e-01	4.748345e-02	8.202798e-01	9.780710e-01	-4.112831e-03	2.479807e+00	7.586756e-01	9.248985e-01	-5.386706e-01	1.047855e+00	
4.487800e-01	4.738429e-02	8.245607e-01	9.784903e-01	-8.525763e-03	2.491166e+00	7.642176e-01	9.268179e-01	-5.263000e-01	1.041811e+00	
4.645100e-01	4.721281e-02	8.291298e-01	9.788670e-01	-1.304544e-02	2.503281e+00	7.701419e-01	9.288557e-01	-5.130760e-01	1.035384e+00	
4.802700e-01	4.696702e-02	8.338540e-01	9.791308e-01	-1.768825e-02	2.515780e+00	7.762934e-01	9.309704e-01	-4.993450e-01	1.028702e+00	
4.960500e-01	4.664492e-02	8.386224e-01	9.793217e-01	-2.245731e-02	2.528389e+00	7.825101e-01	9.330899e-01	-4.854685e-01	1.021991e+00	
5.118400e-01	4.624459e-02	8.433251e-01	9.794213e-01	-2.736230e-02	2.540814e+00	7.886519e-01	9.351694e-01	-4.717592e-01	1.015394e+00	
5.276100e-01	4.576490e-02	8.480507e-01	9.794559e-01	-3.242027e-02	2.553296e+00	7.948262e-01	9.372390e-01	-4.579771e-01	1.008815e+00	
5.433600e-01	4.520416e-02	8.530631e-01	9.794007e-01	-3.758785e-02	2.566523e+00	8.013883e-01	9.394244e-01	-4.433296e-01	1.001853e+00	
5.590600e-01	4.456203e-02	8.586540e-01	9.792289e-01	-4.284262e-02	2.581256e+00	8.087280e-01	9.418555e-01	-4.269465e-01	9.940887e-01	
5.747100e-01	4.383737e-02	8.648369e-01	9.788775e-01	-4.813691e-02	2.597516e+00	8.168792e-01	9.445471e-01	-4.087519e-01	9.854686e-01	
5.902800e-01	4.303085e-02	8.713720e-01	9.783221e-01	-5.349036e-02	2.614666e+00	8.255297e-01	9.473907e-01	-3.894426e-01	9.763328e-01	
6.057600e-01	4.214273e-02	8.780529e-01	9.775995e-01	-5.891533e-02	2.632178e+00	8.343941e-01	9.502777e-01	-3.696560e-01	9.670261e-01	
6.211300e-01	4.117439e-02	8.848966e-01	9.766537e-01	-6.438910e-02	2.650081e+00	8.435102e-01	9.532302e-01	-3.493077e-01	9.574739e-01	
6.363800e-01	4.012725e-02	8.920770e-01	9.754875e-01	-6.985390e-02	2.668838e+00	8.531017e-01	9.563094e-01	-3.278981e-01	9.474729e-01	
6.515000e-01	3.900323e-02	8.996399e-01	9.740428e-01	-7.526733e-02	2.688555e+00	8.632427e-01	9.595425e-01	-3.052617e-01	9.369275e-01	
6.664700e-01	3.780571e-02	9.075307e-01	9.723175e-01	-8.058979e-02	2.709091e+00	8.738593e-01	9.628979e-01	-2.815640e-01	9.259325e-01	
6.812700e-01	3.653889e-02	9.156613e-01	9.702868e-01	-8.580829e-02	2.730209e+00	8.848413e-01	9.663412e-01	-2.570507e-01	9.145926e-01	
6.958900e-01	3.520692e-02	9.239841e-01	9.679551e-01	-9.086409e-02	2.751786e+00	8.961235e-01	9.698473e-01	-2.318673e-01	9.029842e-01	
7.103200e-01	3.381460e-02	9.324874e-01	9.653061e-01	-9.572815e-02	2.773787e+00	9.076934e-01	9.734109e-01	-2.060416e-01	8.911177e-01	
7.245300e-01	3.236950e-02	9.411412e-01	9.623350e-01	-1.003307e-01	2.796133e+00	9.195128e-01	9.770190e-01	-1.796589e-01	8.790297e-01	
7.385200e-01	3.087695e-02	9.499318e-01	9.590356e-01	-1.046476e-01	2.818787e+00	9.315640e-01	9.806640e-01	-1.527589e-01	8.667390e-01	
7.522800e-01	2.934390e-02	9.588092e-01	9.554066e-01	-1.086085e-01	2.841617e+00	9.437830e-01	9.843282e-01	-1.254845e-01	8.542995e-01	
7.657800e-01	2.778024e-02	9.677558e-01	9.514880e-01	-1.121784e-01	2.864586e+00	9.561350e-01	9.879920e-01	-9.791300e-02	8.417717e-01	
7.790100e-01	2.619433e-02	9.766974e-01	9.472138e-01	-1.153021e-01	2.887478e+00	9.685447e-01	9.916528e-01	-7.021282e-02	8.291597e-01	
7.919700e-01	2.459383e-02	9.856364e-01	9.426954e-01	-1.179355e-01	2.910329e+00	9.809844e-01	9.952802e-01	-4.244545e-02	8.165640e-01	
8.046400e-01	2.298925e-02	9.944899e-01	9.379394e-01	-1.200378e-01	2.932919e+00	9.933489e-01	9.988526e-01	-1.484625e-02	8.040582e-01	
8.170100e-01	2.139023e-02	1.003177e+00	9.329644e-01	-1.215750e-01	2.955033e+00	1.005533e+00	1.002348e+00	1.235093e-02	7.917177e-01	
8.290500e-01	1.980912e-02	1.011636e+00	9.278862e-01	-1.225484e-01	2.976531e+00	1.017429e+00	1.005727e+00	3.890484e-02	7.796892e-01	
8.407700e-01	1.825271e-02	1.019782e+00	9.227599e-01	-1.229832e-01	2.997200e+00	1.028920e+00	1.008961e+00	6.455375e-02	7.680749e-01	
8.521600e-01	1.672944e-02	1.027568e+00	9.176402e-01	-1.229523e-01	3.016927e+00	1.039934e+00	1.012034e+00	8.913817e-02	7.569445e-01	
8.631800e-01	1.525016e-02	1.034974e+00	9.125533e-01	-1.226013e-01	3.035661e+00	1.050437e+00	1.014941e+00	1.125831e-01	7.463268e-01	
8.738500e-01	1.381534e-02	1.042045e+00	9.074434e-01	-1.221051e-01	3.053518e+00	1.060500e+00	1.017710e+00	1.350447e-01	7.361281e-01	
8.841500e-01	1.242819e-02	1.048963e+00	9.021875e-01	-1.216417e-01	3.070957e+00	1.070372e+00	1.020409e+00	1.570801e-01	7.261016e-01	
8.940600e-01	1.108992e-02	1.055987e+00	8.964929e-01	-1.212828e-01	3.088616e+00	1.080443e+00	1.023159e+00	1.795594e-01	7.157990e-01	
9.035800e-01	9.798823e-03	1.063505e+00	8.900629e-01	-1.208643e-01	3.107479e+00	1.091263e+00	1.026100e+00	2.037127e-01	7.046763e-01	
9.127000e-01	8.557601e-03	1.071817e+00	8.825615e-01	-1.198538e-01	3.128273e+00	1.103284e+00	1.029358e+00	2.305442e-01	6.922217e-01	
9.214000e-01	7.377198e-03	1.081018e+00	8.739814e-01	-1.173548e-01	3.151249e+00	1.116632e+00	1.032945e+00	2.603396e-01	6.783394e-01	
9.296900e-01	6.274184e-03	1.090725e+00	8.647486e-01	-1.122495e-01	3.175454e+00	1.130753e+00	1.036698e+00	2.918599e-01	6.636095e-01	
9.375400e-01	5.279539e-03	1.100077e+00	8.559466e-01	-1.036529e-01	3.198772e+00	1.144357e+00	1.040251e+00	3.222252e-01	6.494587e-01	
9.449600e-01	4.422431e-03	1.107822e+00	8.491167e-01	-9.137525e-02	3.218128e+00	1.155579e+00	1.043108e+00	3.472738e-01	6.379237e-01	
9.519400e-01	3.727793e-03	1.112624e+00	8.458260e-01	-7.633893e-02	3.230222e+00	1.162441e+00	1.044774e+00	3.625906e-01	6.311304e-01	
9.584700e-01	3.201740e-03	1.113391e+00	8.470853e-01	-6.070806e-02	3.232321e+00	1.163371e+00	1.044890e+00	3.646680e-01	6.306560e-01	
9.645400e-01	2.824072e-03	1.109761e+00	8.527994e-01	-4.757097e-02	3.223453e+00	1.157906e+00	1.043384e+00	3.524690e-01	6.368045e-01	
9.701500e-01	2.549884e-03	1.102496e+00	8.615079e-01	-4.017479e-02	3.205436e+00	1.147243e+00	1.040586e+00	3.286663e-01	6.481131e-01	
9.752800e-01	2.323319e-03	1.093765e+00	8.705431e-01	-4.072503e-02	3.183632e+00	1.134574e+00	1.037311e+00	3.003885e-01	6.611844e-01	
9.799500e-01	2.092095e-03	1.086648e+00	8.765955e-01	-4.931763e-02	3.165704e+00	1.124404e+00	1.034746e+00	2.776883e-01	6.712988e-01	
9.841300e-01	1.826468e-03	1.084119e+00	8.770198e-01	-6.371637e-02	3.159122e+00	1.121003e+00	1.034022e+00	2.700967e-01	6.741345e-01	
9.878400e-01	1.519617e-03	1.088020e+00	8.705079e-01	-8.011126e-02	3.168573e+00	1.126954e+00	1.035784e+00	2.833787e-01	6.672192e-01	
9.910500e-01	1.190077e-03	1.098240e+00	8.577939e-01	-9.477059e-02	3.193935e+00	1.141940e+00	1.039791e+00	3.168306e-01	6.513032e-01	
9.937800e-01	8.629766e-04	1.112822e+00	8.396119e-01	-1.049713e-01	3.230088e+00	1.163359e+00	1.045413e+00	3.646411e-01	6.285107e-01	
9.960200e-01	5.666138e-04	1.129997e+00	8.175117e-01	-1.097925e-01	3.272623e+00	1.188628e+00	1.051886e+00	4.210438e-01	6.015202e-01	
9.977600e-01	3.231859e-04	1.148467e+00	7.912063e-01	-1.102822e-01	3.318076e+00	1.216096e+00	1.058887e+00	4.823581e-01	5.712954e-01	
9.990000e-01	1.450781e-04	1.168631e+00	7.596610e-01	-1.061995e-01	3.367480e+00	1.246299e+00	1.066461e+00	5.497747e-01	5.371665e-01	
9.997500e-01	3.632618e-05	1.192713e+00	7.213288e-01	-1.003426e-01	3.426995e+00	1.281861e+00	1.074744e+00	6.291535e-01	4.977861e-01	
1.000000e+00	0.000000e+00	1.181128e+00	6.623532e-01	2.576752e-03	3.383861e+00	1.279257e+00	1.083081e+00	6.233405e-01	4.554090e-01	
1.984229e+01	2.506660e+00	9.999765e-01	9.463576e-01	2.025774e-02	2.947954e+00	9.999769e-01	1.000000e+00	-5.146532e-05	8.000200e-01	
1.937166e+01	4.973800e+00	9.999696e-01	9.463953e-01	2.024895e-02	2.947944e+00	9.999572e-01	9.999876e-01	-9.552253e-05	8.000624e-01	
1.859553e+01	7.362490e+00	9.999530e-01	9.464114e-01	2.024139e-02	2.947905e+00	9.999329e-01	9.999799e-01	-1.498836e-04	8.000922e-01	
1.752613e+01	9.635070e+00	9.999291e-01	9.464240e-01	2.022740e-02	2.947849e+00	9.999014e-01	9.999723e-01	-2.200548e-04	8.001248e-01	
1.618034e+01	1.175571e+01	9.999051e-01	9.464458e-01	2.020474e-02	2.947797e+00	9.998680e-01	9.999629e-01	-2.946145e-04	8.001657e-01	
1.457937e+01	1.369094e+01	9.998770e-01	9.464689e-01	2.018527e-02	2.947728e+00	9.998269e-01	9.999499e-01	-3.862827e-04	8.002125e-01	
1.274848e+01	1.541027e+01	9.998375e-01	9.464754e-01	2.016071e-02	2.947612e+00	9.997714e-01	9.999339e-01	-5.102413e-04	8.002556e-01	
1.071654e+01	1.688656e+01	9.997824e-01	9.464715e-01	2.013369e-02	2.947444e+00	9.996957e-01	9.999133e-01	-6.791990e-04	8.003042e-01	
8.515590e+00	1.809654e+01	9.997199e-01	9.464561e-01	2.011163e-02	2.947241e+00	9.996095e-01	9.998896e-01	-8.716455e-04	8.003503e-01	
6.180340e+00	1.902113e+01	9.996680e-01	9.464452e-01	2.008929e-02	2.947073e+00	9.995371e-01	9.998691e-01	-1.033271e-03	8.003905e-01	
3.747630e+00	1.964575e+01	9.996336e-01	9.464340e-01	2.011891e-02	2.946949e+00	9.994855e-01	9.998519e-01	-1.148502e-03	8.004160e-01	
1.255810e+00	1.996053e+01	9.996450e-01	9.464080e-01	2.020106e-02	2.946963e+00	9.995022e-01	9.998571e-01	-1.111219e-03	8.003842e-01	
-1.255810e+00	1.996053e+01	9.996993e-01	9.463372e-01	2.030972e-02	2.947067e+00	9.995797e-01	9.998804e-01	-9.381042e-04	8.002735e-01	
-3.747630e+00	1.964574e+01	9.998098e-01	9.463061e-01	2.043530e-02	2.947379e+00	9.997348e-01	9.999249e-01	-5.920311e-04	8.001433e-01	
-6.180340e+00	1.902113e+01	9.999047e-01	9.463210e-01	2.054000e-02	2.947685e+00	9.998679e-01	9.999632e-01	-2.949635e-04	8.000665e-01	
-8.515590e+00	1.809654e+01	9.999813e-01	9.463635e-01	2.062913e-02	2.947956e+00	9.999730e-01	9.999917e-01	-6.021789e-05	8.000314e-01	
-1.071654e+01	1.688656e+01	1.000023e+00	9.463602e-01	2.066807e-02	2.948085e+00	1.000033e+00	1.000010e+00	7.447575e-05	7.999883e-01	
-1.274848e+01	1.541026e+01	1.000049e+00	9.463567e-01	2.069096e-02	2.948160e+00	1.000069e+00	1.000020e+00	1.536249e-04	7.999614e-01	
-1.457937e+01	1.369094e+01	1.000064e+00	9.463528e-01	2.069817e-02	2.948201e+00	1.000089e+00	1.000026e+00	1.991528e-04	7.999443e-01	
-1.618034e+01	1.175570e+01	1.000070e+00	9.463459e-01	2.069628e-02	2.948213e+00	1.000098e+00	1.000028e+00	2.186566e-04	7.999324e-01	
-1.752613e+01	9.635070e+00	1.000073e+00	9.463405e-01	2.069037e-02	2.948217e+00	1.000102e+00	1.000029e+00	2.276380e-04	7.999250e-01	
-1.859553e+01	7.362490e+00	1.000074e+00	9.463363e-01	2.068200e-02	2.948215e+00	1.000103e+00	1.000029e+00	2.301981e-04	7.999204e-01	
-1.937166e+01	4.973800e+00	1.000074e+00	9.463329e-01	2.067196e-02	2.948213e+00	1.000104e+00	1.000030e+00	2.315794e-04	7.999169e-01	
-1.984229e+01	2.506660e+00	1.000076e+00	9.463302e-01	2.066096e-02	2.948215e+00	1.000106e+00	1.000030e+00	2.369164e-04	7.999128e-01	