TITLE = "SU2 Simulation"
VARIABLES = "Iteration","CLift","CDrag","CSideForce","CMx","CMy","CMz","CFx","CFy","CFz","CL/CD","Res_Flow[0]","Res_Flow[1]","Res_Flow[2]","Res_Flow[3]","Res_Flow[4]","Linear_Solver_Iterations","CFL_Number","Time(min)"
ZONE T= "Convergence history"
        4033, 6.62463524e-02, 4.03005480e-04, 0.00000000e+00, 0.00000000e+00, 0.00000000e+00, -3.69168293e-02, -1.04224699e-03, 6.62393791e-02, 0.00000000e+00, 1.64380773e+02, -6.99650980e+00, -6.98286456e+00, -7.51552097e+00, -6.40013026e+00, 0.00000000e+00, 2.0000000000, 10.0000000000, 0.0002849340
        4034, 6.62614884e-02, 4.19467755e-04, 0.00000000e+00, 0.00000000e+00, 0.00000000e+00, -3.69035358e-02, -1.02611882e-03, 6.62548707e-02, 0.00000000e+00, 1.57965630e+02, -7.05428157e+00, -6.96430538e+00, -7.13978772e+00, -6.45100287e+00, 0.00000000e+00, 2.0000000000, 10.0000000000, 0.0005643487
        4035, 6.62720763e-02, 4.25576223e-04, 0.00000000e+00, 0.00000000e+00, 0.00000000e+00, -3.68941410e-02, -1.02024278e-03, 6.62655892e-02, 0.00000000e+00, 1.55723165e+02, -7.05700942e+00, -6.99637077e+00, -7.09980898e+00, -6.45707301e+00, 0.00000000e+00, 2.0000000000, 10.0000000000, 0.0008423328
        4036, 6.62846784e-02, 4.30864680e-04, 0.00000000e+00, 0.00000000e+00, 0.00000000e+00, -3.68849042e-02, -1.01523049e-03, 6.62783037e-02, 0.00000000e+00, 1.53841059e+02, -7.02503460e+00, -6.97635480e+00, -7.05079728e+00, -6.42146112e+00, 0.00000000e+00, 2.0000000000, 10.0000000000, 0.0011256496
        4037, 6.62990331e-02, 4.34954436e-04, 0.00000000e+00, 0.00000000e+00, 0.00000000e+00, -3.68758767e-02, -1.01145486e-03, 6.62927442e-02, 0.00000000e+00, 1.52427536e+02, -6.98256197e+00, -6.94131262e+00, -7.00483986e+00, -6.37714739e+00, 0.00000000e+00, 2.0000000000, 10.0000000000, 0.0015164495
        4038, 6.63152011e-02, 4.37777907e-04, 0.00000000e+00, 0.00000000e+00, 0.00000000e+00, -3.68678818e-02, -1.00898476e-03, 6.63089700e-02, 0.00000000e+00, 1.51481379e+02, -6.94910444e+00, -6.92051308e+00, -6.98531675e+00, -6.34568938e+00, 0.00000000e+00, 2.0000000000, 10.0000000000, 0.0019632498
        4039, 6.63314976e-02, 4.40138159e-04, 0.00000000e+00, 0.00000000e+00, 0.00000000e+00, -3.68608292e-02, -1.00698058e-03, 6.63253140e-02, 0.00000000e+00, 1.50706082e+02, -6.92013196e+00, -6.89811224e+00, -6.97367670e+00, -6.31786505e+00, 0.00000000e+00, 2.0000000000, 10.0000000000, 0.0024263819
        4040, 6.63468314e-02, 4.42124688e-04, 0.00000000e+00, 0.00000000e+00, 0.00000000e+00, -3.68548993e-02, -1.00532903e-03, 6.63406876e-02, 0.00000000e+00, 1.50063621e+02, -6.89317404e+00, -6.86568461e+00, -6.95920646e+00, -6.29005639e+00, 0.00000000e+00, 2.0000000000, 10.0000000000, 0.0027689656
        4041, 6.63607789e-02, 4.43708549e-04, 0.00000000e+00, 0.00000000e+00, 0.00000000e+00, -3.68502770e-02, -1.00404980e-03, 6.63546662e-02, 0.00000000e+00, 1.49559388e+02, -6.87512887e+00, -6.84193614e+00, -6.95062396e+00, -6.27145526e+00, 0.00000000e+00, 2.0000000000, 10.0000000000, 0.0030580322
        4042, 6.63731789e-02, 4.44989874e-04, 0.00000000e+00, 0.00000000e+00, 0.00000000e+00, -3.68468351e-02, -1.00303929e-03, 6.63670913e-02, 0.00000000e+00, 1.49156605e+02, -6.86449499e+00, -6.82663979e+00, -6.94657390e+00, -6.26055203e+00, 0.00000000e+00, 2.0000000000, 10.0000000000, 0.0034431974
        4043, 6.63841735e-02, 4.46018411e-04, 0.00000000e+00, 0.00000000e+00, 0.00000000e+00, -3.68442928e-02, -1.00225084e-03, 6.63781057e-02, 0.00000000e+00, 1.48837294e+02, -6.86012245e+00, -6.82042951e+00, -6.94544455e+00, -6.25605612e+00, 0.00000000e+00, 2.0000000000, 10.0000000000, 0.0037536343
        4044, 6.63940078e-02, 4.46799098e-04, 0.00000000e+00, 0.00000000e+00, 0.00000000e+00, -3.68423984e-02, -1.00168488e-03, 6.63879547e-02, 0.00000000e+00, 1.48599243e+02, -6.86055700e+00, -6.82275327e+00, -6.94680145e+00, -6.25641773e+00, 0.00000000e+00, 2.0000000000, 10.0000000000, 0.0040454825
        4045, 6.64029160e-02, 4.47355357e-04, 0.00000000e+00, 0.00000000e+00, 0.00000000e+00, -3.68409648e-02, -1.00132308e-03, 6.63968729e-02, 0.00000000e+00, 1.48434382e+02, -6.86409008e+00, -6.83137881e+00, -6.95017697e+00, -6.25990963e+00, 0.00000000e+00, 2.0000000000, 10.0000000000, 0.0043214480
        4046, 6.64110465e-02, 4.47744693e-04, 0.00000000e+00, 0.00000000e+00, 0.00000000e+00, -3.68398762e-02, -1.00111120e-03, 6.64050100e-02, 0.00000000e+00, 1.48323470e+02, -6.86933996e+00, -6.84322147e+00, -6.95491050e+00, -6.26519349e+00, 0.00000000e+00, 2.0000000000, 10.0000000000, 0.0046027342
        4047, 6.64184634e-02, 4.48022964e-04, 0.00000000e+00, 0.00000000e+00, 0.00000000e+00, -3.68390631e-02, -1.00099480e-03, 6.64124311e-02, 0.00000000e+00, 1.48247899e+02, -6.87549801e+00, -6.85502388e+00, -6.96032170e+00, -6.27147117e+00, 0.00000000e+00, 2.0000000000, 10.0000000000, 0.0048800151
        4048, 6.64252064e-02, 4.48225711e-04, 0.00000000e+00, 0.00000000e+00, 0.00000000e+00, -3.68384699e-02, -1.00093920e-03, 6.64191770e-02, 0.00000000e+00, 1.48195886e+02, -6.88205904e+00, -6.86363326e+00, -6.96597076e+00, -6.27814320e+00, 0.00000000e+00, 2.0000000000, 10.0000000000, 0.0051642338
        4049, 6.64313233e-02, 4.48373962e-04, 0.00000000e+00, 0.00000000e+00, 0.00000000e+00, -3.68380434e-02, -1.00092442e-03, 6.64252957e-02, 0.00000000e+00, 1.48160529e+02, -6.88851172e+00, -6.86640157e+00, -6.97179002e+00, -6.28450306e+00, 0.00000000e+00, 2.0000000000, 10.0000000000, 0.0054634174
        4050, 6.64368768e-02, 4.48481747e-04, 0.00000000e+00, 0.00000000e+00, 0.00000000e+00, -3.68377346e-02, -1.00093781e-03, 6.64308502e-02, 0.00000000e+00, 1.48137304e+02, -6.89431381e+00, -6.86196100e+00, -6.97795773e+00, -6.28978297e+00, 0.00000000e+00, 2.0000000000, 10.0000000000, 0.0057356159
        4051, 6.64419383e-02, 4.48559493e-04, 0.00000000e+00, 0.00000000e+00, 0.00000000e+00, -3.68375032e-02, -1.00097050e-03, 6.64359122e-02, 0.00000000e+00, 1.48122912e+02, -6.89908084e+00, -6.85083197e+00, -6.98469903e+00, -6.29345461e+00, 0.00000000e+00, 2.0000000000, 10.0000000000, 0.0060474316
        4052, 6.64465729e-02, 4.48616888e-04, 0.00000000e+00, 0.00000000e+00, 0.00000000e+00, -3.68373202e-02, -1.00101422e-03, 6.64405470e-02, 0.00000000e+00, 1.48114292e+02, -6.90278188e+00, -6.83515161e+00, -6.99218371e+00, -6.29550562e+00, 0.00000000e+00, 2.0000000000, 10.0000000000, 0.0063556314
        4053, 6.64508278e-02, 4.48663304e-04, 0.00000000e+00, 0.00000000e+00, 0.00000000e+00, -3.68371671e-02, -1.00106063e-03, 6.64448018e-02, 0.00000000e+00, 1.48108453e+02, -6.90579370e+00, -6.81767833e+00, -7.00053888e+00, -6.29647378e+00, 0.00000000e+00, 2.0000000000, 10.0000000000, 0.0066728314
        4054, 6.64547337e-02, 4.48708480e-04, 0.00000000e+00, 0.00000000e+00, 0.00000000e+00, -3.68370344e-02, -1.00110068e-03, 6.64487078e-02, 0.00000000e+00, 1.48102246e+02, -6.90874966e+00, -6.80087954e+00, -7.00981545e+00, -6.29720963e+00, 0.00000000e+00, 2.0000000000, 10.0000000000, 0.0069491982
        4055, 6.64583125e-02, 4.48763397e-04, 0.00000000e+00, 0.00000000e+00, 0.00000000e+00, -3.68369175e-02, -1.00112384e-03, 6.64522869e-02, 0.00000000e+00, 1.48092097e+02, -6.91240816e+00, -6.78664176e+00, -7.02002602e+00, -6.29866993e+00, 0.00000000e+00, 2.0000000000, 10.0000000000, 0.0072440505
        4056, 6.64615850e-02, 4.48840415e-04, 0.00000000e+00, 0.00000000e+00, 0.00000000e+00, -3.68368125e-02, -1.00111823e-03, 6.64555603e-02, 0.00000000e+00, 1.48073976e+02, -6.91763200e+00, -6.77644002e+00, -7.03127123e+00, -6.30186948e+00, 0.00000000e+00, 2.0000000000, 10.0000000000, 0.0075175007
        4057, 6.64645789e-02, 4.48953031e-04, 0.00000000e+00, 0.00000000e+00, 0.00000000e+00, -3.68367124e-02, -1.00107096e-03, 6.64585560e-02, 0.00000000e+00, 1.48043502e+02, -6.92546599e+00, -6.77165697e+00, -7.04391523e+00, -6.30797224e+00, 0.00000000e+00, 2.0000000000, 10.0000000000, 0.0077817162
        4058, 6.64673344e-02, 4.49115137e-04, 0.00000000e+00, 0.00000000e+00, 0.00000000e+00, -3.68366040e-02, -1.00096900e-03, 6.64613144e-02, 0.00000000e+00, 1.47996202e+02, -6.93726913e+00, -6.77386724e+00, -7.05879256e+00, -6.31845317e+00, 0.00000000e+00, 2.0000000000, 10.0000000000, 0.0080521146
        4059, 6.64699066e-02, 4.49339611e-04, 0.00000000e+00, 0.00000000e+00, 0.00000000e+00, -3.68364662e-02, -1.00080069e-03, 6.64638908e-02, 0.00000000e+00, 1.47927992e+02, -6.95484796e+00, -6.78501745e+00, -7.07743659e+00, -6.33525804e+00, 0.00000000e+00, 2.0000000000, 10.0000000000, 0.0083209475
        4060, 6.64723652e-02, 4.49636370e-04, 0.00000000e+00, 0.00000000e+00, 0.00000000e+00, -3.68362708e-02, -1.00055763e-03, 6.64663553e-02, 0.00000000e+00, 1.47835828e+02, -6.98065480e+00, -6.80760196e+00, -7.10244622e+00, -6.36102917e+00, 0.00000000e+00, 2.0000000000, 10.0000000000, 0.0086069504
        4061, 6.64747849e-02, 4.50010193e-04, 0.00000000e+00, 0.00000000e+00, 0.00000000e+00, -3.68359883e-02, -1.00023669e-03, 6.64687826e-02, 0.00000000e+00, 1.47718398e+02, -7.01828311e+00, -6.84510989e+00, -7.13828451e+00, -6.39966062e+00, 0.00000000e+00, 2.0000000000, 10.0000000000, 0.0088820338
        4062, 6.64772124e-02, 4.50454478e-04, 0.00000000e+00, 0.00000000e+00, 0.00000000e+00, -3.68356202e-02, -9.99845465e-04, 6.64712193e-02, 0.00000000e+00, 1.47578092e+02, -7.07277107e+00, -6.90206605e+00, -7.19226759e+00, -6.45667404e+00, 0.00000000e+00, 2.0000000000, 10.0000000000, 0.0092045983
        4063, 6.64797351e-02, 4.50909690e-04, 0.00000000e+00, 0.00000000e+00, 0.00000000e+00, -3.68351586e-02, -9.99445393e-04, 6.64737513e-02, 0.00000000e+00, 1.47434701e+02, -7.14558906e+00, -6.97813245e+00, -7.27051825e+00, -6.53396017e+00, 0.00000000e+00, 2.0000000000, 10.0000000000, 0.0094794671
        4064, 6.64828026e-02, 4.51305383e-04, 0.00000000e+00, 0.00000000e+00, 0.00000000e+00, -3.68343914e-02, -9.99116712e-04, 6.64768267e-02, 0.00000000e+00, 1.47312231e+02, -7.21037839e+00, -7.04339375e+00, -7.34872363e+00, -6.60319695e+00, 0.00000000e+00, 2.0000000000, 10.0000000000, 0.0098177671
        4065, 6.64865639e-02, 4.51634599e-04, 0.00000000e+00, 0.00000000e+00, 0.00000000e+00, -3.68332525e-02, -9.98869624e-04, 6.64805942e-02, 0.00000000e+00, 1.47213176e+02, -7.24454800e+00, -7.07779721e+00, -7.39730366e+00, -6.63978029e+00, 0.00000000e+00, 2.0000000000, 10.0000000000, 0.0101040999
        4066, 6.64906159e-02, 4.51943161e-04, 0.00000000e+00, 0.00000000e+00, 0.00000000e+00, -3.68319690e-02, -9.98649530e-04, 6.64846520e-02, 0.00000000e+00, 1.47121633e+02, -7.26608176e+00, -7.10300317e+00, -7.43299956e+00, -6.66364875e+00, 0.00000000e+00, 2.0000000000, 10.0000000000, 0.0103996833
        4067, 6.64947919e-02, 4.52201958e-04, 0.00000000e+00, 0.00000000e+00, 0.00000000e+00, -3.68306455e-02, -9.98481894e-04, 6.64888327e-02, 0.00000000e+00, 1.47046670e+02, -7.28527347e+00, -7.13028705e+00, -7.46550966e+00, -6.68599605e+00, 0.00000000e+00, 2.0000000000, 10.0000000000, 0.0107017676
        4068, 6.64989655e-02, 4.52393770e-04, 0.00000000e+00, 0.00000000e+00, 0.00000000e+00, -3.68293849e-02, -9.98381176e-04, 6.64930095e-02, 0.00000000e+00, 1.46993548e+02, -7.30088147e+00, -7.15720770e+00, -7.49284802e+00, -6.70471675e+00, 0.00000000e+00, 2.0000000000, 10.0000000000, 0.0109911839
        4069, 6.65030600e-02, 4.52556999e-04, 0.00000000e+00, 0.00000000e+00, 0.00000000e+00, -3.68282532e-02, -9.98307306e-04, 6.64971065e-02, 0.00000000e+00, 1.46949578e+02, -7.30876725e+00, -7.17723557e+00, -7.50940592e+00, -6.71463179e+00, 0.00000000e+00, 2.0000000000, 10.0000000000, 0.0113053322
        4070, 6.65070181e-02, 4.52723907e-04, 0.00000000e+00, 0.00000000e+00, 0.00000000e+00, -3.68272788e-02, -9.98226784e-04, 6.65010674e-02, 0.00000000e+00, 1.46904144e+02, -7.31166016e+00, -7.19226463e+00, -7.51821028e+00, -6.71888482e+00, 0.00000000e+00, 2.0000000000, 10.0000000000, 0.0116077979
        4071, 6.65108026e-02, 4.52877577e-04, 0.00000000e+00, 0.00000000e+00, 0.00000000e+00, -3.68264668e-02, -9.98155708e-04, 6.65048543e-02, 0.00000000e+00, 1.46862653e+02, -7.31377190e+00, -7.20654194e+00, -7.52469922e+00, -6.72238050e+00, 0.00000000e+00, 2.0000000000, 10.0000000000, 0.0118819992
        4072, 6.65143905e-02, 4.52993997e-04, 0.00000000e+00, 0.00000000e+00, 0.00000000e+00, -3.68258161e-02, -9.98117586e-04, 6.65084439e-02, 0.00000000e+00, 1.46832830e+02, -7.31582764e+00, -7.22046610e+00, -7.53005064e+00, -6.72591958e+00, 0.00000000e+00, 2.0000000000, 10.0000000000, 0.0121571342
        4073, 6.65177691e-02, 4.53072993e-04, 0.00000000e+00, 0.00000000e+00, 0.00000000e+00, -3.68253175e-02, -9.98112313e-04, 6.65118234e-02, 0.00000000e+00, 1.46814686e+02, -7.31672729e+00, -7.23245526e+00, -7.53341413e+00, -6.72818236e+00, 0.00000000e+00, 2.0000000000, 10.0000000000, 0.0124764005
        4074, 6.65209255e-02, 4.53122294e-04, 0.00000000e+00, 0.00000000e+00, 0.00000000e+00, -3.68249544e-02, -9.98131878e-04, 6.65149801e-02, 0.00000000e+00, 1.46805678e+02, -7.31636323e+00, -7.24209034e+00, -7.53499140e+00, -6.72897634e+00, 0.00000000e+00, 2.0000000000, 10.0000000000, 0.0128119151
        4075, 6.65238452e-02, 4.53143071e-04, 0.00000000e+00, 0.00000000e+00, 0.00000000e+00, -3.68247088e-02, -9.98174799e-04, 6.65178995e-02, 0.00000000e+00, 1.46805390e+02, -7.31534553e+00, -7.24971319e+00, -7.53546296e+00, -6.72890564e+00, 0.00000000e+00, 2.0000000000, 10.0000000000, 0.0130917311
        4076, 6.65265220e-02, 4.53136703e-04, 0.00000000e+00, 0.00000000e+00, 0.00000000e+00, -3.68245630e-02, -9.98239561e-04, 6.65205757e-02, 0.00000000e+00, 1.46813360e+02, -7.31398168e+00, -7.25541362e+00, -7.53502288e+00, -6.72824180e+00, 0.00000000e+00, 2.0000000000, 10.0000000000, 0.0133680820
        4077, 6.65289647e-02, 4.53109659e-04, 0.00000000e+00, 0.00000000e+00, 0.00000000e+00, -3.68244969e-02, -9.98319886e-04, 6.65230172e-02, 0.00000000e+00, 1.46827514e+02, -7.31246482e+00, -7.25934653e+00, -7.53388409e+00, -6.72716506e+00, 0.00000000e+00, 2.0000000000, 10.0000000000, 0.0136461496
        4078, 6.65311925e-02, 4.53068949e-04, 0.00000000e+00, 0.00000000e+00, 0.00000000e+00, -3.68244895e-02, -9.98409185e-04, 6.65252436e-02, 0.00000000e+00, 1.46845624e+02, -7.31119098e+00, -7.26200565e+00, -7.53260403e+00, -6.72611471e+00, 0.00000000e+00, 2.0000000000, 10.0000000000, 0.0139213483
        4079, 6.65332281e-02, 4.53019807e-04, 0.00000000e+00, 0.00000000e+00, 0.00000000e+00, -3.68245229e-02, -9.98502721e-04, 6.65272775e-02, 0.00000000e+00, 1.46866047e+02, -7.31054679e+00, -7.26390853e+00, -7.53169516e+00, -6.72553222e+00, 0.00000000e+00, 2.0000000000, 10.0000000000, 0.0142156482
        4080, 6.65350943e-02, 4.52967035e-04, 0.00000000e+00, 0.00000000e+00, 0.00000000e+00, -3.68245827e-02, -9.98596191e-04, 6.65291422e-02, 0.00000000e+00, 1.46887277e+02, -7.31078491e+00, -7.26545413e+00, -7.53150487e+00, -6.72571522e+00, 0.00000000e+00, 2.0000000000, 10.0000000000, 0.0144969662
        4081, 6.65368136e-02, 4.52914913e-04, 0.00000000e+00, 0.00000000e+00, 0.00000000e+00, -3.68246581e-02, -9.98685809e-04, 6.65308600e-02, 0.00000000e+00, 1.46907977e+02, -7.31213583e+00, -7.26703443e+00, -7.53238958e+00, -6.72694227e+00, 0.00000000e+00, 2.0000000000, 10.0000000000, 0.0148731987
        4082, 6.65384070e-02, 4.52866275e-04, 0.00000000e+00, 0.00000000e+00, 0.00000000e+00, -3.68247410e-02, -9.98769194e-04, 6.65324519e-02, 0.00000000e+00, 1.46927273e+02, -7.31482857e+00, -7.26904743e+00, -7.53469902e+00, -6.72949549e+00, 0.00000000e+00, 2.0000000000, 10.0000000000, 0.0153019826
        4083, 6.65398924e-02, 4.52822679e-04, 0.00000000e+00, 0.00000000e+00, 0.00000000e+00, -3.68248263e-02, -9.98845183e-04, 6.65339360e-02, 0.00000000e+00, 1.46944699e+02, -7.31903502e+00, -7.27185068e+00, -7.53868859e+00, -6.73359828e+00, 0.00000000e+00, 2.0000000000, 10.0000000000, 0.0156380335
        4084, 6.65412855e-02, 4.52784855e-04, 0.00000000e+00, 0.00000000e+00, 0.00000000e+00, -3.68249109e-02, -9.98913388e-04, 6.65353279e-02, 0.00000000e+00, 1.46960051e+02, -7.32488730e+00, -7.27579053e+00, -7.54456317e+00, -6.73943506e+00, 0.00000000e+00, 2.0000000000, 10.0000000000, 0.0159652154
        4085, 6.65425996e-02, 4.52752755e-04, 0.00000000e+00, 0.00000000e+00, 0.00000000e+00, -3.68249934e-02, -9.98974148e-04, 6.65366410e-02, 0.00000000e+00, 1.46973373e+02, -7.33251742e+00, -7.28124203e+00, -7.55253453e+00, -6.74719577e+00, 0.00000000e+00, 2.0000000000, 10.0000000000, 0.0162705342
        4086, 6.65438456e-02, 4.52725652e-04, 0.00000000e+00, 0.00000000e+00, 0.00000000e+00, -3.68250737e-02, -9.99028425e-04, 6.65378861e-02, 0.00000000e+00, 1.46984924e+02, -7.34204694e+00, -7.28859339e+00, -7.56280160e+00, -6.75706383e+00, 0.00000000e+00, 2.0000000000, 10.0000000000, 0.0165977836
        4087, 6.65450320e-02, 4.52702442e-04, 0.00000000e+00, 0.00000000e+00, 0.00000000e+00, -3.68251524e-02, -9.99077512e-04, 6.65390718e-02, 0.00000000e+00, 1.46995081e+02, -7.35356508e+00, -7.29821748e+00, -7.57552725e+00, -6.76919106e+00, 0.00000000e+00, 2.0000000000, 10.0000000000, 0.0169201175
        4088, 6.65461656e-02, 4.52681869e-04, 0.00000000e+00, 0.00000000e+00, 0.00000000e+00, -3.68252308e-02, -9.99122809e-04, 6.65402046e-02, 0.00000000e+00, 1.47004265e+02, -7.36713500e+00, -7.31047038e+00, -7.59085841e+00, -6.78370395e+00, 0.00000000e+00, 2.0000000000, 10.0000000000, 0.0172042648
        4089, 6.65472513e-02, 4.52662626e-04, 0.00000000e+00, 0.00000000e+00, 0.00000000e+00, -3.68253103e-02, -9.99165733e-04, 6.65412897e-02, 0.00000000e+00, 1.47012913e+02, -7.38280893e+00, -7.32570207e+00, -7.60895309e+00, -6.80071987e+00, 0.00000000e+00, 2.0000000000, 10.0000000000, 0.0174808820
        4090, 6.65482929e-02, 4.52643439e-04, 0.00000000e+00, 0.00000000e+00, 0.00000000e+00, -3.68253925e-02, -9.99207637e-04, 6.65423306e-02, 0.00000000e+00, 1.47021446e+02, -7.40063782e+00, -7.34426855e+00, -7.63000006e+00, -6.82035729e+00, 0.00000000e+00, 2.0000000000, 10.0000000000, 0.0177603642
        4091, 6.65492930e-02, 4.52623133e-04, 0.00000000e+00, 0.00000000e+00, 0.00000000e+00, -3.68254789e-02, -9.99249755e-04, 6.65433300e-02, 0.00000000e+00, 1.47030251e+02, -7.42068973e+00, -7.36656066e+00, -7.65425402e+00, -6.84275632e+00, 0.00000000e+00, 2.0000000000, 10.0000000000, 0.0180999994
        4092, 6.65502535e-02, 4.52600638e-04, 0.00000000e+00, 0.00000000e+00, 0.00000000e+00, -3.68255709e-02, -9.99293197e-04, 6.65442897e-02, 0.00000000e+00, 1.47039681e+02, -7.44307770e+00, -7.39305368e+00, -7.68208373e+00, -6.86811122e+00, 0.00000000e+00, 2.0000000000, 10.0000000000, 0.0184993664
        4093, 6.65511756e-02, 4.52574982e-04, 0.00000000e+00, 0.00000000e+00, 0.00000000e+00, -3.68256699e-02, -9.99338964e-04, 6.65452111e-02, 0.00000000e+00, 1.47050054e+02, -7.46797356e+00, -7.42435433e+00, -7.71400210e+00, -6.89668761e+00, 0.00000000e+00, 2.0000000000, 10.0000000000, 0.0189453165
        4094, 6.65520604e-02, 4.52545308e-04, 0.00000000e+00, 0.00000000e+00, 0.00000000e+00, -3.68257770e-02, -9.99387931e-04, 6.65460950e-02, 0.00000000e+00, 1.47061651e+02, -7.49559872e+00, -7.46123518e+00, -7.75066968e+00, -6.92881201e+00, 0.00000000e+00, 2.0000000000, 10.0000000000, 0.0192971309
        4095, 6.65529081e-02, 4.52510907e-04, 0.00000000e+00, 0.00000000e+00, 0.00000000e+00, -3.68258934e-02, -9.99440816e-04, 6.65469417e-02, 0.00000000e+00, 1.47074705e+02, -7.52619669e+00, -7.50465936e+00, -7.79287393e+00, -6.96483583e+00, 0.00000000e+00, 2.0000000000, 10.0000000000, 0.0195960005
        4096, 6.65537186e-02, 4.52471280e-04, 0.00000000e+00, 0.00000000e+00, 0.00000000e+00, -3.68260198e-02, -9.99498115e-04, 6.65477512e-02, 0.00000000e+00, 1.47089377e+02, -7.55996153e+00, -7.55575242e+00, -7.84142524e+00, -7.00503523e+00, 0.00000000e+00, 2.0000000000, 10.0000000000, 0.0198839823
        4097, 6.65544908e-02, 4.52426361e-04, 0.00000000e+00, 0.00000000e+00, 0.00000000e+00, -3.68261565e-02, -9.99559869e-04, 6.65485222e-02, 0.00000000e+00, 1.47105687e+02, -7.59682466e+00, -7.61553063e+00, -7.89676493e+00, -7.04931063e+00, 0.00000000e+00, 2.0000000000, 10.0000000000, 0.0201670329
        4098, 6.65552210e-02, 4.52377077e-04, 0.00000000e+00, 0.00000000e+00, 0.00000000e+00, -3.68263021e-02, -9.99625070e-04, 6.65492512e-02, 0.00000000e+00, 1.47123328e+02, -7.63582333e+00, -7.68370185e+00, -7.95766448e+00, -7.09629770e+00, 0.00000000e+00, 2.0000000000, 10.0000000000, 0.0204873999
        4099, 6.65558959e-02, 4.52325464e-04, 0.00000000e+00, 0.00000000e+00, 0.00000000e+00, -3.68264536e-02, -9.99691395e-04, 6.65499248e-02, 0.00000000e+00, 1.47141608e+02, -7.67333190e+00, -7.75436102e+00, -8.01737519e+00, -7.14090976e+00, 0.00000000e+00, 2.0000000000, 10.0000000000, 0.0207946658
        4100, 6.65564832e-02, 4.52271469e-04, 0.00000000e+00, 0.00000000e+00, 0.00000000e+00, -3.68266117e-02, -9.99758188e-04, 6.65505108e-02, 0.00000000e+00, 1.47160473e+02, -7.69994338e+00, -7.80682316e+00, -8.05695516e+00, -7.17029685e+00, 0.00000000e+00, 2.0000000000, 10.0000000000, 0.0210933487
        4101, 6.65569516e-02, 4.52210221e-04, 0.00000000e+00, 0.00000000e+00, 0.00000000e+00, -3.68267838e-02, -9.99829640e-04, 6.65509777e-02, 0.00000000e+00, 1.47181440e+02, -7.70370381e+00, -7.81438587e+00, -8.05417560e+00, -7.16968859e+00, 0.00000000e+00, 2.0000000000, 10.0000000000, 0.0213741144
        4102, 6.65573032e-02, 4.52144410e-04, 0.00000000e+00, 0.00000000e+00, 0.00000000e+00, -3.68269721e-02, -9.99903107e-04, 6.65513279e-02, 0.00000000e+00, 1.47203641e+02, -7.68928668e+00, -7.79163170e+00, -8.02180893e+00, -7.14793720e+00, 0.00000000e+00, 2.0000000000, 10.0000000000, 0.0216717839
        4103, 6.65575598e-02, 4.52081076e-04, 0.00000000e+00, 0.00000000e+00, 0.00000000e+00, -3.68271712e-02, -9.99972022e-04, 6.65515830e-02, 0.00000000e+00, 1.47224831e+02, -7.67239317e+00, -7.76892052e+00, -7.98985149e+00, -7.12564993e+00, 0.00000000e+00, 2.0000000000, 10.0000000000, 0.0219445666
        4104, 6.65577423e-02, 4.52021668e-04, 0.00000000e+00, 0.00000000e+00, 0.00000000e+00, -3.68273743e-02, -1.00003540e-03, 6.65517642e-02, 0.00000000e+00, 1.47244584e+02, -7.66112675e+00, -7.75492882e+00, -7.96974991e+00, -7.11147764e+00, 0.00000000e+00, 2.0000000000, 10.0000000000, 0.0222296476
        4105, 6.65578737e-02, 4.51966119e-04, 0.00000000e+00, 0.00000000e+00, 0.00000000e+00, -3.68275695e-02, -1.00009380e-03, 6.65518943e-02, 0.00000000e+00, 1.47262971e+02, -7.65647645e+00, -7.74709486e+00, -7.95942423e+00, -7.10529303e+00, 0.00000000e+00, 2.0000000000, 10.0000000000, 0.0225005984
        4106, 6.65579768e-02, 4.51913363e-04, 0.00000000e+00, 0.00000000e+00, 0.00000000e+00, -3.68277477e-02, -1.00014879e-03, 6.65519963e-02, 0.00000000e+00, 1.47280391e+02, -7.65587621e+00, -7.74268071e+00, -7.95394150e+00, -7.10370737e+00, 0.00000000e+00, 2.0000000000, 10.0000000000, 0.0228347500
        4107, 6.65580654e-02, 4.51863640e-04, 0.00000000e+00, 0.00000000e+00, 0.00000000e+00, -3.68279073e-02, -1.00020044e-03, 6.65520837e-02, 0.00000000e+00, 1.47296794e+02, -7.65995972e+00, -7.74515676e+00, -7.95516683e+00, -7.10787234e+00, 0.00000000e+00, 2.0000000000, 10.0000000000, 0.0231365999
        4108, 6.65581510e-02, 4.51818708e-04, 0.00000000e+00, 0.00000000e+00, 0.00000000e+00, -3.68280456e-02, -1.00024723e-03, 6.65521684e-02, 0.00000000e+00, 1.47311632e+02, -7.66917262e+00, -7.75663985e+00, -7.96412866e+00, -7.11848433e+00, 0.00000000e+00, 2.0000000000, 10.0000000000, 0.0234360655
        4109, 6.65582388e-02, 4.51779061e-04, 0.00000000e+00, 0.00000000e+00, 0.00000000e+00, -3.68281631e-02, -1.00028878e-03, 6.65522553e-02, 0.00000000e+00, 1.47324754e+02, -7.68037590e+00, -7.77261497e+00, -7.97661106e+00, -7.13148970e+00, 0.00000000e+00, 2.0000000000, 10.0000000000, 0.0237109145
        4110, 6.65583241e-02, 4.51744217e-04, 0.00000000e+00, 0.00000000e+00, 0.00000000e+00, -3.68282653e-02, -1.00032547e-03, 6.65523397e-02, 0.00000000e+00, 1.47336306e+02, -7.69199645e+00, -7.79037244e+00, -7.99057655e+00, -7.14488792e+00, 0.00000000e+00, 2.0000000000, 10.0000000000, 0.0239933491
        4111, 6.65584019e-02, 4.51714084e-04, 0.00000000e+00, 0.00000000e+00, 0.00000000e+00, -3.68283565e-02, -1.00035730e-03, 6.65524169e-02, 0.00000000e+00, 1.47346307e+02, -7.70270652e+00, -7.80728655e+00, -8.00364281e+00, -7.15701725e+00, 0.00000000e+00, 2.0000000000, 10.0000000000, 0.0242671490
        4112, 6.65584702e-02, 4.51688763e-04, 0.00000000e+00, 0.00000000e+00, 0.00000000e+00, -3.68284384e-02, -1.00038410e-03, 6.65524846e-02, 0.00000000e+00, 1.47354718e+02, -7.71117838e+00, -7.82039947e+00, -8.01335842e+00, -7.16617217e+00, 0.00000000e+00, 2.0000000000, 10.0000000000, 0.0245398839
        4113, 6.65585274e-02, 4.51668355e-04, 0.00000000e+00, 0.00000000e+00, 0.00000000e+00, -3.68285126e-02, -1.00040575e-03, 6.65525414e-02, 0.00000000e+00, 1.47361502e+02, -7.71813810e+00, -7.83074291e+00, -8.02089520e+00, -7.17339362e+00, 0.00000000e+00, 2.0000000000, 10.0000000000, 0.0248307149
        4114, 6.65585741e-02, 4.51653314e-04, 0.00000000e+00, 0.00000000e+00, 0.00000000e+00, -3.68285794e-02, -1.00042181e-03, 6.65525877e-02, 0.00000000e+00, 1.47366513e+02, -7.72460082e+00, -7.84015477e+00, -8.02799151e+00, -7.18004488e+00, 0.00000000e+00, 2.0000000000, 10.0000000000, 0.0251018842
        4115, 6.65586131e-02, 4.51644143e-04, 0.00000000e+00, 0.00000000e+00, 0.00000000e+00, -3.68286380e-02, -1.00043183e-03, 6.65526265e-02, 0.00000000e+00, 1.47369592e+02, -7.73116374e+00, -7.84951409e+00, -8.03552998e+00, -7.18682772e+00, 0.00000000e+00, 2.0000000000, 10.0000000000, 0.0254419645
        4116, 6.65586478e-02, 4.51640890e-04, 0.00000000e+00, 0.00000000e+00, 0.00000000e+00, -3.68286877e-02, -1.00043584e-03, 6.65526611e-02, 0.00000000e+00, 1.47370730e+02, -7.73806289e+00, -7.85900631e+00, -8.04369525e+00, -7.19396187e+00, 0.00000000e+00, 2.0000000000, 10.0000000000, 0.0257504980
        4117, 6.65586808e-02, 4.51642984e-04, 0.00000000e+00, 0.00000000e+00, 0.00000000e+00, -3.68287286e-02, -1.00043447e-03, 6.65526942e-02, 0.00000000e+00, 1.47370120e+02, -7.74537891e+00, -7.86876729e+00, -8.05245638e+00, -7.20152154e+00, 0.00000000e+00, 2.0000000000, 10.0000000000, 0.0260673841
        4118, 6.65587134e-02, 4.51649312e-04, 0.00000000e+00, 0.00000000e+00, 0.00000000e+00, -3.68287619e-02, -1.00042885e-03, 6.65527269e-02, 0.00000000e+00, 1.47368127e+02, -7.75321299e+00, -7.87922582e+00, -8.06188481e+00, -7.20965690e+00, 0.00000000e+00, 2.0000000000, 10.0000000000, 0.0263478676
        4119, 6.65587455e-02, 4.51658449e-04, 0.00000000e+00, 0.00000000e+00, 0.00000000e+00, -3.68287894e-02, -1.00042042e-03, 6.65527592e-02, 0.00000000e+00, 1.47365217e+02, -7.76170203e+00, -7.89095580e+00, -8.07215567e+00, -7.21857518e+00, 0.00000000e+00, 2.0000000000, 10.0000000000, 0.0266236663
        4120, 6.65587763e-02, 4.51668881e-04, 0.00000000e+00, 0.00000000e+00, 0.00000000e+00, -3.68288128e-02, -1.00041066e-03, 6.65527902e-02, 0.00000000e+00, 1.47361882e+02, -7.77100817e+00, -7.90449755e+00, -8.08350460e+00, -7.22849959e+00, 0.00000000e+00, 2.0000000000, 10.0000000000, 0.0269028823
        4121, 6.65588043e-02, 4.51679201e-04, 0.00000000e+00, 0.00000000e+00, 0.00000000e+00, -3.68288341e-02, -1.00040095e-03, 6.65528184e-02, 0.00000000e+00, 1.47358577e+02, -7.78132314e+00, -7.92034410e+00, -8.09622605e+00, -7.23967098e+00, 0.00000000e+00, 2.0000000000, 10.0000000000, 0.0271826148
        4122, 6.65588282e-02, 4.51688244e-04, 0.00000000e+00, 0.00000000e+00, 0.00000000e+00, -3.68288544e-02, -1.00039243e-03, 6.65528425e-02, 0.00000000e+00, 1.47355680e+02, -7.79286678e+00, -7.93900025e+00, -8.11067557e+00, -7.25235219e+00, 0.00000000e+00, 2.0000000000, 10.0000000000, 0.0274499655
        4123, 6.65588468e-02, 4.51695186e-04, 0.00000000e+00, 0.00000000e+00, 0.00000000e+00, -3.68288748e-02, -1.00038590e-03, 6.65528613e-02, 0.00000000e+00, 1.47353456e+02, -7.80584619e+00, -7.96096268e+00, -8.12719903e+00, -7.26677930e+00, 0.00000000e+00, 2.0000000000, 10.0000000000, 0.0277278662
        4124, 6.65588592e-02, 4.51699589e-04, 0.00000000e+00, 0.00000000e+00, 0.00000000e+00, -3.68288959e-02, -1.00038177e-03, 6.65528738e-02, 0.00000000e+00, 1.47352047e+02, -7.82040982e+00, -7.98665835e+00, -8.14603654e+00, -7.28310517e+00, 0.00000000e+00, 2.0000000000, 10.0000000000, 0.0280140837
        4125, 6.65588648e-02, 4.51701380e-04, 0.00000000e+00, 0.00000000e+00, 0.00000000e+00, -3.68289181e-02, -1.00038010e-03, 6.65528794e-02, 0.00000000e+00, 1.47351475e+02, -7.83661888e+00, -8.01640275e+00, -8.16725185e+00, -7.30136695e+00, 0.00000000e+00, 2.0000000000, 10.0000000000, 0.0282901009
        4126, 6.65588628e-02, 4.51700765e-04, 0.00000000e+00, 0.00000000e+00, 0.00000000e+00, -3.68289417e-02, -1.00038067e-03, 6.65528773e-02, 0.00000000e+00, 1.47351672e+02, -7.85445506e+00, -8.05043922e+00, -8.19072801e+00, -7.32150386e+00, 0.00000000e+00, 2.0000000000, 10.0000000000, 0.0285643498
        4127, 6.65588524e-02, 4.51698134e-04, 0.00000000e+00, 0.00000000e+00, 0.00000000e+00, -3.68289669e-02, -1.00038307e-03, 6.65528670e-02, 0.00000000e+00, 1.47352507e+02, -7.87383703e+00, -8.08900539e+00, -8.21618780e+00, -7.34338550e+00, 0.00000000e+00, 2.0000000000, 10.0000000000, 0.0288422505
        4128, 6.65588327e-02, 4.51693965e-04, 0.00000000e+00, 0.00000000e+00, 0.00000000e+00, -3.68289942e-02, -1.00038681e-03, 6.65528472e-02, 0.00000000e+00, 1.47353823e+02, -7.89461287e+00, -8.13233145e+00, -8.24318123e+00, -7.36680478e+00, 0.00000000e+00, 2.0000000000, 10.0000000000, 0.0291156332
        4129, 6.65588023e-02, 4.51688742e-04, 0.00000000e+00, 0.00000000e+00, 0.00000000e+00, -3.68290239e-02, -1.00039137e-03, 6.65528167e-02, 0.00000000e+00, 1.47355460e+02, -7.91650226e+00, -8.18046827e+00, -8.27099577e+00, -7.39140412e+00, 0.00000000e+00, 2.0000000000, 10.0000000000, 0.0293949167
        4130, 6.65587596e-02, 4.51682885e-04, 0.00000000e+00, 0.00000000e+00, 0.00000000e+00, -3.68290564e-02, -1.00039629e-03, 6.65527738e-02, 0.00000000e+00, 1.47357276e+02, -7.93896042e+00, -8.23271799e+00, -8.29843142e+00, -7.41650097e+00, 0.00000000e+00, 2.0000000000, 10.0000000000, 0.0296624660