# vtk DataFile Version 3.0
vtk output
ASCII
DATASET UNSTRUCTURED_GRID
POINTS 5233 float
9.997500e-01	-3.632897e-05	0.0	9.990000e-01	-1.452538e-04	0.0	9.977600e-01	-3.251112e-04	0.0	9.960200e-01	-5.769984e-04	0.0	9.937800e-01	-9.004365e-04	0.0	9.910500e-01	-1.293364e-03	0.0	9.878400e-01	-1.753610e-03	0.0	9.841300e-01	-2.283177e-03	0.0	9.799500e-01	-2.876826e-03	0.0	9.752800e-01	-3.536324e-03	0.0	9.701500e-01	-4.256269e-03	0.0	9.645400e-01	-5.038225e-03	0.0	9.584700e-01	-5.878077e-03	0.0	9.519400e-01	-6.774429e-03	0.0	9.449600e-01	-7.724467e-03	0.0	9.375400e-01	-8.725349e-03	0.0	9.296900e-01	-9.774221e-03	0.0	9.214000e-01	-1.087086e-02	0.0	9.127000e-01	-1.200973e-02	0.0	9.035800e-01	-1.319056e-02	0.0	8.940600e-01	-1.440916e-02	0.0	8.841500e-01	-1.566269e-02	0.0	8.738500e-01	-1.694956e-02	0.0	8.631800e-01	-1.826569e-02	0.0	8.521600e-01	-1.960709e-02	0.0	8.407700e-01	-2.097463e-02	0.0	8.290500e-01	-2.236196e-02	0.0	8.170100e-01	-2.376642e-02	0.0	8.046400e-01	-2.518764e-02	0.0	7.919700e-01	-2.662063e-02	0.0	7.790100e-01	-2.806277e-02	0.0	7.657800e-01	-2.951034e-02	0.0	7.522800e-01	-3.096181e-02	0.0	7.385200e-01	-3.241453e-02	0.0	7.245300e-01	-3.386377e-02	0.0	7.103200e-01	-3.530689e-02	0.0	6.958900e-01	-3.674225e-02	0.0	6.812700e-01	-3.816515e-02	0.0	6.664700e-01	-3.957289e-02	0.0	6.515000e-01	-4.096270e-02	0.0	6.363800e-01	-4.233084e-02	0.0	6.211300e-01	-4.367359e-02	0.0	6.057600e-01	-4.498807e-02	0.0	5.902800e-01	-4.627133e-02	0.0	5.747100e-01	-4.751951e-02	0.0	5.590600e-01	-4.872956e-02	0.0	5.433600e-01	-4.989684e-02	0.0	5.276100e-01	-5.101898e-02	0.0	5.118400e-01	-5.209138e-02	0.0	4.960500e-01	-5.311154e-02	0.0	4.802700e-01	-5.407492e-02	0.0	4.645100e-01	-5.497836e-02	0.0	4.487800e-01	-5.581860e-02	0.0	4.331100e-01	-5.659142e-02	0.0	4.175000e-01	-5.729417e-02	0.0	4.019700e-01	-5.792324e-02	0.0	3.865400e-01	-5.847521e-02	0.0	3.712300e-01	-5.894684e-02	0.0	3.560400e-01	-5.933562e-02	0.0	3.409900e-01	-5.963848e-02	0.0	3.261100e-01	-5.985254e-02	0.0	3.114000e-01	-5.997565e-02	0.0	2.968700e-01	-6.000550e-02	0.0	2.825500e-01	-5.994005e-02	0.0	2.684500e-01	-5.977766e-02	0.0	2.545700e-01	-5.951658e-02	0.0	2.409400e-01	-5.915586e-02	0.0	2.275700e-01	-5.869457e-02	0.0	2.144700e-01	-5.813197e-02	0.0	2.016600e-01	-5.746811e-02	0.0	1.891400e-01	-5.670228e-02	0.0	1.769300e-01	-5.583514e-02	0.0	1.650400e-01	-5.486709e-02	0.0	1.534900e-01	-5.379978e-02	0.0	1.422900e-01	-5.263443e-02	0.0	1.314400e-01	-5.137134e-02	0.0	1.209500e-01	-5.001187e-02	0.0	1.108500e-01	-4.856067e-02	0.0	1.011300e-01	-4.701715e-02	0.0	9.181000e-02	-4.538527e-02	0.0	8.290000e-02	-4.366791e-02	0.0	7.440000e-02	-4.186608e-02	0.0	6.633000e-02	-3.998514e-02	0.0	5.869000e-02	-3.802636e-02	0.0	5.149000e-02	-3.599338e-02	0.0	4.474000e-02	-3.389028e-02	0.0	3.844000e-02	-3.171811e-02	0.0	3.260000e-02	-2.948109e-02	0.0	2.723000e-02	-2.718420e-02	0.0	2.232000e-02	-2.482329e-02	0.0	1.790000e-02	-2.241365e-02	0.0	1.395000e-02	-1.994492e-02	0.0	1.049000e-02	-1.742916e-02	0.0	7.520000e-03	-1.486756e-02	0.0	5.040000e-03	-1.226032e-02	0.0	3.050000e-03	-9.605565e-03	0.0	1.560000e-03	-6.917518e-03	0.0	5.600000e-04	-4.173160e-03	0.0	6.000000e-05	-1.375330e-03	0.0	0.000000e+00	0.000000e+00	0.0	6.000000e-05	1.375330e-03	0.0	5.600000e-04	4.173160e-03	0.0	1.560000e-03	6.917518e-03	0.0	3.050000e-03	9.605565e-03	0.0	5.040000e-03	1.226032e-02	0.0	7.520000e-03	1.486756e-02	0.0	1.049000e-02	1.742916e-02	0.0	1.395000e-02	1.994492e-02	0.0	1.790000e-02	2.241365e-02	0.0	2.232000e-02	2.482329e-02	0.0	2.723000e-02	2.718420e-02	0.0	3.260000e-02	2.948109e-02	0.0	3.844000e-02	3.171811e-02	0.0	4.474000e-02	3.389028e-02	0.0	5.149000e-02	3.599338e-02	0.0	5.869000e-02	3.802636e-02	0.0	6.633000e-02	3.998514e-02	0.0	7.440000e-02	4.186608e-02	0.0	8.290000e-02	4.366791e-02	0.0	9.181000e-02	4.538527e-02	0.0	1.011300e-01	4.701715e-02	0.0	1.108500e-01	4.856067e-02	0.0	1.209500e-01	5.001187e-02	0.0	1.314400e-01	5.137134e-02	0.0	1.422900e-01	5.263443e-02	0.0	1.534900e-01	5.379978e-02	0.0	1.650400e-01	5.486709e-02	0.0	1.769300e-01	5.583514e-02	0.0	1.891400e-01	5.670228e-02	0.0	2.016600e-01	5.746811e-02	0.0	2.144700e-01	5.813197e-02	0.0	2.275700e-01	5.869457e-02	0.0	2.409400e-01	5.915586e-02	0.0	2.545700e-01	5.951658e-02	0.0	2.684500e-01	5.977766e-02	0.0	2.825500e-01	5.994005e-02	0.0	2.968700e-01	6.000550e-02	0.0	3.114000e-01	5.997565e-02	0.0	3.261100e-01	5.985254e-02	0.0	3.409900e-01	5.963848e-02	0.0	3.560400e-01	5.933562e-02	0.0	3.712300e-01	5.894684e-02	0.0	3.865400e-01	5.847521e-02	0.0	4.019700e-01	5.792324e-02	0.0	4.175000e-01	5.729417e-02	0.0	4.331100e-01	5.659142e-02	0.0	4.487800e-01	5.581860e-02	0.0	4.645100e-01	5.497836e-02	0.0	4.802700e-01	5.407492e-02	0.0	4.960500e-01	5.311154e-02	0.0	5.118400e-01	5.209138e-02	0.0	5.276100e-01	5.101898e-02	0.0	5.433600e-01	4.989684e-02	0.0	5.590600e-01	4.872956e-02	0.0	5.747100e-01	4.751951e-02	0.0	5.902800e-01	4.627133e-02	0.0	6.057600e-01	4.498807e-02	0.0	6.211300e-01	4.367359e-02	0.0	6.363800e-01	4.233084e-02	0.0	6.515000e-01	4.096270e-02	0.0	6.664700e-01	3.957289e-02	0.0	6.812700e-01	3.816515e-02	0.0	6.958900e-01	3.674225e-02	0.0	7.103200e-01	3.530689e-02	0.0	7.245300e-01	3.386377e-02	0.0	7.385200e-01	3.241453e-02	0.0	7.522800e-01	3.096181e-02	0.0	7.657800e-01	2.951034e-02	0.0	7.790100e-01	2.806277e-02	0.0	7.919700e-01	2.662063e-02	0.0	8.046400e-01	2.518764e-02	0.0	8.170100e-01	2.376642e-02	0.0	8.290500e-01	2.236196e-02	0.0	8.407700e-01	2.097463e-02	0.0	8.521600e-01	1.960709e-02	0.0	8.631800e-01	1.826569e-02	0.0	8.738500e-01	1.694956e-02	0.0	8.841500e-01	1.566269e-02	0.0	8.940600e-01	1.440916e-02	0.0	9.035800e-01	1.319056e-02	0.0	9.127000e-01	1.200973e-02	0.0	9.214000e-01	1.087086e-02	0.0	9.296900e-01	9.774221e-03	0.0	9.375400e-01	8.725349e-03	0.0	9.449600e-01	7.724467e-03	0.0	9.519400e-01	6.774429e-03	0.0	9.584700e-01	5.878077e-03	0.0	9.645400e-01	5.038225e-03	0.0	9.701500e-01	4.256269e-03	0.0	9.752800e-01	3.536324e-03	0.0	9.799500e-01	2.876826e-03	0.0	9.841300e-01	2.283177e-03	0.0	9.878400e-01	1.753610e-03	0.0	9.910500e-01	1.293364e-03	0.0	9.937800e-01	9.004365e-04	0.0	9.960200e-01	5.769984e-04	0.0	9.977600e-01	3.251112e-04	0.0	9.990000e-01	1.452538e-04	0.0	9.997500e-01	3.632897e-05	0.0	1.000000e+00	0.000000e+00	0.0	1.984229e+01	2.506660e+00	0.0	1.937166e+01	4.973800e+00	0.0	1.859553e+01	7.362490e+00	0.0	1.752613e+01	9.635070e+00	0.0	1.618034e+01	1.175571e+01	0.0	1.457937e+01	1.369094e+01	0.0	1.274848e+01	1.541027e+01	0.0	1.071654e+01	1.688656e+01	0.0	8.515590e+00	1.809654e+01	0.0	6.180340e+00	1.902113e+01	0.0	3.747630e+00	1.964575e+01	0.0	1.255810e+00	1.996053e+01	0.0	-1.255810e+00	1.996053e+01	0.0	-3.747630e+00	1.964574e+01	0.0	-6.180340e+00	1.902113e+01	0.0	-8.515590e+00	1.809654e+01	0.0	-1.071654e+01	1.688656e+01	0.0	-1.274848e+01	1.541026e+01	0.0	-1.457937e+01	1.369094e+01	0.0	-1.618034e+01	1.175570e+01	0.0	-1.752613e+01	9.635070e+00	0.0	-1.859553e+01	7.362490e+00	0.0	-1.937166e+01	4.973800e+00	0.0	-1.984229e+01	2.506660e+00	0.0	-2.000000e+01	0.000000e+00	0.0	-1.984229e+01	-2.506670e+00	0.0	-1.937166e+01	-4.973800e+00	0.0	-1.859553e+01	-7.362490e+00	0.0	-1.752613e+01	-9.635080e+00	0.0	-1.618034e+01	-1.175571e+01	0.0	-1.457937e+01	-1.369094e+01	0.0	-1.274848e+01	-1.541027e+01	0.0	-1.071653e+01	-1.688656e+01	0.0	-8.515580e+00	-1.809654e+01	0.0	-6.180340e+00	-1.902113e+01	0.0	-3.747620e+00	-1.964575e+01	0.0	-1.255810e+00	-1.996053e+01	0.0	1.255810e+00	-1.996053e+01	0.0	3.747630e+00	-1.964574e+01	0.0	6.180340e+00	-1.902113e+01	0.0	8.515590e+00	-1.809654e+01	0.0	1.071654e+01	-1.688656e+01	0.0	1.274848e+01	-1.541026e+01	0.0	1.457937e+01	-1.369094e+01	0.0	1.618034e+01	-1.175570e+01	0.0	1.752614e+01	-9.635070e+00	0.0	1.859553e+01	-7.362490e+00	0.0	1.937166e+01	-4.973790e+00	0.0	1.984229e+01	-2.506660e+00	0.0	2.000000e+01	0.000000e+00	0.0	6.071847e-02	-4.599300e-02	0.0	6.602584e-01	-5.397924e-02	0.0	4.259462e-01	7.123173e-02	0.0	6.898893e-01	5.084802e-02	0.0	3.793152e-01	-7.273116e-02	0.0	9.994604e-01	-7.202256e-04	0.0	9.985440e-01	-1.312423e-03	0.0	7.737237e-01	-4.090969e-02	0.0	6.898893e-01	-5.084802e-02	0.0	-1.456769e-03	6.464601e-03	0.0	7.467285e-01	-4.428984e-02	0.0	5.836398e-01	6.115854e-02	0.0	9.927702e-01	-3.577733e-03	0.0	9.898650e-01	-4.450375e-03	0.0	5.991925e-01	5.980916e-02	0.0	7.187526e-01	-4.760665e-02	0.0	-1.597618e-03	7.671995e-04	0.0	9.864674e-01	-5.394793e-03	0.0	9.825871e-01	-6.398977e-03	0.0	-1.456774e-03	-6.464600e-03	0.0	6.451948e-01	-5.549610e-02	0.0	8.243215e-01	-3.409983e-02	0.0	7.996157e-01	-3.751255e-02	0.0	3.487901e-01	7.326090e-02	0.0	8.477112e-01	-3.071909e-02	0.0	2.474256e-01	7.182160e-02	0.0	8.697233e-01	-2.738134e-02	0.0	9.916188e-03	2.185203e-02	0.0	8.902508e-01	-2.411717e-02	0.0	7.700293e-02	-5.054436e-02	0.0	9.092206e-01	-2.095307e-02	0.0	-1.944578e-03	-3.190372e-03	0.0	9.421664e-01	-1.502079e-02	0.0	9.265514e-01	-1.791177e-02	0.0	1.789678e-02	-2.766280e-02	0.0	4.259462e-01	-7.123173e-02	0.0	8.588986e-01	-2.904064e-02	0.0	9.560213e-01	-1.230722e-02	0.0	9.782180e-01	-7.479396e-03	0.0	9.680592e-01	-9.783205e-03	0.0	1.582863e-01	-6.490557e-02	0.0	8.999374e-01	-2.252139e-02	0.0	7.603588e-01	-4.260503e-02	0.0	9.971186e-01	-2.046344e-03	0.0	5.991925e-01	-5.980916e-02	0.0	4.416505e-01	-7.055456e-02	0.0	5.365104e-01	-6.487405e-02	0.0	4.732224e-01	-6.895566e-02	0.0	5.048788e-01	-6.705339e-02	0.0	4.890394e-01	-6.804024e-02	0.0	1.249513e-01	-6.028257e-02	0.0	2.780447e-02	-3.325805e-02	0.0	3.947663e-01	-7.232395e-02	0.0	4.619013e-02	-4.112619e-02	0.0	4.103114e-01	-7.182380e-02	0.0	3.188732e-01	-7.337957e-02	0.0	3.487901e-01	-7.326089e-02	0.0	3.347228e-02	-3.593942e-02	0.0	2.896464e-01	-7.308006e-02	0.0	9.345773e-01	-1.644433e-02	0.0	1.468197e-01	-6.346812e-02	0.0	1.946953e-01	-6.854614e-02	0.0	8.578013e-02	-5.268667e-02	0.0	1.045788e-01	-5.669131e-02	0.0	5.679929e-01	-6.245642e-02	0.0	1.700976e-01	-6.623429e-02	0.0	6.146535e-01	-5.841132e-02	0.0	8.801811e-01	-2.573953e-02	0.0	2.262334e-02	-3.049739e-02	0.0	9.951933e-01	-2.788490e-03	0.0	6.656769e-03	-1.887280e-02	0.0	1.789679e-02	2.766280e-02	0.0	9.180944e-01	-1.941524e-02	0.0	9.49320
[...]
POINT_DATA 5233

SCALARS Conservative_1 float 1
LOOKUP_TABLE default
8.215083e+00	3.059176e+00	2.595762e+00	2.332306e+00	1.971547e+00	1.756450e+00	1.594201e+00	1.464992e+00	1.363051e+00	1.280526e+00	1.213230e+00	1.157334e+00	1.110115e+00	1.070310e+00	1.036192e+00	1.006951e+00	9.819152e-01	9.597039e-01	9.411884e-01	9.246237e-01	9.106249e-01	8.984169e-01	8.878838e-01	8.790344e-01	8.715848e-01	8.652504e-01	8.604972e-01	8.561996e-01	8.534141e-01	8.513720e-01	8.500460e-01	8.502560e-01	8.502651e-01	8.520369e-01	8.538399e-01	8.572263e-01	8.605739e-01	8.654594e-01	8.703612e-01	8.767811e-01	8.832610e-01	8.912701e-01	8.994184e-01	9.089867e-01	9.188219e-01	9.299438e-01	9.415373e-01	9.542737e-01	9.677284e-01	9.820143e-01	9.969062e-01	1.012708e+00	1.029531e+00	1.046374e+00	1.062011e+00	1.074237e+00	1.084972e+00	1.099839e+00	1.126997e+00	1.168296e+00	1.214918e+00	1.253141e+00	1.279140e+00	1.300128e+00	1.326225e+00	1.362999e+00	1.409073e+00	1.455248e+00	1.484426e+00	1.477398e+00	1.424478e+00	1.335887e+00	1.241046e+00	1.168894e+00	1.129904e+00	1.111224e+00	1.091613e+00	1.059805e+00	1.017234e+00	9.714297e-01	9.256074e-01	8.787649e-01	8.289205e-01	7.754926e-01	7.183369e-01	6.570480e-01	5.911749e-01	5.196363e-01	4.419759e-01	3.570740e-01	2.646021e-01	1.636487e-01	5.495739e-02	-5.989175e-02	-1.764385e-01	-2.866029e-01	-3.813339e-01	-4.436373e-01	-4.323550e-01	-3.862072e-01	-3.752743e-01	-3.863224e-01	-3.925216e-01	-4.030684e-01	-4.128182e-01	-4.232389e-01	-4.319110e-01	-4.408379e-01	-4.532702e-01	-4.528806e-01	-4.253696e-01	-4.252878e-01	-5.431394e-01	-7.237988e-01	-7.263829e-01	-3.864067e-01	1.438330e-01	5.299511e-01	5.846294e-01	3.832552e-01	1.065048e-01	-1.360088e-01	-3.289507e-01	-4.900947e-01	-6.270187e-01	-7.397951e-01	-8.326418e-01	-9.130233e-01	-9.869902e-01	-1.056291e+00	-1.120887e+00	-1.180551e+00	-1.234924e+00	-1.283744e+00	-1.326522e+00	-1.363438e+00	-1.394517e+00	-1.421779e+00	-1.446196e+00	-1.470543e+00	-1.494417e+00	-1.518095e+00	-1.539262e+00	-1.559319e+00	-1.577014e+00	-1.593740e+00	-1.609156e+00	-1.623082e+00	-1.635929e+00	-1.647797e+00	-1.663454e+00	-1.681838e+00	-1.696083e+00	-1.693692e+00	-1.664629e+00	-1.572813e+00	-1.363846e+00	-1.094312e+00	-9.025840e-01	-8.462029e-01	-8.584456e-01	-8.743566e-01	-8.864658e-01	-8.975206e-01	-9.102605e-01	-9.221684e-01	-9.349556e-01	-9.469475e-01	-9.601846e-01	-9.729692e-01	-9.872975e-01	-1.001357e+00	-1.017251e+00	-1.032940e+00	-1.050398e+00	-1.068750e+00	-1.088247e+00	-1.109413e+00	-1.132093e+00	-1.156475e+00	-1.183278e+00	-1.212020e+00	-1.244089e+00	-1.278608e+00	-1.317332e+00	-1.359932e+00	-1.408123e+00	-1.462279e+00	-1.524178e+00	-1.595210e+00	-1.678974e+00	-1.777544e+00	-1.897215e+00	-2.043394e+00	-2.217266e+00	-2.499401e+00	-2.713357e+00	-2.753044e+00	-6.833871e+00	4.378749e-01	-2.894828e-03	-2.960428e-03	-3.027295e-03	-3.117069e-03	-3.245799e-03	-3.367849e-03	-3.525229e-03	-3.584495e-03	-3.486012e-03	-3.536598e-03	-3.719834e-03	-3.753227e-03	-3.610606e-03	-2.947151e-03	-2.210590e-03	-1.765195e-03	-1.373872e-03	-1.176562e-03	-9.529111e-04	-5.649792e-04	-4.024094e-04	8.707267e-05	3.301133e-03	-1.569789e-03	-6.762595e-03	2.255667e-03	4.862411e-03	3.203648e-03	2.367190e-03	2.683549e-03	2.997650e-03	3.393307e-03	3.706083e-03	3.838461e-03	3.798347e-03	3.375154e-03	2.458720e-03	1.284511e-03	1.569762e-05	-7.550809e-04	-1.326313e-03	-1.813566e-03	-2.143133e-03	-2.388791e-03	-2.538235e-03	-2.633419e-03	-2.705591e-03	-2.765250e-03	-2.783794e-03	-2.855076e-03	6.713035e-01	6.523385e-01	-1.130295e+00	-6.830510e-01	8.778780e-01	4.862060e+00	2.897518e+00	6.174328e-01	6.396852e-01	-3.914518e-01	6.221932e-01	-1.027467e+00	1.516532e+00	1.324651e+00	-8.807238e-01	6.295985e-01	-3.785541e-01	1.180662e+00	1.072887e+00	-3.959033e-01	6.594650e-01	6.164374e-01	6.151912e-01	-1.077315e+00	6.212431e-01	-9.240189e-01	6.300291e-01	-4.064556e-01	6.438848e-01	7.589340e-01	6.639860e-01	-4.236185e-01	7.323344e-01	6.923808e-01	2.270899e-01	8.337996e-01	6.250702e-01	7.882786e-01	9.887705e-01	8.688720e-01	1.003376e+00	6.531288e-01	6.192894e-01	2.253185e+00	6.855208e-01	8.173878e-01	7.298928e-01	7.859203e-01	7.566859e-01	7.710020e-01	9.290891e-01	3.809367e-01	8.638787e-01	5.686439e-01	8.494088e-01	9.786018e-01	9.162750e-01	4.488713e-01	1.038095e+00	7.108056e-01	9.578917e-01	1.238720e+00	7.983471e-01	8.762483e-01	7.061740e-01	1.080735e+00	6.760938e-01	6.362629e-01	3.069867e-01	1.809469e+00	-4.856237e-02	-4.085025e-01	6.771705e-01	7.578014e-01	9.222944e-01	-3.956961e-01	6.184594e-01	1.151829e+00	7.175354e-01	6.253604e-01	6.158535e-01	9.089914e-01	1.248454e+00	6.953513e-01	6.455187e-01	6.218233e-01	-1.468462e-01	1.404419e-01	8.942976e-01	1.169755e+00	6.708235e+00	1.204252e+00	8.375388e-01	1.010077e+00	1.104633e+00	8.013516e-01	6.341472e-01	-3.818413e-01	-3.261535e-01	-1.154178e+00	-4.008639e-01	-3.464269e-01	-5.108630e-01	-5.169381e-01	-2.421613e-02	-1.122900e+00	-2.548983e+00	-1.150802e+00	-1.143055e+00	-1.245966e+00	-1.132384e+00	-8.620844e-01	-1.145203e+00	-1.136040e+00	-1.103202e+00	-9.516830e-01	-9.027961e-01	7.181174e-01	-1.318835e+00	-1.086791e+00	-1.011601e+00	4.246260e-01	-5.465550e-02	-1.014068e+00	-9.598086e-01	-6.047005e-01	-1.049554e+00	-1.140325e+00	-1.113836e+00	-4.379138e-01	-1.863767e-01	-6.727456e-01	-7.309555e-01	-8.372474e-01	-6.706062e-01	-1.115853e+00	-7.141564e-01	-6.980851e-01	-7.507112e-01	-7.314985e-01	-7.981469e-01	-7.727295e-01	-8.816354e-01	-8.276188e-01	-1.047022e+00	-9.262061e-01	-1.184902e+00	-8.123099e-01	-8.441477e-01	-7.615932e-01	-7.851799e-01	-7.228785e-01	-7.410183e-01	-6.904892e-01	-7.062572e-01	-6.641419e-01	-6.767897e-01	-1.148552e+00	-7.277202e-01	-7.865422e-01	-8.831305e-01	-5.295777e-01	-6.705291e-01	-6.485316e-01	-3.236024e-01	-4.072648e-01	-3.696464e-01	1.265209e+00	-4.053864e-01	8.247151e-01	6.155163e-01	9.454311e-01	7.429179e-01	-4.013700e-01	-3.871848e-01	-4.071518e-01	6.584359e-01	4.573654e-01	-9.897482e-01	1.769240e-01	-1.407824e+00	-1.517146e+00	-1.033352e+00	-1.660300e+00	-1.845613e+00	-1.063694e+00	-1.090503e+00	-9.802922e-01	-6.713316e+00	-3.157804e+00	-4.804377e+00	6.676087e-01	5.112935e-01	-2.114663e+00	-1.147114e+00	-2.412464e-01	4.813241e-02	7.169314e-01	9.398126e-01	1.067535e+00	6.893069e-01	-3.944648e-01	-3.876839e-01	8.193565e-01	4.477483e-01	4.680836e-01	-4.214468e-02	-5.188830e-01	4.531796e-01	4.255046e-01	1.011193e+00	7.282180e-01	4.275072e-01	4.233339e-01	6.693969e-01	-3.375881e-01	1.045537e+00	1.153381e-01	5.942594e-01	7.946346e-01	4.423141e-01	4.662787e-01	6.097804e-01	6.369166e-01	6.733141e-01	4.485802e-01	4.236346e-01	-3.851737e-01	-3.521362e-01	-5.103403e-01	-5.985105e-01	2.647302e-01	-5.130410e-01	-3.211326e-01	-6.381439e-01	-1.353116e+00	-7.118492e-01	-7.174440e-01	-8.557237e-01	-6.540127e-01	-1.498296e+00	-8.966315e-01	-1.141711e+00	-5.998718e-01	-7.060203e-01	-5.660842e-01	4.700305e-01	4.597231e-01	1.045214e+00	-3.756049e-01	-1.512260e-01	-4.847181e-01	-9.988406e-01	-1.682971e+00	-6.711472e-01	8.486400e-01	-1.813240e+00	-2.265300e+00	-1.932653e+00	-3.921788e-01	-3.957443e-01	-1.239269e-01	-4.011899e-01	-3.881067e-01	1.883769e-01	1.155496e+00	5.651041e-01	1.981567e+00	1.351711e+00	-7.275864e-01	5.307112e-01	8.961290e-01	4.354980e-01	-4.256319e-01	1.156661e+00	-3.842530e-01	6.250110e-01	-7.272097e-01	4.249472e-01	-6.722225e-01	4.308484e-01	4.414593e-01	6.025828e-01	4.576690e-01	4.813039e-01	5.366165e-01	3.193223e-01	5.626124e-01	6.323982e-01	8.073344e-01	7.630487e-01	4.307861e-01	4.275447e-01	1.615883e+00	5.954940e-01	5.817720e-01	5.681503e-01	2.558414e-01	6.574172e-01	6.408006e-01	7.117569e-01	4.299906e-01	4.963965e-01	5.147653e-01	7.705606e-01	7.018421e-01	5.194113e-01	4.904330e-01	6.787746e-01	7.356666e-01	4.378620e-01	4.335854e-01	7.319145e-01	7.534797e-01	5.092057e-01	4.992926e-01	4.784828e-01	5.237607e-01	3.788426e-02	6.996696e-01	6.876551e-01	9.265225e-01	1.001425e+00	1.010389e+00	9.582324e-01	7.840112e-01	7.527736e-01	9.051780e-01	-3.822106e-01	-2.022680e-01	-4.682319e-01	-1.235382e+00	-7.063070e-01	-7.203768e-01	-7.194394e-01	-7.208935e-01	-1.063368e+00	-9.440460e-01	-7.342210e-01	-7.235096e-01	-7.263836e-01	-7.254724e-01	-7.109475e-01	-8.195189e-01	2.787136e-01	-2.094383e-01	-6.288564e-01	-6.534142e-01	-2.457061e-01	-3.673610e-02	9.931169e-02	-5.597752e-01	-5.325648e-01	-5.267535e-01	-5.517998e-01	-5.873017e-01	-6.903246e-01	-6.236564e-01	-6.106095e-01	-5.777200e-01	-5.678081e-01	-5.451403e-01	-5.382021e-01	-5.219680e-01	-5.166081e-01	-5.081211e-01	-4.859270e-01	-6.136005e-01	-6.758610e-01	-4.374241e-01	-3.949127e-01	-5.277434e-01	-4.844158e-01	-4.361802e-01	-3.827508e-01	-3.664924e-01	-3.402685e-01	-2.871397e-01	4.225589e-01	4.228831e-01	5.550671e-01	5.425345e-01	-3.952758e-01	-3.165393e-01	6.906751e-01	8.156396e-01	-6.974955e-01	-6.868592e-01	-7.213168e-01	-7.169309e-01	-7.881060e-01	-7.594168e-01	4.816824e-01	4.739373e-01	3.772094e-01	-2.739783e-01	8.588082e-01	-3.303561e-01	5.216080e-01	6.146338e-01	3.337471e-01	4.124885e-01	4.031676e-01	-1.286286e+00	-1.183589e+00	-8.508608e-01	-3.834806e-01	-1.395945e+00	-2.982524e+00	-2.915085e+00	1.442890e+00	-2.703759e-01	1.488273e-01	-3.900470e-01	5.435075e-01	4.194996e-01	9.559834e-01	-2.188320e-01	2.759992e+00	-1.077504e-01	3.437351e-01	-2.339580e-01	3.406571e-01	8.930671e-02	3.533475e-01	-4.077831e-02	5.501065e-01	3.477235e-01	3.473857e-01	1.070396e+00	2.533077e-02	-1.021620e+00	-4.351725e-01	-7.684202e-01	-4.142605e-01	-1.556786e+00	-4.626879e-01	-4.233177e-01	-4.656838e-01	-7.996300e-02	5.044646e-01	-3.163301e+00	-2.865157e-01	-3.929775e-01	-3.206001e-01	-3.925284e-01	5.483330e-01	5.172103e-01	-3.957504e-01	6.551949e-01	4.663095e-01	2.049402e-01	-3.584732e-01	-5.090250e-01	-4.685980e-01	-4.183490e-01	-1.096582e+00	-8.072918e-01	-5.852639e-01	-5.671675e-01	-4.586853e-01	-4.376605e-01	-3.553650e-01	5.215502e-01	3.560713e-01	3.513315e-01	8.611133e-01	-3.403272e-01	3.374698e-03	-9.562031e-01	-1.745447e+00	-3.732629e-01	-3.906250e-01	-1.734525e-01	-3.742807e-01	2.579790e-01	2.506424e+00	2.972200e+00	5.893974e-01	8.534491e-01	-1.741602e-01	4.786929e-01	-4.714494e-01	3.396141e-01	3.428096e-01	3.602940e-01	3.688021e-01	4.594410e-01	4.895256e-01	3.783326e-01	3.904900e-01	4.843040e-01	5.134895e-01	7.683419e-01	3.351187e-01	3.335907e-01	1.238676e+00	4.548557e-01	4.440283e-01	5.067234e-01	4.919293e-01	3.051853e-01	4.380849e-01	4.590810e-01	6.102606e-01	6.220429e-01	4.033191e-01	3.948530e-01	6.381529e-01	6.976116e-01	3.374264e-01	3.360704e-01	5.693585e-01	5.914625e-01	6.048208e-01	3.870296e-01	3.798143e-01	3.482928e-01	3.887091e-01	4.263651e-01	5.478950e-01	5.439042e-01	5.349466e-01	7.137319e-01	7.842334e-01	8.403250e-01	8.439386e-01	8.014671e-01	5.804554e-01	5.588446e-01	7.501465e-01	-3.484532e-01	-4.679139e-01	-4.673941e-01	-9.002617e-01	-4.662860e-01	-4.673879e-01	-4.690896e-01	-4.729166e-01	-6.489591e-01	7.592798e-02	-2.537629e-01	-4.045733e-01	-3.820922e-01	1.013372e-01	2.155564e-01	3.536879e-01	-4.386922e-01	-6.260573e-01	-6.043852e-01	-5.509433e-01	-5.359999e-01	-5.220476e-01	-4.986875e-01	-4.870855e-01	-4.766925e-01	-4.597826e-01	-4.523886e-01	-4.448355e-01	-4.324916e-01	-4.274961e-01	-4.221316e-01	-4.055102e-01	-3.046799e-01	-3.821201e-01	-3.733156e-01	-3.081180e-01	-2.177666e-01	-3.244133e-01	-2.883629e-01	-2.473231e-01	-2.015560e-01	-1.472961e-01	-2.908653e-01	-2.423007e-01	3.333837e-01	3.346039e-01	3.369422e-01	4.327952e-01	4.222487e-01	-2.567734e-01	-2.936184e-01	7.067493e-01	8.394229e-01	7.953158e-01	-4.496768e-01	-4.726362e-01	-4.716018e-01	-4.692949e-01	-7.341910e-01	-7.028631e-01	-6.752644e-01	3.730599e-01	3.669084e-01	3.611378e-01	7.008774e-01	6.554981e-01	-2.756783e-01	4.323394e-01	-1.406716e+00	-9.994384e-01	3.580386e-01	-3.913831e-01	1.556416e+00	3.976678e-01	4.156115e-01	1.994535e-01	-1.219317e+00	-3.614297e-01	-2.393187e-01	-3.035721e-01	-9.230116e-02	-8.043651e-01	-1.299634e+00	-3.885182e-01	-3.818237e-01	-3.806611e-01	-1.048456e+00	6.260869e-01	3.141395e-01	5.505446e-01	1.116367e-01	4.395128e-01	4.104317e-01	4.075310e-01	4.826687e-01	-1.063100e+00	-1.366988e-01	-7.673577e-01	-7.342657e-01	-4.492975e-01	1.092498e-01	-2.840927e-01	8.039932e-01	2.631068e-01	3.380045e-01	-1.852654e+00	-1.136004e+00	1.062229e+00	5.774290e-01	6.453785e-02	3.155492e-01	-1.458645e-01	3.155380e-01	3.121925e-01	1.424524e-02	8.855247e-01	-3.929292e-02	-4.910040e-01	-3.302882e-01	-3.361596e-01	-3.930227e-01	-3.291630e-01	-3.913097e-01	-5.665995e-01	-3.484206e-01	-3.203291e-01	-3.038388e-01	3.201351e-01	3.192726e-01	-9.415468e-01	-3.508484e-01	-3.676216e-01	-1.955642e-01	-3.231394e-01	1.575364e-01	5.400514e-01	7.329270e-01	-1.432581e-01	3.274973e-01	3.315247e-01	3.444565e-01	3.525894e-01	3.626382e-01	3.873226e-01	3.616904e-01	3.731839e-01	3.851126e-01	4.797155e-01	5.076313e-01	3.119573e-01	3.142897e-01	9.613518e-01	3.985623e-01	3.906143e-01	4.282107e-01	4.171770e-01	4.344318e-01	4.550909e-01	4.888640e-01	5.094703e-01	3.527091e-01	6.214453e-01	6.734535e-01	3.129749e-01	3.139400e-01	4.532532e-01	4.709433e-01	4.815632e-01	3.456765e-01	3.416332e-01	2.363723e-01	2.714121e-01	3.053138e-01	3.359143e-01	4.567708e-01	4.592538e-01	4.570407e-01	4.497704e-01	6.090185e-01	6.681305e-01	7.072440e-01	7.128425e-01	6.889308e-01	4.542075e-01	4.607450e-01	6.487077e-01	-3.820861e-01	-8.905123e-01	-8.452152e-01	-3.871904e-01	-3.840739e-01	-3.782957e-01	-3.753740e-01	-3.721267e-01	-4.936804e-02	-1.999273e-01	-2.624975e-01	-2.368957e-01	2.008601e-01	3.010294e-01	4.193008e-01	5.587392e-01	-6.258891e-01	-6.046395e-01	-5.847755e-01	-5.494710e-01	-5.337053e-01	-5.187745e-01	-5.039517e-01	-4.821686e-01	-4.677321e-01	-4.566207e-01	-4.373796e-01	-4.310181e-01	-4.203824e-01	-4.155226e-01	-4.061150e-01	-4.023081e-01	-3.940486e-01	-2.562910e-01	-1.821453e-01	-3.738467e-01	-3.489784e-01	-3.010791e-01	-1.856813e-01	-2.082488e-01	-1.740854e-01	-1.345991e-01	-9.012253e-02	-3.683299e-02	2.910480e-02	-2.081890e-01	-1.888928e-01	3.166323e-01	3.198185e-01	3.238678e-01	3.818135e-01	3.729980e-01	3.658383e-01	-2.049472e-01	-2.419590e-01	-2.758226e-01	7.077488e-01	8.212167e-01	8.100825e-01	6.057825e-01	-3.707929e-01	-3.676537e-01	-3.647086e-01	-3.589549e-01	-6.500398e-01	-7.031368e-01	-6.761053e-01	3.353371e-01	3.323929e-01	3.268071e-01	3.248990e-01	6.028887e-01	5.588271e-01	5.168143e-01	1.493865e-03	-1.249093e+00	5.128627e-01	-2.290119e+00	-4.019400e-02	3.113404e-01	3.467385e-01	-8.159602e-02	-9.061368e-01	-1.634981e-01	1.131074e-01	4.859778e-01	2.507813e-01	-2.977891e-01	-3.658566e-01	-3.928251e-01	-3.879078e-01	-3.829471e-01	-3.892664e-01	-2.018717e-01	8.935229e-01	-3.168812e-01	5.450600e-01	7.167972e-01	4.011322e-01	3.112360e-01	4.083438e-01	-1.112646e+00	-6.253352e-01	-6.925817e-01	-1.807849e-01	-2.645252e-01	-3.901328e-01	-4.429925e-01	-3.380586e-01	3.520488e-01	-3.297331e-01	-1.062008e+00	3.266471e-01	-2.139831e+00	-9.543313e-01	-3.754698e-01	1.916244e+00	1.864046e+00	3.888951e-01	1.447488e-01	-2.291822e-01	-2.670032e-01	-1.237184e-01	-7.517565e-01	-3.794296e-01	-8.216525e-01	2.363755e-01	3.937649e-02	4.134808e-01	4.227334e-01	-1.003797e+00	-2.188494e-01	-7.215080e-01	6.643414e-01	3.145777e-01	-3.884067e-01	-2.944326e-01	-2.760696e-01	-2.508041e-01	3.191519e-01	-3.251737e-01	-3.474527e-01	-2.652498e-01	7.678870e-02	3.209193e-01	3.276936e-01	3.304174e-01	3.392157e-01	3.048251e-01	2.822699e-01	3.435018e-01	3.557880e-01	3.622216e-01	3.721715e-01	4.593704e-01	4.845782e-01	3.104402e-01	7.597742e-01	3.849829e-01	3.795077e-01	3.999446e-01	3.922252e-01	4.180274e-01	4.371990e-01	4.094956e-01	4.441476e-01	5.814169e-01	6.218540e-01	3.098217e-01	3.675837e-01	3.915647e-01	3.937086e-01	3.417033e-01	1.740085e-01	2.035680e-01	2.322637e-01	2.589560e-01	4.170094e-01	4.222577e-01	4.236195e-01	4.220714e-01	4.164613e-01	5.492806e-01	5.896129e-01	6.254407e-01	6.138869e-01	5.968051e-01	-8.619586e-01	-8.217554e-01	-7.853373e-01	-3.807044e-01	-3.936198e-01	-3.888443e-01	-3.858364e-01	-3.693893e-01	9.188404e-02	-7.219056e-02	-2.289037e-01	-2.009057e-01	3.350169e-01	4.374156e-01	5.625013e-01	-6.018915e-01	-5.860300e-01	-5.665089e-01	-5.529546e-01	-5.358271e-01	-5.239464e-01	-5.085904e-01	-4.924707e-01	-4.754447e-01	-4.600442e-01	-4.268651e-01	-4.130524e-01	-4.008727e-01	-3.748759e-01	-3.116995e-01	-1.729921e-01	-1.381490e-01	-9.787725e-02	-5.189282e-02	1.278550e-03	7.364971e-02	1.545079e-01	-1.251042e-01	-1.354405e-01	3.121045e-01	3.174290e-01	3.184547e-01	3.726986e-01	3.636620e-01	-1.586194e-01	-1.961386e-01	-2.340646e-01	6.818083e-01	7.685156e-01	7.650554e-01	6.170667e-01	3.541293e-01	-3.673023e-01	-3.543385e-01	-3.539896e-01	-3.460754e-01	-6.666971e-01	-6.438186e-01	3.327852e-01	3.252887e-01	5.556088e-01	5.186669e-01	4.774998e-01	4.441504e-01	1.916168e+00	-2.165789e+00	-7.438423e-02	-3.973550e-01	7.618657e-01	4.969184e-01	-9.320598e-01	-3.795817e-01	-7.261370e-01	8.633669e-01	5.489009e-01	-2.025855e-01	7.382375e-02	-4.305979e-02	-3.419027e-01	-1.311020e+00	-2.979374e-01	-3.657891e-01	-1.233071e-02	4.727514e-01	3.483477e-01	-8.909280e-01	4.076176e-01	3.769180e-01	3.599862e-01	3.178503e-01	2.922637e-01	4.835705e-01	-1.680583e-01	3.917453e-01	2.467554e-01	2.686405e-01	3.792798e-01	-8.194917e-01	-6.000946e-01	-3.895422e-01	-2.668896e-01	4.501685e-01	-2.039554e+00	-8.541553e-01	-3.770466e-01	-1.913734e-01	5.791785e-01	2.956894e-01	-2.552279e-01	-3.461962e-01	-9.752588e-01	-3.024706e-01	-1.235138e+00	-3.380534e-01	1.724781e+00	9.865560e-02	-1.366863e-01	-1.063591e-01	-2.691741e-01	4.581106e-02	-6.989917e-01	-6.727925e-01	-2.181718e-01	-3.034862e-01	-2.556527e-01	2.987997e-01	-3.244352e-01	-3.472812e-01	1.605343e-02	3.068176e-01	3.164903e-01	2.232859e-01	3.302376e-01	3.404715e-01	4.288241e-01	6.112149e-01	3.791065e-01	3.921575e-01	4.095827e-01	3.924010e-01	5.223607e-01	2.939981e-01	2.933499e-01	3.275233e-01	3.425872e-01	3.371435e-01	1.238613e-01	1.502398e-01	1.822956e-01	1.998519e-01	4.105158e-01	4.104561e-01	4.020663e-01	5.560990e-01	5.508173e-01	-7.865800e-01	-7.555946e-01	-4.006798e-01	-4.001822e-01	2.137990e-02	-2.013225e-01	5.202625e-01	-4.565093e-01	-5.652957e-01	-5.345255e-01	-5.083533e-01	-4.864453e-01	-4.708808e-01	-4.419510e-01	-4.271527e-01	-4.141885e-01	-4.033265e-01	-3.946142e-01	-3.921990e-01	-3.907294e-01	-3.559133e-01	-1.316182e-01	-3.830052e-02	6.692014e-02	1.494582e-01	2.460963e-01	-5.922954e-02	-9.151205e-02	2.938909e-01	2.989673e-01	3.002615e-01	3.685540e-01	3.591465e-01	-1.228104e-01	-1.598174e-01	-1.984284e-01	-2.338615e-01	6.228827e-01	6.837536e-01	6.751007e-01	5.627481e-01	3.598121e-01	1.705068e-01	-3.807323e-01	-3.664296e-01	-6.523195e-01	-6.275013e-01	3.268610e-01	3.100908e-01	3.036196e-01	4.920355e-01	4.318857e-01	-9.943611e-01	1.562664e+00	1.525606e+00	-1.337895e+00	1.295141e-01	-8.741379e-01	-7.406576e-01	7.461914e-01	-9.373758e-02	-2.585784e-02	9.714062e-01	6.207367e-01	-3.001172e-01	-3.802120e-01	-1.612420e-01	-7.179652e-01	2.759439e-01	-3.522917e-01	-1.123677e+00	3.110795e-01	2.033005e-02	1.267484e-01	-2.711851e-01	-7.060911e-02	3.787939e-01	3.517669e-01	2.949093e-01	3.239496e-01	4.204535e-01	4.361737e-01	4.240657e-02	6.497906e-02	-1.655188e+00	-7.976571e-01	-8.258167e-01	-6.725788e-01	-2.775129e-01	-3.572670e-01	2.822803e-01	1.887799e-01	-1.846603e+00	-1.889653e+00	-3.920434e-01	4.052114e-01	-6.950201e-01	1.747524e-01	4.544127e-01	-3.662863e-01	-4.802568e-02	3.351873e-01	-1.577890e-01	2.071237e-01	2.327723e-01	-7.681244e-01	-4.006577e-01	3.909687e-01	4.685055e-01	2.784110e-01	-2.757170e-01	1.198640e+00	1.600606e-01	-1.384383e-01	-1.151061e-01	-2.214549e-01	-3.797042e-03	-6.505684e-01	-2.828427e-01	-3.188291e-01	-3.827164e-01	-3.258244e-01	-3.477996e-01	2.896162e-01	2.998248e-01	3.233673e-01	3.386596e-01	5.025503e-01	3.668354e-01	3.640800e-01	3.770962e-01	3.891409e-01	2.762951e-01	2.793565e-01	2.745929e-01	2.640053e-01	2.923770e-01	3.217117e-01	8.917261e-02	3.947124e-01	3.944957e-01	3.879892e-01	4.743424e-01	2.878543e-01	-7.423144e-01	-2.367061e-01	-3.129786e-01	4.500014e-01	-5.592685e-01	-5.296413e-01	-4.494939e-01	-5.030982e-01	-4.812939e-01	-4.639228e-01	-4.356816e-01	-4.214884e-01	-4.081877e-01	-3.968209e-01	-3.881522e-01	-3.825934e-01	-3.818647e-01	-2.297852e-01	-1.690270e-01	-8.364822e-02	3.027500e-02	1.723343e-01	3.261491e-01	-1.