# vtk DataFile Version 3.0
vtk output
ASCII
DATASET UNSTRUCTURED_GRID
POINTS 200 float
9.997500e-01	-3.632897e-05	0.0	9.990000e-01	-1.452538e-04	0.0	9.977600e-01	-3.251112e-04	0.0	9.960200e-01	-5.769984e-04	0.0	9.937800e-01	-9.004365e-04	0.0	9.910500e-01	-1.293364e-03	0.0	9.878400e-01	-1.753610e-03	0.0	9.841300e-01	-2.283177e-03	0.0	9.799500e-01	-2.876826e-03	0.0	9.752800e-01	-3.536324e-03	0.0	9.701500e-01	-4.256269e-03	0.0	9.645400e-01	-5.038225e-03	0.0	9.584700e-01	-5.878077e-03	0.0	9.519400e-01	-6.774429e-03	0.0	9.449600e-01	-7.724467e-03	0.0	9.375400e-01	-8.725349e-03	0.0	9.296900e-01	-9.774221e-03	0.0	9.214000e-01	-1.087086e-02	0.0	9.127000e-01	-1.200973e-02	0.0	9.035800e-01	-1.319056e-02	0.0	8.940600e-01	-1.440916e-02	0.0	8.841500e-01	-1.566269e-02	0.0	8.738500e-01	-1.694956e-02	0.0	8.631800e-01	-1.826569e-02	0.0	8.521600e-01	-1.960709e-02	0.0	8.407700e-01	-2.097463e-02	0.0	8.290500e-01	-2.236196e-02	0.0	8.170100e-01	-2.376642e-02	0.0	8.046400e-01	-2.518764e-02	0.0	7.919700e-01	-2.662063e-02	0.0	7.790100e-01	-2.806277e-02	0.0	7.657800e-01	-2.951034e-02	0.0	7.522800e-01	-3.096181e-02	0.0	7.385200e-01	-3.241453e-02	0.0	7.245300e-01	-3.386377e-02	0.0	7.103200e-01	-3.530689e-02	0.0	6.958900e-01	-3.674225e-02	0.0	6.812700e-01	-3.816515e-02	0.0	6.664700e-01	-3.957289e-02	0.0	6.515000e-01	-4.096270e-02	0.0	6.363800e-01	-4.233084e-02	0.0	6.211300e-01	-4.367359e-02	0.0	6.057600e-01	-4.498807e-02	0.0	5.902800e-01	-4.627133e-02	0.0	5.747100e-01	-4.751951e-02	0.0	5.590600e-01	-4.872956e-02	0.0	5.433600e-01	-4.989684e-02	0.0	5.276100e-01	-5.101898e-02	0.0	5.118400e-01	-5.209138e-02	0.0	4.960500e-01	-5.311154e-02	0.0	4.802700e-01	-5.407492e-02	0.0	4.645100e-01	-5.497836e-02	0.0	4.487800e-01	-5.581860e-02	0.0	4.331100e-01	-5.659142e-02	0.0	4.175000e-01	-5.729417e-02	0.0	4.019700e-01	-5.792324e-02	0.0	3.865400e-01	-5.847521e-02	0.0	3.712300e-01	-5.894684e-02	0.0	3.560400e-01	-5.933562e-02	0.0	3.409900e-01	-5.963848e-02	0.0	3.261100e-01	-5.985254e-02	0.0	3.114000e-01	-5.997565e-02	0.0	2.968700e-01	-6.000550e-02	0.0	2.825500e-01	-5.994005e-02	0.0	2.684500e-01	-5.977766e-02	0.0	2.545700e-01	-5.951658e-02	0.0	2.409400e-01	-5.915586e-02	0.0	2.275700e-01	-5.869457e-02	0.0	2.144700e-01	-5.813197e-02	0.0	2.016600e-01	-5.746811e-02	0.0	1.891400e-01	-5.670228e-02	0.0	1.769300e-01	-5.583514e-02	0.0	1.650400e-01	-5.486709e-02	0.0	1.534900e-01	-5.379978e-02	0.0	1.422900e-01	-5.263443e-02	0.0	1.314400e-01	-5.137134e-02	0.0	1.209500e-01	-5.001187e-02	0.0	1.108500e-01	-4.856067e-02	0.0	1.011300e-01	-4.701715e-02	0.0	9.181000e-02	-4.538527e-02	0.0	8.290000e-02	-4.366791e-02	0.0	7.440000e-02	-4.186608e-02	0.0	6.633000e-02	-3.998514e-02	0.0	5.869000e-02	-3.802636e-02	0.0	5.149000e-02	-3.599338e-02	0.0	4.474000e-02	-3.389028e-02	0.0	3.844000e-02	-3.171811e-02	0.0	3.260000e-02	-2.948109e-02	0.0	2.723000e-02	-2.718420e-02	0.0	2.232000e-02	-2.482329e-02	0.0	1.790000e-02	-2.241365e-02	0.0	1.395000e-02	-1.994492e-02	0.0	1.049000e-02	-1.742916e-02	0.0	7.520000e-03	-1.486756e-02	0.0	5.040000e-03	-1.226032e-02	0.0	3.050000e-03	-9.605565e-03	0.0	1.560000e-03	-6.917518e-03	0.0	5.600000e-04	-4.173160e-03	0.0	6.000000e-05	-1.375330e-03	0.0	0.000000e+00	0.000000e+00	0.0	6.000000e-05	1.375330e-03	0.0	5.600000e-04	4.173160e-03	0.0	1.560000e-03	6.917518e-03	0.0	3.050000e-03	9.605565e-03	0.0	5.040000e-03	1.226032e-02	0.0	7.520000e-03	1.486756e-02	0.0	1.049000e-02	1.742916e-02	0.0	1.395000e-02	1.994492e-02	0.0	1.790000e-02	2.241365e-02	0.0	2.232000e-02	2.482329e-02	0.0	2.723000e-02	2.718420e-02	0.0	3.260000e-02	2.948109e-02	0.0	3.844000e-02	3.171811e-02	0.0	4.474000e-02	3.389028e-02	0.0	5.149000e-02	3.599338e-02	0.0	5.869000e-02	3.802636e-02	0.0	6.633000e-02	3.998514e-02	0.0	7.440000e-02	4.186608e-02	0.0	8.290000e-02	4.366791e-02	0.0	9.181000e-02	4.538527e-02	0.0	1.011300e-01	4.701715e-02	0.0	1.108500e-01	4.856067e-02	0.0	1.209500e-01	5.001187e-02	0.0	1.314400e-01	5.137134e-02	0.0	1.422900e-01	5.263443e-02	0.0	1.534900e-01	5.379978e-02	0.0	1.650400e-01	5.486709e-02	0.0	1.769300e-01	5.583514e-02	0.0	1.891400e-01	5.670228e-02	0.0	2.016600e-01	5.746811e-02	0.0	2.144700e-01	5.813197e-02	0.0	2.275700e-01	5.869457e-02	0.0	2.409400e-01	5.915586e-02	0.0	2.545700e-01	5.951658e-02	0.0	2.684500e-01	5.977766e-02	0.0	2.825500e-01	5.994005e-02	0.0	2.968700e-01	6.000550e-02	0.0	3.114000e-01	5.997565e-02	0.0	3.261100e-01	5.985254e-02	0.0	3.409900e-01	5.963848e-02	0.0	3.560400e-01	5.933562e-02	0.0	3.712300e-01	5.894684e-02	0.0	3.865400e-01	5.847521e-02	0.0	4.019700e-01	5.792324e-02	0.0	4.175000e-01	5.729417e-02	0.0	4.331100e-01	5.659142e-02	0.0	4.487800e-01	5.581860e-02	0.0	4.645100e-01	5.497836e-02	0.0	4.802700e-01	5.407492e-02	0.0	4.960500e-01	5.311154e-02	0.0	5.118400e-01	5.209138e-02	0.0	5.276100e-01	5.101898e-02	0.0	5.433600e-01	4.989684e-02	0.0	5.590600e-01	4.872956e-02	0.0	5.747100e-01	4.751951e-02	0.0	5.902800e-01	4.627133e-02	0.0	6.057600e-01	4.498807e-02	0.0	6.211300e-01	4.367359e-02	0.0	6.363800e-01	4.233084e-02	0.0	6.515000e-01	4.096270e-02	0.0	6.664700e-01	3.957289e-02	0.0	6.812700e-01	3.816515e-02	0.0	6.958900e-01	3.674225e-02	0.0	7.103200e-01	3.530689e-02	0.0	7.245300e-01	3.386377e-02	0.0	7.385200e-01	3.241453e-02	0.0	7.522800e-01	3.096181e-02	0.0	7.657800e-01	2.951034e-02	0.0	7.790100e-01	2.806277e-02	0.0	7.919700e-01	2.662063e-02	0.0	8.046400e-01	2.518764e-02	0.0	8.170100e-01	2.376642e-02	0.0	8.290500e-01	2.236196e-02	0.0	8.407700e-01	2.097463e-02	0.0	8.521600e-01	1.960709e-02	0.0	8.631800e-01	1.826569e-02	0.0	8.738500e-01	1.694956e-02	0.0	8.841500e-01	1.566269e-02	0.0	8.940600e-01	1.440916e-02	0.0	9.035800e-01	1.319056e-02	0.0	9.127000e-01	1.200973e-02	0.0	9.214000e-01	1.087086e-02	0.0	9.296900e-01	9.774221e-03	0.0	9.375400e-01	8.725349e-03	0.0	9.449600e-01	7.724467e-03	0.0	9.519400e-01	6.774429e-03	0.0	9.584700e-01	5.878077e-03	0.0	9.645400e-01	5.038225e-03	0.0	9.701500e-01	4.256269e-03	0.0	9.752800e-01	3.536324e-03	0.0	9.799500e-01	2.876826e-03	0.0	9.841300e-01	2.283177e-03	0.0	9.878400e-01	1.753610e-03	0.0	9.910500e-01	1.293364e-03	0.0	9.937800e-01	9.004365e-04	0.0	9.960200e-01	5.769984e-04	0.0	9.977600e-01	3.251112e-04	0.0	9.990000e-01	1.452538e-04	0.0	9.997500e-01	3.632897e-05	0.0	1.000000e+00	0.000000e+00	0.0	
CELLS 200	600
2	199	0	2	0	1	2	1	2	2	2	3	2	3	4	2	4	5	2	5	6	2	6	7	2	7	8	2	8	9	2	9	10	2	10	11	2	11	12	2	12	13	2	13	14	2	14	15	2	15	16	2	16	17	2	17	18	2	18	19	2	19	20	2	20	21	2	21	22	2	22	23	2	23	24	2	24	25	2	25	26	2	26	27	2	27	28	2	28	29	2	29	30	2	30	31	2	31	32	2	32	33	2	33	34	2	34	35	2	35	36	2	36	37	2	37	38	2	38	39	2	39	40	2	40	41	2	41	42	2	42	43	2	43	44	2	44	45	2	45	46	2	46	47	2	47	48	2	48	49	2	49	50	2	50	51	2	51	52	2	52	53	2	53	54	2	54	55	2	55	56	2	56	57	2	57	58	2	58	59	2	59	60	2	60	61	2	61	62	2	62	63	2	63	64	2	64	65	2	65	66	2	66	67	2	67	68	2	68	69	2	69	70	2	70	71	2	71	72	2	72	73	2	73	74	2	74	75	2	75	76	2	76	77	2	77	78	2	78	79	2	79	80	2	80	81	2	81	82	2	82	83	2	83	84	2	84	85	2	85	86	2	86	87	2	87	88	2	88	89	2	89	90	2	90	91	2	91	92	2	92	93	2	93	94	2	94	95	2	95	96	2	96	97	2	97	98	2	98	99	2	99	100	2	100	101	2	101	102	2	102	103	2	103	104	2	104	105	2	105	106	2	106	107	2	107	108	2	108	109	2	109	110	2	110	111	2	111	112	2	112	113	2	113	114	2	114	115	2	115	116	2	116	117	2	117	118	2	118	119	2	119	120	2	120	121	2	121	122	2	122	123	2	123	124	2	124	125	2	125	126	2	126	127	2	127	128	2	128	129	2	129	130	2	130	131	2	131	132	2	132	133	2	133	134	2	134	135	2	135	136	2	136	137	2	137	138	2	138	139	2	139	140	2	140	141	2	141	142	2	142	143	2	143	144	2	144	145	2	145	146	2	146	147	2	147	148	2	148	149	2	149	150	2	150	151	2	151	152	2	152	153	2	153	154	2	154	155	2	155	156	2	156	157	2	157	158	2	158	159	2	159	160	2	160	161	2	161	162	2	162	163	2	163	164	2	164	165	2	165	166	2	166	167	2	167	168	2	168	169	2	169	170	2	170	171	2	171	172	2	172	173	2	173	174	2	174	175	2	175	176	2	176	177	2	177	178	2	178	179	2	179	180	2	180	181	2	181	182	2	182	183	2	183	184	2	184	185	2	185	186	2	186	187	2	187	188	2	188	189	2	189	190	2	190	191	2	191	192	2	192	193	2	193	194	2	194	195	2	195	196	2	196	197	2	197	198	2	198	199	
CELL_TYPES 200
3	3	3	3	3	3	3	3	3	3	3	3	3	3	3	3	3	3	3	3	3	3	3	3	3	3	3	3	3	3	3	3	3	3	3	3	3	3	3	3	3	3	3	3	3	3	3	3	3	3	3	3	3	3	3	3	3	3	3	3	3	3	3	3	3	3	3	3	3	3	3	3	3	3	3	3	3	3	3	3	3	3	3	3	3	3	3	3	3	3	3	3	3	3	3	3	3	3	3	3	3	3	3	3	3	3	3	3	3	3	3	3	3	3	3	3	3	3	3	3	3	3	3	3	3	3	3	3	3	3	3	3	3	3	3	3	3	3	3	3	3	3	3	3	3	3	3	3	3	3	3	3	3	3	3	3	3	3	3	3	3	3	3	3	3	3	3	3	3	3	3	3	3	3	3	3	3	3	3	3	3	3	3	3	3	3	3	3	3	3	3	3	3	3	3	3	3	3	3	3	
POINT_DATA 200

SCALARS Conservative_1 float 1
LOOKUP_TABLE default
8.215083e+00	3.059176e+00	2.595762e+00	2.332306e+00	1.971547e+00	1.756450e+00	1.594201e+00	1.464992e+00	1.363051e+00	1.280526e+00	1.213230e+00	1.157334e+00	1.110115e+00	1.070310e+00	1.036192e+00	1.006951e+00	9.819152e-01	9.597039e-01	9.411884e-01	9.246237e-01	9.106249e-01	8.984169e-01	8.878838e-01	8.790344e-01	8.715848e-01	8.652504e-01	8.604972e-01	8.561996e-01	8.534141e-01	8.513720e-01	8.500460e-01	8.502560e-01	8.502651e-01	8.520369e-01	8.538399e-01	8.572263e-01	8.605739e-01	8.654594e-01	8.703612e-01	8.767811e-01	8.832610e-01	8.912701e-01	8.994184e-01	9.089867e-01	9.188219e-01	9.299438e-01	9.415373e-01	9.542737e-01	9.677284e-01	9.820143e-01	9.969062e-01	1.012708e+00	1.029531e+00	1.046374e+00	1.062011e+00	1.074237e+00	1.084972e+00	1.099839e+00	1.126997e+00	1.168296e+00	1.214918e+00	1.253141e+00	1.279140e+00	1.300128e+00	1.326225e+00	1.362999e+00	1.409073e+00	1.455248e+00	1.484426e+00	1.477398e+00	1.424478e+00	1.335887e+00	1.241046e+00	1.168894e+00	1.129904e+00	1.111224e+00	1.091613e+00	1.059805e+00	1.017234e+00	9.714297e-01	9.256074e-01	8.787649e-01	8.289205e-01	7.754926e-01	7.183369e-01	6.570480e-01	5.911749e-01	5.196363e-01	4.419759e-01	3.570740e-01	2.646021e-01	1.636487e-01	5.495739e-02	-5.989175e-02	-1.764385e-01	-2.866029e-01	-3.813339e-01	-4.436373e-01	-4.323550e-01	-3.862072e-01	-3.752743e-01	-3.863224e-01	-3.925216e-01	-4.030684e-01	-4.128182e-01	-4.232389e-01	-4.319110e-01	-4.408379e-01	-4.532702e-01	-4.528806e-01	-4.253696e-01	-4.252878e-01	-5.431394e-01	-7.237988e-01	-7.263829e-01	-3.864067e-01	1.438330e-01	5.299511e-01	5.846294e-01	3.832552e-01	1.065048e-01	-1.360088e-01	-3.289507e-01	-4.900947e-01	-6.270187e-01	-7.397951e-01	-8.326418e-01	-9.130233e-01	-9.869902e-01	-1.056291e+00	-1.120887e+00	-1.180551e+00	-1.234924e+00	-1.283744e+00	-1.326522e+00	-1.363438e+00	-1.394517e+00	-1.421779e+00	-1.446196e+00	-1.470543e+00	-1.494417e+00	-1.518095e+00	-1.539262e+00	-1.559319e+00	-1.577014e+00	-1.593740e+00	-1.609156e+00	-1.623082e+00	-1.635929e+00	-1.647797e+00	-1.663454e+00	-1.681838e+00	-1.696083e+00	-1.693692e+00	-1.664629e+00	-1.572813e+00	-1.363846e+00	-1.094312e+00	-9.025840e-01	-8.462029e-01	-8.584456e-01	-8.743566e-01	-8.864658e-01	-8.975206e-01	-9.102605e-01	-9.221684e-01	-9.349556e-01	-9.469475e-01	-9.601846e-01	-9.729692e-01	-9.872975e-01	-1.001357e+00	-1.017251e+00	-1.032940e+00	-1.050398e+00	-1.068750e+00	-1.088247e+00	-1.109413e+00	-1.132093e+00	-1.156475e+00	-1.183278e+00	-1.212020e+00	-1.244089e+00	-1.278608e+00	-1.317332e+00	-1.359932e+00	-1.408123e+00	-1.462279e+00	-1.524178e+00	-1.595210e+00	-1.678974e+00	-1.777544e+00	-1.897215e+00	-2.043394e+00	-2.217266e+00	-2.499401e+00	-2.713357e+00	-2.753044e+00	-6.833871e+00	4.378749e-01	
SCALARS Conservative_2 float 1
LOOKUP_TABLE default
-1.670881e+01	-7.210108e+00	-5.755982e+00	-5.001425e+00	-4.224154e+00	-3.738350e+00	-3.373568e+00	-3.086739e+00	-2.857662e+00	-2.671672e+00	-2.518488e+00	-2.389802e+00	-2.280184e+00	-2.186314e+00	-2.104934e+00	-2.034078e+00	-1.971841e+00	-1.916405e+00	-1.868108e+00	-1.824525e+00	-1.786096e+00	-1.751568e+00	-1.720646e+00	-1.693142e+00	-1.668532e+00	-1.646433e+00	-1.627091e+00	-1.609290e+00	-1.594047e+00	-1.580282e+00	-1.568255e+00	-1.558316e+00	-1.548965e+00	-1.542203e+00	-1.536004e+00	-1.531994e+00	-1.528389e+00	-1.526917e+00	-1.525873e+00	-1.526842e+00	-1.528252e+00	-1.531653e+00	-1.535491e+00	-1.541141e+00	-1.547328e+00	-1.555110e+00	-1.563615e+00	-1.573598e+00	-1.584467e+00	-1.596380e+00	-1.609125e+00	-1.622976e+00	-1.637992e+00	-1.653270e+00	-1.667347e+00	-1.677876e+00	-1.686651e+00	-1.699547e+00	-1.725087e+00	-1.764999e+00	-1.809517e+00	-1.845128e+00	-1.868614e+00	-1.887281e+00	-1.911024e+00	-1.945051e+00	-1.987982e+00	-2.030842e+00	-2.056996e+00	-2.047826e+00	-1.993737e+00	-1.904609e+00	-1.808790e+00	-1.734522e+00	-1.692132e+00	-1.669081e+00	-1.644432e+00	-1.606905e+00	-1.557585e+00	-1.503701e+00	-1.448261e+00	-1.390032e+00	-1.326752e+00	-1.257277e+00	-1.181076e+00	-1.096954e+00	-1.003758e+00	-8.992189e-01	-7.817250e-01	-6.484537e-01	-4.972218e-01	-3.251086e-01	-1.308332e-01	8.477749e-02	3.158823e-01	5.498105e-01	7.515682e-01	9.168490e-01	9.925915e-01	1.017381e+00	1.008684e+00	1.015848e+00	1.029951e+00	1.052532e+00	1.071332e+00	1.091310e+00	1.108070e+00	1.123542e+00	1.140367e+00	1.144331e+00	1.123717e+00	1.128478e+00	1.239354e+00	1.405329e+00	1.407765e+00	1.096229e+00	6.081256e-01	2.484465e-01	1.913420e-01	3.709228e-01	6.227870e-01	8.453245e-01	1.022864e+00	1.171077e+00	1.296910e+00	1.400684e+00	1.486033e+00	1.559958e+00	1.627880e+00	1.691477e+00	1.750750e+00	1.805496e+00	1.855423e+00	1.900403e+00	1.940104e+00	1.974607e+00	2.004081e+00	2.030229e+00	2.053992e+00	2.077699e+00	2.101143e+00	2.124523e+00	2.145818e+00	2.166194e+00	2.184900e+00	2.202750e+00	2.219763e+00	2.235572e+00	2.250644e+00	2.264975e+00	2.282842e+00	2.303201e+00	2.320023e+00	2.324876e+00	2.308742e+00	2.238205e+00	2.065474e+00	1.836585e+00	1.650876e+00	1.585113e+00	1.606369e+00	1.634475e+00	1.656874e+00	1.678737e+00	1.703404e+00	1.727597e+00	1.753431e+00	1.779058e+00	1.806871e+00	1.834953e+00	1.865742e+00	1.897181e+00	1.931822e+00	1.967525e+00	2.006231e+00	2.047551e+00	2.091805e+00	2.139796e+00	2.191594e+00	2.247613e+00	2.309163e+00	2.375997e+00	2.450247e+00	2.531411e+00	2.622103e+00	2.723132e+00	2.837623e+00	2.967538e+00	3.116950e+00	3.290035e+00	3.495287e+00	3.740716e+00	4.039547e+00	4.412585e+00	4.874877e+00	5.588304e+00	6.308684e+00	7.054242e+00	1.535494e+01	-1.338572e+00	
SCALARS Conservative_3 float 1
LOOKUP_TABLE default
-1.892711e+00	-6.216526e-01	-1.023755e+00	-8.624206e-01	-7.665261e-01	-7.013739e-01	-6.401227e-01	-5.915104e-01	-5.512806e-01	-5.180990e-01	-4.899361e-01	-4.661164e-01	-4.453034e-01	-4.271000e-01	-4.108496e-01	-3.961937e-01	-3.831667e-01	-3.707705e-01	-3.597619e-01	-3.492171e-01	-3.395571e-01	-3.304415e-01	-3.217646e-01	-3.136192e-01	-3.058869e-01	-2.983012e-01	-2.914005e-01	-2.843272e-01	-2.777798e-01	-2.713605e-01	-2.648847e-01	-2.590731e-01	-2.527090e-01	-2.470463e-01	-2.409162e-01	-2.353907e-01	-2.293309e-01	-2.237776e-01	-2.176915e-01	-2.120318e-01	-2.058137e-01	-1.999340e-01	-1.934938e-01	-1.872533e-01	-1.804766e-01	-1.737060e-01	-1.664636e-01	-1.590177e-01	-1.511355e-01	-1.428965e-01	-1.341563e-01	-1.249403e-01	-1.153227e-01	-1.049071e-01	-9.377936e-02	-8.158207e-02	-6.877115e-02	-5.563455e-02	-4.284517e-02	-2.994408e-02	-1.416226e-02	4.743289e-03	2.407791e-02	4.309012e-02	6.310515e-02	8.541230e-02	1.106246e-01	1.383831e-01	1.676031e-01	1.959877e-01	2.209752e-01	2.422175e-01	2.621573e-01	2.853369e-01	3.142653e-01	3.475282e-01	3.817349e-01	4.145546e-01	4.465462e-01	4.794280e-01	5.142484e-01	5.505929e-01	5.879689e-01	6.262522e-01	6.654191e-01	7.054359e-01	7.456988e-01	7.855953e-01	8.237481e-01	8.583425e-01	8.863286e-01	9.026365e-01	9.006609e-01	8.704818e-01	7.987915e-01	6.784648e-01	4.926928e-01	2.185880e-01	1.157429e-02	1.745255e-02	5.438046e-02	7.397695e-02	8.393045e-02	9.678483e-02	1.025163e-01	1.048149e-01	1.034650e-01	1.015150e-01	1.020521e-01	9.383170e-02	6.893108e-02	5.937257e-02	1.059023e-01	1.749744e-01	1.696599e-01	5.199458e-02	-1.001761e-01	-1.816108e-01	-1.654702e-01	-1.002704e-01	-3.886493e-02	1.224495e-03	2.636495e-02	4.375292e-02	5.522914e-02	6.102461e-02	6.284426e-02	6.269051e-02	6.137941e-02	5.894137e-02	5.543956e-02	5.104616e-02	4.593122e-02	4.027973e-02	3.416707e-02	2.760452e-02	2.081516e-02	1.381091e-02	7.109153e-03	3.893020e-04	-6.063989e-03	-1.271061e-02	-1.903128e-02	-2.557897e-02	-3.158403e-02	-3.759504e-02	-4.338926e-02	-4.934489e-02	-5.590468e-02	-6.245513e-02	-6.916985e-02	-7.426856e-02	-7.487934e-02	-6.638007e-02	-6.026456e-02	-7.831402e-02	-9.750841e-02	-7.796086e-02	-3.208782e-02	-3.391329e-02	-3.763700e-02	-4.179506e-02	-4.504070e-02	-4.839866e-02	-5.273843e-02	-5.651900e-02	-6.111162e-02	-6.519180e-02	-7.019699e-02	-7.474343e-02	-8.031380e-02	-8.545404e-02	-9.168603e-02	-9.750169e-02	-1.043911e-01	-1.114451e-01	-1.189920e-01	-1.273105e-01	-1.361542e-01	-1.457387e-01	-1.563732e-01	-1.676840e-01	-1.804770e-01	-1.941041e-01	-2.096982e-01	-2.267534e-01	-2.463758e-01	-2.682879e-01	-2.936641e-01	-3.230845e-01	-3.574859e-01	-3.982100e-01	-4.459360e-01	-5.028118e-01	-5.576045e-01	-6.122836e-01	-6.863784e-01	-1.802510e-01	-7.046952e-01	-2.120722e+01	
SCALARS Conservative_4 float 1
LOOKUP_TABLE default
4.097587e+00	1.131086e+00	8.771496e-01	7.714790e-01	6.218369e-01	5.411083e-01	4.832369e-01	4.379212e-01	4.028467e-01	3.748414e-01	3.521273e-01	3.333444e-01	3.176244e-01	3.043406e-01	2.930482e-01	2.833667e-01	2.749920e-01	2.677462e-01	2.614430e-01	2.559966e-01	2.511949e-01	2.470632e-01	2.434283e-01	2.403108e-01	2.376249e-01	2.353419e-01	2.333989e-01	2.318052e-01	2.304859e-01	2.294642e-01	2.287157e-01	2.281929e-01	2.279418e-01	2.278873e-01	2.281494e-01	2.285523e-01	2.292497e-01	2.300842e-01	2.312113e-01	2.324792e-01	2.340389e-01	2.357524e-01	2.377539e-01	2.399075e-01	2.423454e-01	2.449425e-01	2.478186e-01	2.508911e-01	2.542229e-01	2.577141e-01	2.614256e-01	2.653565e-01	2.695385e-01	2.738196e-01	2.777209e-01	2.808417e-01	2.834553e-01	2.871400e-01	2.938619e-01	3.044804e-01	3.165860e-01	3.264550e-01	3.329734e-01	3.382695e-01	3.449954e-01	3.544387e-01	3.660820e-01	3.774822e-01	3.843861e-01	3.821465e-01	3.685227e-01	3.463709e-01	3.228422e-01	3.051270e-01	2.955083e-01	2.907360e-01	2.856713e-01	2.775397e-01	2.668461e-01	2.553349e-01	2.438858e-01	2.321402e-01	2.196762e-01	2.063083e-01	1.920543e-01	1.768025e-01	1.604081e-01	1.427383e-01	1.235581e-01	1.027228e-01	8.016673e-02	5.566740e-02	2.952399e-02	2.179353e-03	-2.543210e-02	-5.110930e-02	-7.168779e-02	-8.450903e-02	-9.793167e-02	-1.088022e-01	-1.129088e-01	-1.125927e-01	-1.149542e-01	-1.176556e-01	-1.204448e-01	-1.231197e-01	-1.252445e-01	-1.275494e-01	-1.307340e-01	-1.305481e-01	-1.231452e-01	-1.224517e-01	-1.509126e-01	-1.955569e-01	-1.975272e-01	-1.155428e-01	1.517603e-02	1.134599e-01	1.311778e-01	8.423421e-02	1.608566e-02	-4.506170e-02	-9.424035e-02	-1.352878e-01	-1.701682e-01	-1.990179e-01	-2.226683e-01	-2.431019e-01	-2.618156e-01	-2.793157e-01	-2.956397e-01	-3.106776e-01	-3.244200e-01	-3.367175e-01	-3.476135e-01	-3.569354e-01	-3.649301e-01	-3.717688e-01	-3.780397e-01	-3.840690e-01	-3.901583e-01	-3.959950e-01	-4.014370e-01	-4.063750e-01	-4.109265e-01	-4.151353e-01	-4.190351e-01	-4.226521e-01	-4.257738e-01	-4.286789e-01	-4.321042e-01	-4.360385e-01	-4.382691e-01	-4.379559e-01	-4.337206e-01	-4.142485e-01	-3.600655e-01	-2.868087e-01	-2.382239e-01	-2.276106e-01	-2.299274e-01	-2.341491e-01	-2.372698e-01	-2.405337e-01	-2.439532e-01	-2.474865e-01	-2.509418e-01	-2.545736e-01	-2.582285e-01	-2.621444e-01	-2.661628e-01	-2.704953e-01	-2.750157e-01	-2.798844e-01	-2.850033e-01	-2.905204e-01	-2.964510e-01	-3.028742e-01	-3.097842e-01	-3.173508e-01	-3.255524e-01	-3.346285e-01	-3.445681e-01	-3.556368e-01	-3.679109e-01	-3.817822e-01	-3.974851e-01	-4.155153e-01	-4.363542e-01	-4.608221e-01	-4.901466e-01	-5.257142e-01	-5.704738e-01	-6.271985e-01	-6.999334e-01	-8.351501e-01	-9.536178e-01	-1.076946e+00	-3.893365e+00	3.183335e-02	
SCALARS Surface_Sensitivity float 1
LOOKUP_TABLE default
-3.347209e+04	1.162573e+04	6.510799e+02	3.460132e+02	2.713434e+02	1.323181e+02	8.483407e+01	5.798838e+01	4.060124e+01	2.983931e+01	2.249012e+01	1.745080e+01	1.383470e+01	1.114047e+01	9.129637e+00	7.580276e+00	6.358713e+00	5.425985e+00	4.619639e+00	4.018445e+00	3.493729e+00	3.064756e+00	2.714711e+00	2.403318e+00	2.144664e+00	1.937377e+00	1.735521e+00	1.589271e+00	1.428001e+00	1.299090e+00	1.190153e+00	1.076920e+00	1.035489e+00	9.384192e-01	8.831234e-01	7.984476e-01	7.634774e-01	6.971091e-01	6.714963e-01	6.163088e-01	5.987269e-01	5.504875e-01	5.381840e-01	5.004591e-01	4.872500e-01	4.539162e-01	4.309875e-01	3.757499e-01	3.288147e-01	3.233795e-01	4.242348e-01	6.067008e-01	5.942195e-01	-9.337476e-03	-1.180904e+00	-1.899311e+00	-4.535914e-01	4.149389e+00	9.566312e+00	9.889855e+00	4.023805e+00	-1.682094e+00	-4.293586e+00	-5.281852e+00	-6.295635e+00	-7.656071e+00	-8.574798e+00	-7.841094e+00	-4.543689e+00	9.646300e-01	6.584667e+00	9.410015e+00	7.868157e+00	3.282613e+00	-1.142644e+00	-2.905086e+00	-2.051113e+00	-4.341984e-01	3.595136e-01	1.468178e-01	-2.761428e-01	-4.144594e-01	-3.492976e-01	-2.847789e-01	-2.848203e-01	-3.095903e-01	-2.936836e-01	-2.172474e-01	-9.582701e-02	1.408696e-01	5.470264e-01	1.230261e+00	2.271951e+00	3.625814e+00	4.505781e+00	5.906128e+00	4.452751e+00	1.027286e+01	7.261031e+00	-9.412187e+00	1.305659e+01	1.360518e+01	6.266588e+00	8.240670e+00	6.108275e+00	4.756905e+00	3.422915e+00	1.060520e+00	1.451310e+00	8.372298e+00	9.220033e+00	-1.299379e+01	-4.008328e+01	-2.572916e+01	3.897489e+01	9.984597e+01	1.009901e+02	4.680839e+01	-1.382079e+01	-4.473193e+01	-4.655053e+01	-3.725373e+01	-2.880506e+01	-2.296982e+01	-1.821673e+01	-1.412178e+01	-1.118568e+01	-9.407320e+00	-8.273761e+00	-7.321227e+00	-6.452434e+00	-5.646667e+00	-4.887511e+00	-4.129689e+00	-3.391887e+00	-2.677667e+00	-2.077839e+00	-1.640329e+00	-1.413981e+00	-1.300269e+00	-1.228240e+00	-1.093050e+00	-9.300357e-01	-7.089511e-01	-5.168232e-01	-3.429631e-01	-1.798739e-01	-3.891019e-02	9.978048e-02	2.605598e-02	-1.244472e-01	4.763157e-03	5.654202e-01	1.918341e+00	7.140664e+00	1.434079e+01	1.400288e+01	-5.835982e+00	2.295910e+00	7.298079e-01	-2.988252e-01	-4.600659e-01	-6.050023e-01	-6.847575e-01	-6.716707e-01	-7.201952e-01	-7.321322e-01	-8.023771e-01	-8.445349e-01	-9.531456e-01	-1.025644e+00	-1.173578e+00	-1.274162e+00	-1.459607e+00	-1.635208e+00	-1.852841e+00	-2.118273e+00	-2.409791e+00	-2.768296e+00	-3.206095e+00	-3.713317e+00	-4.375701e+00	-5.138420e+00	-6.154694e+00	-7.402910e+00	-9.059965e+00	-1.121335e+01	-1.413808e+01	-1.813158e+01	-2.402026e+01	-3.246337e+01	-4.607895e+01	-6.820770e+01	-1.025640e+02	-2.102668e+02	-3.116050e+02	-3.470294e+02	-9.654788e+03	2.590651e+04	-8.729616e+02	