# vtk DataFile Version 3.0
vtk output
ASCII
DATASET UNSTRUCTURED_GRID
POINTS 5233 float
9.997500e-01	-3.633243e-05	0.0	9.990000e-01	-1.454723e-04	0.0	9.977600e-01	-3.275074e-04	0.0	9.960200e-01	-5.899270e-04	0.0	9.937800e-01	-9.470943e-04	0.0	9.910500e-01	-1.422095e-03	0.0	9.878400e-01	-2.045515e-03	0.0	9.841300e-01	-2.853670e-03	0.0	9.799500e-01	-3.858877e-03	0.0	9.752800e-01	-5.058294e-03	0.0	9.701500e-01	-6.405105e-03	0.0	9.645400e-01	-7.840836e-03	0.0	9.584700e-01	-9.290151e-03	0.0	9.519400e-01	-1.069769e-02	0.0	9.449600e-01	-1.203551e-02	0.0	9.375400e-01	-1.330801e-02	0.0	9.296900e-01	-1.454249e-02	0.0	9.214000e-01	-1.577724e-02	0.0	9.127000e-01	-1.703951e-02	0.0	9.035800e-01	-1.835033e-02	0.0	8.940600e-01	-1.971335e-02	0.0	8.841500e-01	-2.112395e-02	0.0	8.738500e-01	-2.257393e-02	0.0	8.631800e-01	-2.405119e-02	0.0	8.521600e-01	-2.554508e-02	0.0	8.407700e-01	-2.705243e-02	0.0	8.290500e-01	-2.856399e-02	0.0	8.170100e-01	-3.007593e-02	0.0	8.046400e-01	-3.158743e-02	0.0	7.919700e-01	-3.309282e-02	0.0	7.790100e-01	-3.458886e-02	0.0	7.657800e-01	-3.607091e-02	0.0	7.522800e-01	-3.753643e-02	0.0	7.385200e-01	-3.898156e-02	0.0	7.245300e-01	-4.040044e-02	0.0	7.103200e-01	-4.178943e-02	0.0	6.958900e-01	-4.314598e-02	0.0	6.812700e-01	-4.446489e-02	0.0	6.664700e-01	-4.574315e-02	0.0	6.515000e-01	-4.697800e-02	0.0	6.363800e-01	-4.816612e-02	0.0	6.211300e-01	-4.930460e-02	0.0	6.057600e-01	-5.039158e-02	0.0	5.902800e-01	-5.142543e-02	0.0	5.747100e-01	-5.240410e-02	0.0	5.590600e-01	-5.332642e-02	0.0	5.433600e-01	-5.419030e-02	0.0	5.276100e-01	-5.499556e-02	0.0	5.118400e-01	-5.574054e-02	0.0	4.960500e-01	-5.642518e-02	0.0	4.802700e-01	-5.704816e-02	0.0	4.645100e-01	-5.760906e-02	0.0	4.487800e-01	-5.810743e-02	0.0	4.331100e-01	-5.854218e-02	0.0	4.175000e-01	-5.891308e-02	0.0	4.019700e-01	-5.921925e-02	0.0	3.865400e-01	-5.945979e-02	0.0	3.712300e-01	-5.963381e-02	0.0	3.560400e-01	-5.974053e-02	0.0	3.409900e-01	-5.977878e-02	0.0	3.261100e-01	-5.974747e-02	0.0	3.114000e-01	-5.964544e-02	0.0	2.968700e-01	-5.947133e-02	0.0	2.825500e-01	-5.922405e-02	0.0	2.684500e-01	-5.890231e-02	0.0	2.545700e-01	-5.850443e-02	0.0	2.409400e-01	-5.802955e-02	0.0	2.275700e-01	-5.747639e-02	0.0	2.144700e-01	-5.684365e-02	0.0	2.016600e-01	-5.613067e-02	0.0	1.891400e-01	-5.533575e-02	0.0	1.769300e-01	-5.445848e-02	0.0	1.650400e-01	-5.349802e-02	0.0	1.534900e-01	-5.245459e-02	0.0	1.422900e-01	-5.132792e-02	0.0	1.314400e-01	-5.011675e-02	0.0	1.209500e-01	-4.882082e-02	0.0	1.108500e-01	-4.744293e-02	0.0	1.011300e-01	-4.598090e-02	0.0	9.181000e-02	-4.443684e-02	0.0	8.290000e-02	-4.281188e-02	0.0	7.440000e-02	-4.110537e-02	0.0	6.633000e-02	-3.932086e-02	0.0	5.869000e-02	-3.745803e-02	0.0	5.149000e-02	-3.551892e-02	0.0	4.474000e-02	-3.350605e-02	0.0	3.844000e-02	-3.141910e-02	0.0	3.260000e-02	-2.926093e-02	0.0	2.723000e-02	-2.703521e-02	0.0	2.232000e-02	-2.473693e-02	0.0	1.790000e-02	-2.238007e-02	0.0	1.395000e-02	-1.995381e-02	0.0	1.049000e-02	-1.746942e-02	0.0	7.520000e-03	-1.492781e-02	0.0	5.040000e-03	-1.232916e-02	0.0	3.050000e-03	-9.671917e-03	0.0	1.560000e-03	-6.971333e-03	0.0	5.600000e-04	-4.206251e-03	0.0	6.000000e-05	-1.384015e-03	0.0	0.000000e+00	0.000000e+00	0.0	6.000000e-05	1.263717e-03	0.0	5.600000e-04	3.624959e-03	0.0	1.560000e-03	5.788687e-03	0.0	3.050000e-03	7.806660e-03	0.0	5.040000e-03	9.723902e-03	0.0	7.520000e-03	1.154817e-02	0.0	1.049000e-02	1.329444e-02	0.0	1.395000e-02	1.497324e-02	0.0	1.790000e-02	1.659248e-02	0.0	2.232000e-02	1.815177e-02	0.0	2.723000e-02	1.966427e-02	0.0	3.260000e-02	2.112584e-02	0.0	3.844000e-02	2.254418e-02	0.0	4.474000e-02	2.392066e-02	0.0	5.149000e-02	2.525665e-02	0.0	5.869000e-02	2.655516e-02	0.0	6.633000e-02	2.781694e-02	0.0	7.440000e-02	2.904263e-02	0.0	8.290000e-02	3.023416e-02	0.0	9.181000e-02	3.139042e-02	0.0	1.011300e-01	3.251293e-02	0.0	1.108500e-01	3.360165e-02	0.0	1.209500e-01	3.465544e-02	0.0	1.314400e-01	3.567617e-02	0.0	1.422900e-01	3.666155e-02	0.0	1.534900e-01	3.761131e-02	0.0	1.650400e-01	3.852582e-02	0.0	1.769300e-01	3.940438e-02	0.0	1.891400e-01	4.024554e-02	0.0	2.016600e-01	4.104851e-02	0.0	2.144700e-01	4.181177e-02	0.0	2.275700e-01	4.253494e-02	0.0	2.409400e-01	4.321629e-02	0.0	2.545700e-01	4.385457e-02	0.0	2.684500e-01	4.444839e-02	0.0	2.825500e-01	4.499544e-02	0.0	2.968700e-01	4.549454e-02	0.0	3.114000e-01	4.594391e-02	0.0	3.261100e-01	4.634109e-02	0.0	3.409900e-01	4.668421e-02	0.0	3.560400e-01	4.697140e-02	0.0	3.712300e-01	4.720009e-02	0.0	3.865400e-01	4.736797e-02	0.0	4.019700e-01	4.747290e-02	0.0	4.175000e-01	4.751242e-02	0.0	4.331100e-01	4.748419e-02	0.0	4.487800e-01	4.738597e-02	0.0	4.645100e-01	4.721542e-02	0.0	4.802700e-01	4.697055e-02	0.0	4.960500e-01	4.664935e-02	0.0	5.118400e-01	4.624989e-02	0.0	5.276100e-01	4.577103e-02	0.0	5.433600e-01	4.521109e-02	0.0	5.590600e-01	4.456971e-02	0.0	5.747100e-01	4.384575e-02	0.0	5.902800e-01	4.303986e-02	0.0	6.057600e-01	4.215232e-02	0.0	6.211300e-01	4.118450e-02	0.0	6.363800e-01	4.013779e-02	0.0	6.515000e-01	3.901416e-02	0.0	6.664700e-01	3.781694e-02	0.0	6.812700e-01	3.655036e-02	0.0	6.958900e-01	3.521856e-02	0.0	7.103200e-01	3.382635e-02	0.0	7.245300e-01	3.238130e-02	0.0	7.385200e-01	3.088875e-02	0.0	7.522800e-01	2.935563e-02	0.0	7.657800e-01	2.779185e-02	0.0	7.790100e-01	2.620580e-02	0.0	7.919700e-01	2.460510e-02	0.0	8.046400e-01	2.300029e-02	0.0	8.170100e-01	2.140100e-02	0.0	8.290500e-01	1.981959e-02	0.0	8.407700e-01	1.826284e-02	0.0	8.521600e-01	1.673921e-02	0.0	8.631800e-01	1.525953e-02	0.0	8.738500e-01	1.382428e-02	0.0	8.841500e-01	1.243668e-02	0.0	8.940600e-01	1.109794e-02	0.0	9.035800e-01	9.806370e-03	0.0	9.127000e-01	8.564674e-03	0.0	9.214000e-01	7.383797e-03	0.0	9.296900e-01	6.280300e-03	0.0	9.375400e-01	5.285146e-03	0.0	9.449600e-01	4.427477e-03	0.0	9.519400e-01	3.732208e-03	0.0	9.584700e-01	3.205455e-03	0.0	9.645400e-01	2.827042e-03	0.0	9.701500e-01	2.552114e-03	0.0	9.752800e-01	2.324872e-03	0.0	9.799500e-01	2.093085e-03	0.0	9.841300e-01	1.827037e-03	0.0	9.878400e-01	1.519906e-03	0.0	9.910500e-01	1.190204e-03	0.0	9.937800e-01	8.630224e-04	0.0	9.960200e-01	5.666265e-04	0.0	9.977600e-01	3.231883e-04	0.0	9.990000e-01	1.450783e-04	0.0	9.997500e-01	3.632619e-05	0.0	1.000000e+00	0.000000e+00	0.0	1.984229e+01	2.506660e+00	0.0	1.937166e+01	4.973800e+00	0.0	1.859553e+01	7.362490e+00	0.0	1.752613e+01	9.635070e+00	0.0	1.618034e+01	1.175571e+01	0.0	1.457937e+01	1.369094e+01	0.0	1.274848e+01	1.541027e+01	0.0	1.071654e+01	1.688656e+01	0.0	8.515590e+00	1.809654e+01	0.0	6.180340e+00	1.902113e+01	0.0	3.747630e+00	1.964575e+01	0.0	1.255810e+00	1.996053e+01	0.0	-1.255810e+00	1.996053e+01	0.0	-3.747630e+00	1.964574e+01	0.0	-6.180340e+00	1.902113e+01	0.0	-8.515590e+00	1.809654e+01	0.0	-1.071654e+01	1.688656e+01	0.0	-1.274848e+01	1.541026e+01	0.0	-1.457937e+01	1.369094e+01	0.0	-1.618034e+01	1.175570e+01	0.0	-1.752613e+01	9.635070e+00	0.0	-1.859553e+01	7.362490e+00	0.0	-1.937166e+01	4.973800e+00	0.0	-1.984229e+01	2.506660e+00	0.0	-2.000000e+01	0.000000e+00	0.0	-1.984229e+01	-2.506670e+00	0.0	-1.937166e+01	-4.973800e+00	0.0	-1.859553e+01	-7.362490e+00	0.0	-1.752613e+01	-9.635080e+00	0.0	-1.618034e+01	-1.175571e+01	0.0	-1.457937e+01	-1.369094e+01	0.0	-1.274848e+01	-1.541027e+01	0.0	-1.071653e+01	-1.688656e+01	0.0	-8.515580e+00	-1.809654e+01	0.0	-6.180340e+00	-1.902113e+01	0.0	-3.747620e+00	-1.964575e+01	0.0	-1.255810e+00	-1.996053e+01	0.0	1.255810e+00	-1.996053e+01	0.0	3.747630e+00	-1.964574e+01	0.0	6.180340e+00	-1.902113e+01	0.0	8.515590e+00	-1.809654e+01	0.0	1.071654e+01	-1.688656e+01	0.0	1.274848e+01	-1.541026e+01	0.0	1.457937e+01	-1.369094e+01	0.0	1.618034e+01	-1.175570e+01	0.0	1.752614e+01	-9.635070e+00	0.0	1.859553e+01	-7.362490e+00	0.0	1.937166e+01	-4.973790e+00	0.0	1.984229e+01	-2.506660e+00	0.0	2.000000e+01	0.000000e+00	0.0	6.074237e-02	-4.532111e-02	0.0	6.601883e-01	-6.002181e-02	0.0	4.255533e-01	6.172247e-02	0.0	6.897642e-01	4.910621e-02	0.0	3.791232e-01	-7.360570e-02	0.0	9.994675e-01	-7.275896e-04	0.0	9.985544e-01	-1.331421e-03	0.0	7.738131e-01	-4.739995e-02	0.0	6.898600e-01	-5.714801e-02	0.0	-1.127142e-03	5.516564e-03	0.0	7.467800e-01	-5.080735e-02	0.0	5.833311e-01	5.753402e-02	0.0	9.928160e-01	-3.736231e-03	0.0	9.899359e-01	-4.744180e-03	0.0	5.989072e-01	5.659918e-02	0.0	7.187646e-01	-5.406347e-02	0.0	-1.468664e-03	5.997942e-04	0.0	9.865725e-01	-5.906475e-03	0.0	9.827328e-01	-7.226370e-03	0.0	-1.302030e-03	-6.473027e-03	0.0	6.451051e-01	-6.137241e-02	0.0	8.244819e-01	-4.029777e-02	0.0	7.997421e-01	-4.389408e-02	0.0	3.484809e-01	6.060777e-02	0.0	8.479020e-01	-3.666736e-02	0.0	2.473656e-01	5.609747e-02	0.0	8.699420e-01	-3.302708e-02	0.0	1.046400e-02	1.734319e-02	0.0	8.904957e-01	-2.943307e-02	0.0	7.702148e-02	-4.969910e-02	0.0	9.094909e-01	-2.594010e-02	0.0	-1.766747e-03	-3.206974e-03	0.0	9.424825e-01	-1.916819e-02	0.0	9.268474e-01	-2.255008e-02	0.0	1.794784e-02	-2.749675e-02	0.0	4.257416e-01	-7.303653e-02	0.0	8.591035e-01	-3.484301e-02	0.0	9.563355e-01	-1.566688e-02	0.0	9.784088e-01	-8.725323e-03	0.0	9.683300e-01	-1.208063e-02	0.0	1.582632e-01	-6.357370e-02	0.0	9.001950e-01	-2.767198e-02	0.0	7.604294e-01	-4.911946e-02	0.0	9.971359e-01	-2.087281e-03	0.0	5.990500e-01	-6.504507e-02	0.0	4.414441e-01	-7.268668e-02	0.0	5.363196e-01	-6.898011e-02	0.0	4.730157e-01	-7.175421e-02	0.0	5.046766e-01	-7.051678e-02	0.0	4.888342e-01	-7.117243e-02	0.0	1.249493e-01	-5.906525e-02	0.0	2.784418e-02	-3.297642e-02	0.0	3.945689e-01	-7.349772e-02	0.0	4.621901e-02	-4.062303e-02	0.0	4.101097e-01	-7.330832e-02	0.0	3.187146e-01	-7.321365e-02	0.0	3.486125e-01	-7.358040e-02	0.0	3.350773e-02	-3.558975e-02	0.0	2.895104e-01	-7.250818e-02	0.0	9.348849e-01	-2.086600e-02	0.0	1.468045e-01	-6.216157e-02	0.0	1.946434e-01	-6.723364e-02	0.0	8.579568e-02	-5.175680e-02	0.0	1.045869e-01	-5.560405e-02	0.0	5.678223e-01	-6.716034e-02	0.0	1.700658e-01	-6.489203e-02	0.0	6.145275e-01	-6.388336e-02	0.0	8.804131e-01	-3.122163e-02	0.0	2.266816e-02	-3.027708e-02	0.0	9.952218e-01	-2.870135e-03	0.0	6.736389e-03	-1.882145e-02	0.0	1.849218e-02	2.151182e-02	0.0	9.183775e-01	-2.423561e-02	0.0	9.49640
[...]
POINT_DATA 5233

SCALARS Conservative_1 float 1
LOOKUP_TABLE default
1.199829e+00	1.181603e+00	1.171179e+00	1.164739e+00	1.160166e+00	1.155701e+00	1.148816e+00	1.137898e+00	1.121717e+00	1.100362e+00	1.075074e+00	1.048463e+00	1.024896e+00	1.008362e+00	9.999883e-01	9.979302e-01	9.990396e-01	1.000482e+00	1.000510e+00	9.985213e-01	9.947378e-01	9.897162e-01	9.840419e-01	9.781864e-01	9.724274e-01	9.668758e-01	9.615230e-01	9.563224e-01	9.512093e-01	9.461524e-01	9.411356e-01	9.361151e-01	9.310570e-01	9.259777e-01	9.209285e-01	9.159576e-01	9.110838e-01	9.063116e-01	9.016523e-01	8.971224e-01	8.927217e-01	8.884607e-01	8.843220e-01	8.803220e-01	8.764757e-01	8.728347e-01	8.693885e-01	8.660732e-01	8.627418e-01	8.593846e-01	8.562038e-01	8.535533e-01	8.515467e-01	8.498923e-01	8.479171e-01	8.448700e-01	8.402515e-01	8.342098e-01	8.276246e-01	8.217523e-01	8.174791e-01	8.149977e-01	8.140357e-01	8.141602e-01	8.150616e-01	8.165407e-01	8.185484e-01	8.210010e-01	8.238122e-01	8.268696e-01	8.301921e-01	8.339427e-01	8.383682e-01	8.435368e-01	8.493720e-01	8.557276e-01	8.626681e-01	8.703719e-01	8.788960e-01	8.882796e-01	8.986348e-01	9.100202e-01	9.225873e-01	9.364539e-01	9.518100e-01	9.689326e-01	9.880499e-01	1.009521e+00	1.033830e+00	1.061294e+00	1.092443e+00	1.127744e+00	1.167045e+00	1.209885e+00	1.254555e+00	1.298041e+00	1.331744e+00	1.350900e+00	1.339533e+00	1.308267e+00	1.284252e+00	1.221085e+00	1.099436e+00	1.001954e+00	9.259599e-01	8.702569e-01	8.322816e-01	8.072836e-01	7.904567e-01	7.790615e-01	7.714027e-01	7.663114e-01	7.632280e-01	7.614153e-01	7.604992e-01	7.604763e-01	7.612180e-01	7.624875e-01	7.639634e-01	7.653187e-01	7.665703e-01	7.680421e-01	7.699926e-01	7.722716e-01	7.744798e-01	7.763896e-01	7.780927e-01	7.797362e-01	7.814232e-01	7.832239e-01	7.851935e-01	7.873158e-01	7.895178e-01	7.916992e-01	7.938165e-01	7.958442e-01	7.977728e-01	7.995638e-01	8.012265e-01	8.028759e-01	8.047239e-01	8.069254e-01	8.095291e-01	8.124986e-01	8.158398e-01	8.196181e-01	8.238668e-01	8.285530e-01	8.335016e-01	8.385010e-01	8.433451e-01	8.480943e-01	8.530495e-01	8.585640e-01	8.646986e-01	8.712217e-01	8.779105e-01	8.847639e-01	8.919500e-01	8.995164e-01	9.074118e-01	9.155484e-01	9.238772e-01	9.323857e-01	9.410443e-01	9.498396e-01	9.587217e-01	9.676727e-01	9.766185e-01	9.855614e-01	9.944186e-01	1.003109e+00	1.011571e+00	1.019720e+00	1.027509e+00	1.034917e+00	1.041992e+00	1.048913e+00	1.055939e+00	1.063460e+00	1.071774e+00	1.080975e+00	1.090684e+00	1.100036e+00	1.107782e+00	1.112587e+00	1.113361e+00	1.109742e+00	1.102492e+00	1.093778e+00	1.086677e+00	1.084160e+00	1.088064e+00	1.098280e+00	1.112853e+00	1.130017e+00	1.148479e+00	1.168636e+00	1.192714e+00	1.181127e+00	9.999764e-01	9.999694e-01	9.999527e-01	9.999287e-01	9.999046e-01	9.998764e-01	9.998368e-01	9.997815e-01	9.997188e-01	9.996667e-01	9.996322e-01	9.996438e-01	9.996982e-01	9.998089e-01	9.999040e-01	9.999808e-01	1.000023e+00	1.000049e+00	1.000064e+00	1.000070e+00	1.000073e+00	1.000074e+00	1.000074e+00	1.000076e+00	1.000077e+00	1.000080e+00	1.000085e+00	1.000092e+00	1.000101e+00	1.000114e+00	1.000129e+00	1.000150e+00	1.000169e+00	1.000196e+00	1.000213e+00	1.000224e+00	1.000226e+00	1.000213e+00	1.000203e+00	1.000190e+00	1.000184e+00	1.000168e+00	1.000151e+00	1.000130e+00	1.000106e+00	1.000078e+00	1.000060e+00	1.000046e+00	1.000013e+00	9.999797e-01	9.443333e-01	9.020678e-01	8.213719e-01	9.232636e-01	8.406844e-01	1.183062e+00	1.173570e+00	9.408046e-01	9.112730e-01	1.217004e+00	9.308316e-01	8.720739e-01	1.151717e+00	1.144987e+00	8.786886e-01	9.208905e-01	1.307636e+00	1.136015e+00	1.123647e+00	1.337687e+00	8.976507e-01	9.609041e-01	9.507435e-01	8.073045e-01	9.714748e-01	7.943628e-01	9.825808e-01	8.784162e-01	9.931906e-01	9.171338e-01	1.000619e+00	1.344665e+00	1.006089e+00	1.003002e+00	1.100369e+00	8.522893e-01	9.769844e-01	1.025356e+00	1.107395e+00	1.065588e+00	8.484536e-01	9.974992e-01	9.358378e-01	1.164146e+00	8.851363e-01	8.538369e-01	8.706365e-01	8.576919e-01	8.639709e-01	8.606416e-01	8.683350e-01	1.042992e+00	8.461738e-01	9.775541e-01	8.499732e-01	8.197395e-01	8.278156e-01	1.018715e+00	8.182304e-01	1.003613e+00	8.544767e-01	8.348285e-01	9.053981e-01	8.850033e-01	8.774991e-01	8.431871e-01	8.891898e-01	9.880869e-01	1.070117e+00	1.157649e+00	1.209200e+00	8.234951e-01	1.002357e+00	1.012768e+00	1.087634e+00	1.133863e+00	9.661215e-01	8.225151e-01	8.739879e-01	9.258263e-01	9.457570e-01	8.762373e-01	8.280146e-01	8.812310e-01	9.066166e-01	9.600961e-01	1.248743e+00	1.133831e+00	8.341472e-01	8.387190e-01	1.211158e+00	8.250588e-01	8.947206e-01	8.183329e-01	8.204893e-01	8.554544e-01	9.160326e-01	1.279726e+00	1.318487e+00	8.546494e-01	1.324585e+00	7.951303e-01	7.745965e-01	7.811551e-01	7.756287e-01	8.177711e-01	1.140214e+00	8.498499e-01	8.348970e-01	1.097231e+00	1.105871e+00	1.052284e+00	8.400112e-01	8.254380e-01	8.117498e-01	1.083646e+00	1.067048e+00	7.730756e-01	1.092478e+00	1.106615e+00	1.099062e+00	7.740092e-01	7.732004e-01	8.004109e-01	7.964451e-01	7.836820e-01	8.039643e-01	8.299798e-01	8.145738e-01	7.808097e-01	7.772313e-01	8.923368e-01	7.865868e-01	7.901937e-01	9.072726e-01	8.656785e-01	9.569823e-01	9.398893e-01	9.915031e-01	9.742810e-01	1.023931e+00	1.008231e+00	1.059446e+00	1.038436e+00	1.104231e+00	1.075184e+00	1.102347e+00	1.031324e+00	1.045364e+00	9.999591e-01	1.016229e+00	9.656276e-01	9.829347e-01	9.315020e-01	9.483884e-01	8.996255e-01	9.151723e-01	8.598321e-01	8.853950e-01	7.882899e-01	7.922542e-01	7.823087e-01	7.850782e-01	7.771786e-01	7.790935e-01	8.464831e-01	7.869000e-01	8.312961e-01	9.814538e-01	1.043721e+00	9.557853e-01	8.228463e-01	8.673405e-01	1.053418e+00	8.069095e-01	9.226075e-01	7.735573e-01	7.728098e-01	7.984642e-01	7.745852e-01	1.090302e+00	1.092376e+00	8.022531e-01	1.099372e+00	1.110421e+00	8.055896e-01	8.093178e-01	1.091888e+00	1.206471e+00	1.157952e+00	1.174455e+00	8.933543e-01	9.970044e-01	1.124416e+00	8.450340e-01	1.286683e+00	1.170399e+00	9.300606e-01	8.611276e-01	8.190200e-01	7.851296e-01	1.199582e+00	1.259535e+00	8.238827e-01	9.165133e-01	1.003320e+00	1.199632e+00	8.735059e-01	9.118654e-01	9.456836e-01	1.133353e+00	8.258195e-01	9.762962e-01	9.657754e-01	9.126371e-01	1.317252e+00	8.364017e-01	1.132828e+00	1.041624e+00	8.603874e-01	9.212428e-01	9.028932e-01	8.580282e-01	9.245816e-01	8.471609e-01	9.965512e-01	9.505766e-01	9.565183e-01	8.548437e-01	9.153159e-01	1.020539e+00	7.830762e-01	9.231551e-01	7.883682e-01	1.041856e+00	1.100607e+00	8.103915e-01	8.519473e-01	1.099646e+00	1.048670e+00	1.108354e+00	1.100927e+00	1.094590e+00	7.975393e-01	8.087017e-01	7.956104e-01	7.829414e-01	9.073339e-01	8.402449e-01	9.139753e-01	7.860629e-01	7.940045e-01	1.098098e+00	1.119028e+00	1.055545e+00	8.542437e-01	1.215365e+00	1.145818e+00	1.131612e+00	1.009084e+00	1.133508e+00	1.234090e+00	1.331024e+00	1.315058e+00	1.102266e+00	1.217657e+00	9.519910e-01	1.163047e+00	1.148576e+00	8.237754e-01	8.755350e-01	1.123030e+00	9.869523e-01	8.799718e-01	1.141660e+00	1.332380e+00	8.564861e-01	8.203366e-01	9.709841e-01	8.034038e-01	9.816541e-01	9.920008e-01	9.376515e-01	1.000359e+00	1.005626e+00	1.017436e+00	1.048648e+00	1.027464e+00	1.058816e+00	1.110018e+00	8.747702e-01	9.359172e-01	9.408186e-01	1.155386e+00	8.599556e-01	8.625947e-01	8.657157e-01	1.074346e+00	8.516672e-01	8.546383e-01	8.296468e-01	1.004277e+00	1.007902e+00	1.011331e+00	8.672732e-01	9.017334e-01	8.789479e-01	8.903313e-01	1.077036e+00	1.094514e+00	9.260454e-01	9.309768e-01	8.918765e-01	8.829217e-01	8.825757e-01	8.863683e-01	9.852051e-01	9.678285e-01	1.165345e+00	8.350763e-01	8.413111e-01	8.490013e-01	8.444011e-01	8.329325e-01	8.298615e-01	8.232787e-01	8.238111e-01	8.272989e-01	1.298357e+00	1.267562e+00	8.001667e-01	1.095900e+00	8.567189e-01	8.470264e-01	8.419234e-01	8.368228e-01	1.095747e+00	1.100203e+00	1.077311e+00	8.320419e-01	8.276729e-01	8.173006e-01	1.069902e+00	1.096249e+00	7.868152e-01	7.896403e-01	7.995113e-01	8.014680e-01	7.872100e-01	7.849603e-01	7.838572e-01	9.889522e-01	9.557109e-01	9.474229e-01	9.807202e-01	1.012978e+00	1.062590e+00	1.034942e+00	1.027847e+00	1.005208e+00	9.971734e-01	9.723782e-01	9.640331e-01	9.392264e-01	9.311222e-01	9.076761e-01	9.002920e-01	8.672943e-01	8.616987e-01	8.932632e-01	8.865155e-01	7.937876e-01	7.921743e-01	7.907709e-01	7.895466e-01	8.807972e-01	8.086173e-01	8.199855e-01	9.555572e-01	9.606346e-01	8.689919e-01	8.722320e-01	1.069716e+00	8.350111e-01	7.833775e-01	7.840963e-01	8.070384e-01	8.052702e-01	8.146368e-01	8.123225e-01	1.091038e+00	1.084525e+00	8.943931e-01	8.985932e-01	1.025309e+00	1.297444e+00	8.252614e-01	1.311609e+00	8.534821e-01	8.292081e-01	9.510684e-01	8.777102e-01	1.007443e+00	1.107321e+00	1.101256e+00	1.096612e+00	1.081180e+00	1.115974e+00	1.160563e+00	1.181452e+00	1.153144e+00	1.200927e+00	1.103908e+00	1.283256e+00	9.202899e-01	1.010850e+00	1.131558e+00	8.756478e-01	1.172914e+00	1.220863e+00	9.222706e-01	1.275977e+00	9.269382e-01	1.131354e+00	9.863635e-01	1.190709e+00	8.325216e-01	9.812359e-01	9.176650e-01	1.139453e+00	1.160739e+00	1.095995e+00	8.593540e-01	1.093256e+00	9.162914e-01	1.125966e+00	8.544539e-01	8.065691e-01	8.136937e-01	7.935684e-01	7.998331e-01	1.171571e+00	1.293314e+00	1.184880e+00	9.088671e-01	1.240739e+00	1.055117e+00	9.323296e-01	1.312119e+00	8.665475e-01	8.627458e-01	1.078029e+00	9.819550e-01	1.017741e+00	9.871783e-01	9.238606e-01	1.097524e+00	1.095649e+00	1.051740e+00	1.045113e+00	8.120052e-01	8.084544e-01	8.010118e-01	7.918107e-01	9.087141e-01	9.131403e-01	8.458302e-01	9.421788e-01	7.927102e-01	1.095971e+00	1.136242e+00	1.028966e+00	1.134214e+00	1.249581e+00	1.314999e+00	1.053696e+00	1.186192e+00	1.178452e+00	1.070322e+00	1.122723e+00	8.819591e-01	8.611119e-01	8.265120e-01	9.708785e-01	9.760481e-01	9.913501e-01	9.960379e-01	9.598095e-01	9.454976e-01	1.000285e+00	1.004064e+00	1.029628e+00	1.041165e+00	1.112209e+00	9.414422e-01	9.462682e-01	1.145973e+00	8.650194e-01	8.679891e-01	8.572351e-01	8.595394e-01	1.031624e+00	1.015034e+00	1.021003e+00	8.815571e-01	8.737020e-01	8.810472e-01	8.845635e-01	1.085511e+00	1.099622e+00	9.317163e-01	9.366266e-01	9.092668e-01	8.990541e-01	8.898674e-01	8.882509e-01	8.921144e-01	1.011545e+00	9.928141e-01	9.755098e-01	8.368380e-01	8.424611e-01	8.483577e-01	8.605102e-01	8.551689e-01	8.503175e-01	8.418017e-01	8.381846e-01	8.289222e-01	8.298768e-01	8.350793e-01	8.181505e-01	8.493074e-01	8.440562e-01	1.096482e+00	8.390618e-01	8.344266e-01	8.302393e-01	8.232520e-01	1.071763e+00	8.042182e-01	8.102047e-01	8.046649e-01	8.028158e-01	7.921341e-01	7.919529e-01	7.917832e-01	9.552706e-01	1.065109e+00	1.058364e+00	1.038449e+00	1.031736e+00	1.024907e+00	1.010340e+00	1.002817e+00	9.950641e-01	9.792987e-01	9.713063e-01	9.632868e-01	9.473130e-01	9.393930e-01	9.315852e-01	9.088992e-01	8.695577e-01	8.642946e-01	9.018033e-01	8.949883e-01	8.883902e-01	7.993330e-01	7.977986e-01	7.965165e-01	7.954185e-01	7.944845e-01	8.287541e-01	8.425698e-01	9.559181e-01	9.608733e-01	9.658247e-01	8.711940e-01	8.744268e-01	8.600696e-01	8.817356e-01	7.926865e-01	7.944848e-01	7.967855e-01	8.102868e-01	8.203924e-01	8.178671e-01	8.155954e-01	1.089390e+00	1.084278e+00	1.078288e+00	8.960893e-01	9.001879e-01	9.043906e-01	8.324664e-01	8.304933e-01	1.289944e+00	9.281055e-01	1.129356e+00	1.097677e+00	8.830978e-01	1.261891e+00	1.159456e+00	1.013180e+00	1.018104e+00	1.057422e+00	1.112694e+00	8.576221e-01	1.271269e+00	9.660486e-01	1.206348e+00	1.092415e+00	1.120629e+00	1.172028e+00	9.172785e-01	1.130607e+00	1.185407e+00	1.188067e+00	9.563969e-01	8.739585e-01	1.104107e+00	8.600135e-01	9.402576e-01	8.662807e-01	8.357830e-01	1.101034e+00	8.780689e-01	1.090332e+00	1.087297e+00	9.861649e-01	7.998899e-01	8.103230e-01	1.122118e+00	8.186956e-01	9.865913e-01	1.146693e+00	1.106000e+00	1.144057e+00	1.078630e+00	1.128382e+00	9.234028e-01	1.231575e+00	9.285127e-01	9.326057e-01	1.154394e+00	1.129950e+00	1.180682e+00	1.015148e+00	8.615648e-01	8.157878e-01	1.219407e+00	1.002397e+00	9.253562e-01	1.048416e+00	8.175496e-01	8.140222e-01	8.121473e-01	9.144798e-01	9.194792e-01	1.095702e+00	1.042542e+00	1.086577e+00	1.254719e+00	1.296766e+00	1.080054e+00	1.065699e+00	1.113091e+00	8.850259e-01	9.764888e-01	9.814744e-01	9.914641e-01	9.961974e-01	9.674064e-01	9.532917e-01	1.000617e+00	1.004881e+00	1.009008e+00	1.041510e+00	1.053086e+00	9.468077e-01	9.520340e-01	1.137239e+00	8.682074e-01	8.708998e-01	8.628966e-01	8.647506e-01	1.024026e+00	1.031682e+00	8.891131e-01	8.806346e-01	8.871906e-01	1.091098e+00	1.102742e+00	9.377252e-01	9.429980e-01	9.169160e-01	9.067817e-01	8.978013e-01	8.901700e-01	8.945570e-01	1.037364e+00	1.017936e+00	9.994172e-01	9.825783e-01	8.403630e-01	8.449259e-01	8.502783e-01	8.555052e-01	8.679510e-01	8.623821e-01	8.571450e-01	8.524435e-01	8.482209e-01	8.373022e-01	8.358096e-01	8.445433e-01	8.519893e-01	1.094599e+00	1.093693e+00	8.468415e-01	8.419920e-01	8.375327e-01	8.335217e-01	8.299698e-01	8.268112e-01	8.370821e-01	8.085155e-01	8.068931e-01	7.996816e-01	7.999876e-01	8.007548e-01	8.015087e-01	1.067028e+00	1.060914e+00	1.054737e+00	1.042056e+00	1.035722e+00	1.029367e+00	1.021897e+00	1.008908e+00	1.000844e+00	9.934057e-01	9.781914e-01	9.709363e-01	9.627649e-01	9.555920e-01	9.473337e-01	9.403316e-01	9.321161e-01	8.673778e-01	8.717383e-01	9.108714e-01	9.031595e-01	8.972424e-01	8.900147e-01	8.053134e-01	8.039532e-01	8.026295e-01	8.016110e-01	8.007183e-01	8.001250e-01	8.492090e-01	8.647115e-01	9.616028e-01	9.667673e-01	9.715225e-01	8.740814e-01	8.764182e-01	8.803376e-01	8.841578e-01	9.071224e-01	9.339690e-01	8.026160e-01	8.049038e-01	8.086962e-01	8.131299e-01	8.268504e-01	8.241359e-01	8.217019e-01	8.193628e-01	1.072926e+00	1.083239e+00	1.078466e+00	8.978137e-01	9.024320e-01	9.059283e-01	9.107512e-01	8.413398e-01	8.387494e-01	8.368162e-01	1.148052e+00	1.125343e+00	1.073701e+00	1.177465e+00	1.171259e+00	9.363820e-01	9.362985e-01	1.193494e+00	1.096515e+00	1.235366e+00	1.081067e+00	8.827005e-01	8.076883e-01	1.018703e+00	1.127163e+00	1.234986e+00	1.292318e+00	1.294370e+00	1.281516e+00	1.250849e+00	1.138724e+00	8.218733e-01	1.084565e+00	1.121530e+00	1.026546e+00	9.595750e-01	8.664526e-01	1.115925e+00	1.068625e+00	1.081997e+00	8.773971e-01	8.678296e-01	9.226584e-01	9.813148e-01	8.606310e-01	8.874923e-01	8.229516e-01	1.109674e+00	9.483864e-01	1.165199e+00	1.099799e+00	1.292575e+00	1.182391e+00	1.173230e+00	1.019721e+00	1.061233e+00	1.266771e+00	9.858851e-01	1.215152e+00	1.088026e+00	1.162025e+00	1.177068e+00	1.178082e+00	1.125473e+00	8.423703e-01	8.430954e-01	1.104119e+00	8.873879e-01	1.085384e+00	1.113477e+00	9.275545e-01	1.200179e+00	8.193626e-01	8.182336e-01	8.157070e-01	9.187724e-01	1.053283e+00	1.089999e+00	1.275306e+00	1.103696e+00	9.825636e-01	9.866813e-01	9.920588e-01	9.964864e-01	9.612017e-01	9.754596e-01	1.001612e+00	1.005605e+00	1.010547e+00	1.015616e+00	1.052038e+00	1.062704e+00	9.507981e-01	1.128574e+00	8.712894e-01	8.741607e-01	8.679895e-01	8.702940e-01	1.033978e+00	1.042187e+00	8.964438e-01	8.873745e-01	1.095029e+00	1.104728e+00	9.443581e-01	9.247732e-01	9.139075e-01	9.072032e-01	8.946985e-01	1.042327e+00	1.023734e+00	1.005933e+00	9.904311e-01	8.452058e-01	8.475753e-01	8.527405e-01	8.570487e-01	8.623094e-01	8.749237e-01	8.704837e-01	8.634256e-01	8.599000e-01	8.541914e-01	1.094057e+00	1.092109e+00	1.090214e+00	8.543424e-01	8.501215e-01	8.446672e-01	8.411705e-01	8.365101e-01	8.442577e-01	8.563838e-01	8.147570e-01	8.124432e-01	8.070726e-01	8.098601e-01	8.118470e-01	1.062732e+00	1.057299e+00	1.051225e+00	1.045388e+00	1.039174e+00	1.033229e+00	1.026391e+00	1.016496e+00	1.007092e+00	9.954001e-01	9.666342e-01	9.518457e-01	9.371540e-01	9.086546e-01	8.962864e-01	8.118633e-01	8.097836e-01	8.095706e-01	8.076495e-01	8.080179e-01	8.072982e-01	8.072752e-01	8.706298e-01	8.867911e-01	9.677454e-01	9.722248e-01	9.772702e-01	8.772662e-01	8.811132e-01	9.067087e-01	9.305686e-01	9.565270e-01	8.138331e-01	8.168180e-01	8.216862e-01	8.286978e-01	8.357997e-01	8.339206e-01	8.301594e-01	8.285488e-01	8.257628e-01	1.078201e+00	1.072942e+00	9.023167e-01	9.103415e-01	8.516363e-01	8.471359e-01	8.457405e-01	8.427938e-01	1.166078e+00	1.154375e+00	1.181134e+00	1.254995e+00	1.180682e+00	1.088606e+00	1.106555e+00	1.183408e+00	1.086403e+00	1.141045e+00	1.105939e+00	1.255338e+00	1.081817e+00	1.161525e+00	8.282808e-01	1.177728e+00	1.060977e+00	1.152350e+00	1.141414e+00	1.079418e+00	8.888015e-01	1.101716e+00	8.496579e-01	1.035166e+00	1.024797e+00	9.106113e-01	9.442052e-01	8.864980e-01	1.231221e+00	8.726348e-01	9.701583e-01	9.573054e-01	8.172598e-01	1.094246e+00	1.066030e+00	1.212903e+00	1.031028e+00	1.070053e+00	1.170731e+00	1.097582e+00	1.291355e+00	1.244999e+00	1.113741e+00	9.441423e-01	8.700812e-01	8.599572e-01	1.112130e+00	1.173869e+00	1.129522e+00	1.275256e+00	1.176732e+00	1.064259e+00	1.216966e+00	1.199795e+00	8.879955e-01	1.101543e+00	1.083946e+00	1.080337e+00	8.786970e-01	8.245664e-01	8.210698e-01	9.358657e-01	1.091852e+00	1.122779e+00	1.122177e+00	9.901260e-01	9.994899e-01	9.830075e-01	1.009059e+00	1.017510e+00	1.060615e+00	1.120995e+00	8.760579e-01	1.043362e+00	1.051497e+00	8.996474e-01	1.097454e+00	9.513576e-01	9.587474e-01	9.280380e-01	9.145914e-01	8.954368e-01	1.046656e+00	1.028100e+00	1.011332e+00	9.997739e-01	8.534506e-01	8.612419e-01	8.688094e-01	8.740502e-01	8.636778e-01	1.091457e+00	1.088962e+00	8.503141e-01	8.421691e-01	8.759980e-01	8.182506e-01	8.225219e-01	1.003199e+00	1.056070e+00	1.044841e+00	1.033301e+00	1.022714e+00	1.013321e+00	9.908540e-01	9.771682e-01	9.630718e-01	9.489366e-01	9.347842e-01	9.208105e-01	9.080891e-01	8.975891e-01	8.161996e-01	8.148898e-01	8.151023e-01	8.138379e-01	8.158999e-01	8.921851e-01	9.090294e-01	9.672462e-01	9.753279e-01	9.832600e-01	8.800660e-01	8.837896e-01	9.281703e-01	9.512336e-01	9.763565e-01	1.002455e+00	8.263366e-01	8.299373e-01	8.354875e-01	8.439657e-01	8.548099e-01	8.607998e-01	8.360082e-01	8.325364e-01	1.077797e+00	1.073291e+00	9.028479e-01	9.187259e-01	9.272106e-01	8.557869e-01	8.507896e-01	1.117389e+00	1.166018e+00	1.161177e+00	1.136253e+00	1.025475e+00	1.108370e+00	1.173798e+00	1.135620e+00	1.185597e+00	1.135184e+00	1.147603e+00	1.126775e+00	1.092507e+00	1.193612e+00	1.235630e+00	1.088367e+00	9.515858e-01	8.358915e-01	1.125044e+00	1.017129e+00	1.099452e+00	8.876478e-01	1.066664e+00	1.169561e+00	8.756820e-01	1.043570e+00	9.189965e-01	8.966389e-01	1.083528e+00	1.091447e+00	1.082186e+00	1.067015e+00	1.171389e+00	1.098736e+00	1.103073e+00	1.082831e+00	8.283552e-01	8.985341e-01	9.355855e-01	9.897541e-01	1.150518e+00	1.157258e+00	1.272003e+00	1.075361e+00	1.085452e+00	1.175645e+00	1.099194e+00	1.169038e+00	1.152265e+00	8.908631e-01	1.224908e+00	9.799770e-01	9.646838e-01	1.094849e+00	1.233599e+00	1.067210e+00	1.106562e+00	9.439016e-01	1.254312e+00	1.176116e+00	1.005259e+00	1.213096e+00	1.200148e+00	8.801865e-01	1.117598e+00	1.079350e+00	8.891342e-01	8.319056e-01	9.086224e-01	1.118330e+00	1.143433e+00	9.980322e-01	1.007580e+00	1.025398e+00	1.034306e+00	1.114269e+00	8.793731e-01	1.051246e+00	1.059001e+00	8.698635e-01	9.748694e-01	9.828016e-01	9.588342e-01	9.500549e-01	9.347840e-01	9.199804e-01	1.049060e+00	8.581127e-01	8.628203e-01	9.055735e-01	8.916475e-01	9.271675e-01	1.091450e+00	8.707163e-01	8.608970e-01	8.332090e-01	1.059486e+00	1.049543e+00	1.009807e+00	1.038878e+00	1.028572e+00	1.019146e+00	9.991161e-01	9.867725e-01	9.735532e-01	9.600764e-01	9.464815e-01	9.328355e-01	9.199152e-01	8.255175e-01	8.237042e-01	8.228219e-01	8.228570e-01	8.230391e-01	8.274084e-01	9.123126e-01	9.305353e-01	9.666077e-01	9.900222e-01	8.826197e-01	8.863472e-01	9.484968e-01	9.694021e-01	9.929322e-01	1.016437e+00	1.041006e+00	8.402677e-01	8.460695e-01	8.514167e-01	8.596256e-01	8.717158e-01	8.520714e-01	8.450862e-01	8.400798e-01	1.074558e+00	1.067818e+00	9.035874e-01	9.111424e-01	8.791569e-01	8.690426e-01	8.617391e-01	8.577977e-01	1.152328e+00	1.152977e+00	1.149675e+00	1.121132e+00	1.156070e+00	1.140384e+00	1.113589e+00	1.050483e+00	1.172800e+00	1.120684e+00	1.117931e+00	1.071726e+00	1.166005e+00	1.084786e+00	8.331587e-01	1.137606e+00	1.141596e+00	1.128290e+00	1.169441e+00	1.070945e+00	9.260656e-01	1.027037e+00	1.024946e+00	9.594721e-01	1.132800e+00	1.131997e+00	1.128187e+00	1.171839e+00	1.172189e+00	9.002138e-01	9.