# vtk DataFile Version 3.0
vtk output
ASCII
DATASET UNSTRUCTURED_GRID
POINTS 200 float
9.997500e-01	-3.633243e-05	0.0	9.990000e-01	-1.454723e-04	0.0	9.977600e-01	-3.275074e-04	0.0	9.960200e-01	-5.899270e-04	0.0	9.937800e-01	-9.470943e-04	0.0	9.910500e-01	-1.422095e-03	0.0	9.878400e-01	-2.045515e-03	0.0	9.841300e-01	-2.853670e-03	0.0	9.799500e-01	-3.858877e-03	0.0	9.752800e-01	-5.058294e-03	0.0	9.701500e-01	-6.405105e-03	0.0	9.645400e-01	-7.840836e-03	0.0	9.584700e-01	-9.290151e-03	0.0	9.519400e-01	-1.069769e-02	0.0	9.449600e-01	-1.203551e-02	0.0	9.375400e-01	-1.330801e-02	0.0	9.296900e-01	-1.454249e-02	0.0	9.214000e-01	-1.577724e-02	0.0	9.127000e-01	-1.703951e-02	0.0	9.035800e-01	-1.835033e-02	0.0	8.940600e-01	-1.971335e-02	0.0	8.841500e-01	-2.112395e-02	0.0	8.738500e-01	-2.257393e-02	0.0	8.631800e-01	-2.405119e-02	0.0	8.521600e-01	-2.554508e-02	0.0	8.407700e-01	-2.705243e-02	0.0	8.290500e-01	-2.856399e-02	0.0	8.170100e-01	-3.007593e-02	0.0	8.046400e-01	-3.158743e-02	0.0	7.919700e-01	-3.309282e-02	0.0	7.790100e-01	-3.458886e-02	0.0	7.657800e-01	-3.607091e-02	0.0	7.522800e-01	-3.753643e-02	0.0	7.385200e-01	-3.898156e-02	0.0	7.245300e-01	-4.040044e-02	0.0	7.103200e-01	-4.178943e-02	0.0	6.958900e-01	-4.314598e-02	0.0	6.812700e-01	-4.446489e-02	0.0	6.664700e-01	-4.574315e-02	0.0	6.515000e-01	-4.697800e-02	0.0	6.363800e-01	-4.816612e-02	0.0	6.211300e-01	-4.930460e-02	0.0	6.057600e-01	-5.039158e-02	0.0	5.902800e-01	-5.142543e-02	0.0	5.747100e-01	-5.240410e-02	0.0	5.590600e-01	-5.332642e-02	0.0	5.433600e-01	-5.419030e-02	0.0	5.276100e-01	-5.499556e-02	0.0	5.118400e-01	-5.574054e-02	0.0	4.960500e-01	-5.642518e-02	0.0	4.802700e-01	-5.704816e-02	0.0	4.645100e-01	-5.760906e-02	0.0	4.487800e-01	-5.810743e-02	0.0	4.331100e-01	-5.854218e-02	0.0	4.175000e-01	-5.891308e-02	0.0	4.019700e-01	-5.921925e-02	0.0	3.865400e-01	-5.945979e-02	0.0	3.712300e-01	-5.963381e-02	0.0	3.560400e-01	-5.974053e-02	0.0	3.409900e-01	-5.977878e-02	0.0	3.261100e-01	-5.974747e-02	0.0	3.114000e-01	-5.964544e-02	0.0	2.968700e-01	-5.947133e-02	0.0	2.825500e-01	-5.922405e-02	0.0	2.684500e-01	-5.890231e-02	0.0	2.545700e-01	-5.850443e-02	0.0	2.409400e-01	-5.802955e-02	0.0	2.275700e-01	-5.747639e-02	0.0	2.144700e-01	-5.684365e-02	0.0	2.016600e-01	-5.613067e-02	0.0	1.891400e-01	-5.533575e-02	0.0	1.769300e-01	-5.445848e-02	0.0	1.650400e-01	-5.349802e-02	0.0	1.534900e-01	-5.245459e-02	0.0	1.422900e-01	-5.132792e-02	0.0	1.314400e-01	-5.011675e-02	0.0	1.209500e-01	-4.882082e-02	0.0	1.108500e-01	-4.744293e-02	0.0	1.011300e-01	-4.598090e-02	0.0	9.181000e-02	-4.443684e-02	0.0	8.290000e-02	-4.281188e-02	0.0	7.440000e-02	-4.110537e-02	0.0	6.633000e-02	-3.932086e-02	0.0	5.869000e-02	-3.745803e-02	0.0	5.149000e-02	-3.551892e-02	0.0	4.474000e-02	-3.350605e-02	0.0	3.844000e-02	-3.141910e-02	0.0	3.260000e-02	-2.926093e-02	0.0	2.723000e-02	-2.703521e-02	0.0	2.232000e-02	-2.473693e-02	0.0	1.790000e-02	-2.238007e-02	0.0	1.395000e-02	-1.995381e-02	0.0	1.049000e-02	-1.746942e-02	0.0	7.520000e-03	-1.492781e-02	0.0	5.040000e-03	-1.232916e-02	0.0	3.050000e-03	-9.671917e-03	0.0	1.560000e-03	-6.971333e-03	0.0	5.600000e-04	-4.206251e-03	0.0	6.000000e-05	-1.384015e-03	0.0	0.000000e+00	0.000000e+00	0.0	6.000000e-05	1.263717e-03	0.0	5.600000e-04	3.624959e-03	0.0	1.560000e-03	5.788687e-03	0.0	3.050000e-03	7.806660e-03	0.0	5.040000e-03	9.723902e-03	0.0	7.520000e-03	1.154817e-02	0.0	1.049000e-02	1.329444e-02	0.0	1.395000e-02	1.497324e-02	0.0	1.790000e-02	1.659248e-02	0.0	2.232000e-02	1.815177e-02	0.0	2.723000e-02	1.966427e-02	0.0	3.260000e-02	2.112584e-02	0.0	3.844000e-02	2.254418e-02	0.0	4.474000e-02	2.392066e-02	0.0	5.149000e-02	2.525665e-02	0.0	5.869000e-02	2.655516e-02	0.0	6.633000e-02	2.781694e-02	0.0	7.440000e-02	2.904263e-02	0.0	8.290000e-02	3.023416e-02	0.0	9.181000e-02	3.139042e-02	0.0	1.011300e-01	3.251293e-02	0.0	1.108500e-01	3.360165e-02	0.0	1.209500e-01	3.465544e-02	0.0	1.314400e-01	3.567617e-02	0.0	1.422900e-01	3.666155e-02	0.0	1.534900e-01	3.761131e-02	0.0	1.650400e-01	3.852582e-02	0.0	1.769300e-01	3.940438e-02	0.0	1.891400e-01	4.024554e-02	0.0	2.016600e-01	4.104851e-02	0.0	2.144700e-01	4.181177e-02	0.0	2.275700e-01	4.253494e-02	0.0	2.409400e-01	4.321629e-02	0.0	2.545700e-01	4.385457e-02	0.0	2.684500e-01	4.444839e-02	0.0	2.825500e-01	4.499544e-02	0.0	2.968700e-01	4.549454e-02	0.0	3.114000e-01	4.594391e-02	0.0	3.261100e-01	4.634109e-02	0.0	3.409900e-01	4.668421e-02	0.0	3.560400e-01	4.697140e-02	0.0	3.712300e-01	4.720009e-02	0.0	3.865400e-01	4.736797e-02	0.0	4.019700e-01	4.747290e-02	0.0	4.175000e-01	4.751242e-02	0.0	4.331100e-01	4.748419e-02	0.0	4.487800e-01	4.738597e-02	0.0	4.645100e-01	4.721542e-02	0.0	4.802700e-01	4.697055e-02	0.0	4.960500e-01	4.664935e-02	0.0	5.118400e-01	4.624989e-02	0.0	5.276100e-01	4.577103e-02	0.0	5.433600e-01	4.521109e-02	0.0	5.590600e-01	4.456971e-02	0.0	5.747100e-01	4.384575e-02	0.0	5.902800e-01	4.303986e-02	0.0	6.057600e-01	4.215232e-02	0.0	6.211300e-01	4.118450e-02	0.0	6.363800e-01	4.013779e-02	0.0	6.515000e-01	3.901416e-02	0.0	6.664700e-01	3.781694e-02	0.0	6.812700e-01	3.655036e-02	0.0	6.958900e-01	3.521856e-02	0.0	7.103200e-01	3.382635e-02	0.0	7.245300e-01	3.238130e-02	0.0	7.385200e-01	3.088875e-02	0.0	7.522800e-01	2.935563e-02	0.0	7.657800e-01	2.779185e-02	0.0	7.790100e-01	2.620580e-02	0.0	7.919700e-01	2.460510e-02	0.0	8.046400e-01	2.300029e-02	0.0	8.170100e-01	2.140100e-02	0.0	8.290500e-01	1.981959e-02	0.0	8.407700e-01	1.826284e-02	0.0	8.521600e-01	1.673921e-02	0.0	8.631800e-01	1.525953e-02	0.0	8.738500e-01	1.382428e-02	0.0	8.841500e-01	1.243668e-02	0.0	8.940600e-01	1.109794e-02	0.0	9.035800e-01	9.806370e-03	0.0	9.127000e-01	8.564674e-03	0.0	9.214000e-01	7.383797e-03	0.0	9.296900e-01	6.280300e-03	0.0	9.375400e-01	5.285146e-03	0.0	9.449600e-01	4.427477e-03	0.0	9.519400e-01	3.732208e-03	0.0	9.584700e-01	3.205455e-03	0.0	9.645400e-01	2.827042e-03	0.0	9.701500e-01	2.552114e-03	0.0	9.752800e-01	2.324872e-03	0.0	9.799500e-01	2.093085e-03	0.0	9.841300e-01	1.827037e-03	0.0	9.878400e-01	1.519906e-03	0.0	9.910500e-01	1.190204e-03	0.0	9.937800e-01	8.630224e-04	0.0	9.960200e-01	5.666265e-04	0.0	9.977600e-01	3.231883e-04	0.0	9.990000e-01	1.450783e-04	0.0	9.997500e-01	3.632619e-05	0.0	1.000000e+00	0.000000e+00	0.0	
CELLS 200	600
2	149	150	2	150	151	2	151	152	2	152	153	2	153	154	2	154	155	2	155	156	2	156	157	2	157	158	2	158	159	2	159	160	2	160	161	2	161	162	2	162	163	2	163	164	2	164	165	2	165	166	2	166	167	2	167	168	2	168	169	2	169	170	2	170	171	2	171	172	2	172	173	2	173	174	2	174	175	2	175	176	2	176	177	2	177	178	2	178	179	2	179	180	2	180	181	2	181	182	2	31	32	2	32	33	2	33	34	2	34	35	2	35	36	2	36	37	2	37	38	2	38	39	2	39	40	2	40	41	2	41	42	2	42	43	2	43	44	2	44	45	2	45	46	2	46	47	2	47	48	2	48	49	2	49	50	2	50	51	2	51	52	2	52	53	2	53	54	2	54	55	2	55	56	2	56	57	2	57	58	2	58	59	2	59	60	2	60	61	2	61	62	2	62	63	2	63	64	2	64	65	2	65	66	2	66	67	2	67	68	2	68	69	2	69	70	2	70	71	2	71	72	2	72	73	2	73	74	2	74	75	2	75	76	2	76	77	2	77	78	2	78	79	2	79	80	2	80	81	2	81	82	2	82	83	2	83	84	2	113	114	2	114	115	2	115	116	2	116	117	2	117	118	2	118	119	2	119	120	2	120	121	2	121	122	2	122	123	2	123	124	2	124	125	2	125	126	2	126	127	2	127	128	2	128	129	2	129	130	2	130	131	2	131	132	2	132	133	2	133	134	2	134	135	2	135	136	2	136	137	2	137	138	2	138	139	2	139	140	2	140	141	2	141	142	2	142	143	2	143	144	2	144	145	2	145	146	2	146	147	2	147	148	2	148	149	2	84	85	2	85	86	2	86	87	2	87	88	2	88	89	2	89	90	2	90	91	2	91	92	2	92	93	2	93	94	2	94	95	2	95	96	2	96	97	2	97	98	2	98	99	2	99	100	2	100	101	2	101	102	2	102	103	2	103	104	2	104	105	2	105	106	2	106	107	2	107	108	2	108	109	2	109	110	2	110	111	2	111	112	2	112	113	2	199	0	2	0	1	2	1	2	2	2	3	2	3	4	2	4	5	2	5	6	2	6	7	2	182	183	2	183	184	2	184	185	2	185	186	2	186	187	2	187	188	2	188	189	2	189	190	2	190	191	2	191	192	2	192	193	2	193	194	2	194	195	2	195	196	2	196	197	2	197	198	2	198	199	2	7	8	2	8	9	2	9	10	2	10	11	2	11	12	2	12	13	2	13	14	2	14	15	2	15	16	2	16	17	2	17	18	2	18	19	2	19	20	2	20	21	2	21	22	2	22	23	2	23	24	2	24	25	2	25	26	2	26	27	2	27	28	2	28	29	2	29	30	2	30	31	
CELL_TYPES 200
3	3	3	3	3	3	3	3	3	3	3	3	3	3	3	3	3	3	3	3	3	3	3	3	3	3	3	3	3	3	3	3	3	3	3	3	3	3	3	3	3	3	3	3	3	3	3	3	3	3	3	3	3	3	3	3	3	3	3	3	3	3	3	3	3	3	3	3	3	3	3	3	3	3	3	3	3	3	3	3	3	3	3	3	3	3	3	3	3	3	3	3	3	3	3	3	3	3	3	3	3	3	3	3	3	3	3	3	3	3	3	3	3	3	3	3	3	3	3	3	3	3	3	3	3	3	3	3	3	3	3	3	3	3	3	3	3	3	3	3	3	3	3	3	3	3	3	3	3	3	3	3	3	3	3	3	3	3	3	3	3	3	3	3	3	3	3	3	3	3	3	3	3	3	3	3	3	3	3	3	3	3	3	3	3	3	3	3	3	3	3	3	3	3	3	3	3	3	3	3	
POINT_DATA 200

SCALARS Conservative_1 float 1
LOOKUP_TABLE default
1.199829e+00	1.181603e+00	1.171179e+00	1.164739e+00	1.160166e+00	1.155701e+00	1.148816e+00	1.137898e+00	1.121717e+00	1.100362e+00	1.075074e+00	1.048463e+00	1.024896e+00	1.008362e+00	9.999883e-01	9.979302e-01	9.990396e-01	1.000482e+00	1.000510e+00	9.985213e-01	9.947378e-01	9.897162e-01	9.840419e-01	9.781864e-01	9.724274e-01	9.668758e-01	9.615230e-01	9.563224e-01	9.512093e-01	9.461524e-01	9.411356e-01	9.361151e-01	9.310570e-01	9.259777e-01	9.209285e-01	9.159576e-01	9.110838e-01	9.063116e-01	9.016523e-01	8.971224e-01	8.927217e-01	8.884607e-01	8.843220e-01	8.803220e-01	8.764757e-01	8.728347e-01	8.693885e-01	8.660732e-01	8.627418e-01	8.593846e-01	8.562038e-01	8.535533e-01	8.515467e-01	8.498923e-01	8.479171e-01	8.448700e-01	8.402515e-01	8.342098e-01	8.276246e-01	8.217523e-01	8.174791e-01	8.149977e-01	8.140357e-01	8.141602e-01	8.150616e-01	8.165407e-01	8.185484e-01	8.210010e-01	8.238122e-01	8.268696e-01	8.301921e-01	8.339427e-01	8.383682e-01	8.435368e-01	8.493720e-01	8.557276e-01	8.626681e-01	8.703719e-01	8.788960e-01	8.882796e-01	8.986348e-01	9.100202e-01	9.225873e-01	9.364539e-01	9.518100e-01	9.689326e-01	9.880499e-01	1.009521e+00	1.033830e+00	1.061294e+00	1.092443e+00	1.127744e+00	1.167045e+00	1.209885e+00	1.254555e+00	1.298041e+00	1.331744e+00	1.350900e+00	1.339533e+00	1.308267e+00	1.284252e+00	1.221085e+00	1.099436e+00	1.001954e+00	9.259599e-01	8.702569e-01	8.322816e-01	8.072836e-01	7.904567e-01	7.790615e-01	7.714027e-01	7.663114e-01	7.632280e-01	7.614153e-01	7.604992e-01	7.604763e-01	7.612180e-01	7.624875e-01	7.639634e-01	7.653187e-01	7.665703e-01	7.680421e-01	7.699926e-01	7.722716e-01	7.744798e-01	7.763896e-01	7.780927e-01	7.797362e-01	7.814232e-01	7.832239e-01	7.851935e-01	7.873158e-01	7.895178e-01	7.916992e-01	7.938165e-01	7.958442e-01	7.977728e-01	7.995638e-01	8.012265e-01	8.028759e-01	8.047239e-01	8.069254e-01	8.095291e-01	8.124986e-01	8.158398e-01	8.196181e-01	8.238668e-01	8.285530e-01	8.335016e-01	8.385010e-01	8.433451e-01	8.480943e-01	8.530495e-01	8.585640e-01	8.646986e-01	8.712217e-01	8.779105e-01	8.847639e-01	8.919500e-01	8.995164e-01	9.074118e-01	9.155484e-01	9.238772e-01	9.323857e-01	9.410443e-01	9.498396e-01	9.587217e-01	9.676727e-01	9.766185e-01	9.855614e-01	9.944186e-01	1.003109e+00	1.011571e+00	1.019720e+00	1.027509e+00	1.034917e+00	1.041992e+00	1.048913e+00	1.055939e+00	1.063460e+00	1.071774e+00	1.080975e+00	1.090684e+00	1.100036e+00	1.107782e+00	1.112587e+00	1.113361e+00	1.109742e+00	1.102492e+00	1.093778e+00	1.086677e+00	1.084160e+00	1.088064e+00	1.098280e+00	1.112853e+00	1.130017e+00	1.148479e+00	1.168636e+00	1.192714e+00	1.181127e+00	
SCALARS Conservative_2 float 1
LOOKUP_TABLE default
7.195757e-01	7.459512e-01	7.640421e-01	7.748514e-01	7.807434e-01	7.855170e-01	7.913230e-01	8.009882e-01	8.159975e-01	8.364044e-01	8.604928e-01	8.849355e-01	9.060897e-01	9.215745e-01	9.308007e-01	9.347634e-01	9.355175e-01	9.351568e-01	9.351403e-01	9.360796e-01	9.380284e-01	9.406855e-01	9.436755e-01	9.467079e-01	9.495960e-01	9.522740e-01	9.547370e-01	9.570270e-01	9.591545e-01	9.611516e-01	9.630535e-01	9.648524e-01	9.665626e-01	9.681817e-01	9.696972e-01	9.710971e-01	9.723957e-01	9.735743e-01	9.746429e-01	9.756170e-01	9.764773e-01	9.772590e-01	9.779355e-01	9.785440e-01	9.790519e-01	9.795001e-01	9.798658e-01	9.802012e-01	9.804743e-01	9.807244e-01	9.808924e-01	9.810053e-01	9.810482e-01	9.810778e-01	9.811133e-01	9.811871e-01	9.812258e-01	9.811488e-01	9.808247e-01	9.803293e-01	9.798255e-01	9.794123e-01	9.791627e-01	9.790115e-01	9.789592e-01	9.789154e-01	9.789026e-01	9.788493e-01	9.787689e-01	9.785943e-01	9.783390e-01	9.779492e-01	9.774267e-01	9.766915e-01	9.757310e-01	9.744048e-01	9.727329e-01	9.706207e-01	9.678375e-01	9.642286e-01	9.597037e-01	9.539711e-01	9.467673e-01	9.376755e-01	9.261804e-01	9.115536e-01	8.928634e-01	8.690350e-01	8.384962e-01	7.990972e-01	7.483521e-01	6.832135e-01	6.000174e-01	4.965589e-01	3.728459e-01	2.366379e-01	1.074526e-01	1.080540e-02	-2.158024e-02	5.237545e-03	7.307175e-02	2.105341e-01	4.135708e-01	5.903328e-01	7.153315e-01	7.968940e-01	8.484676e-01	8.813704e-01	9.026350e-01	9.169625e-01	9.269997e-01	9.341656e-01	9.396345e-01	9.439111e-01	9.473425e-01	9.502844e-01	9.527991e-01	9.549728e-01	9.569030e-01	9.585681e-01	9.600539e-01	9.614735e-01	9.628428e-01	9.640739e-01	9.651716e-01	9.661348e-01	9.670194e-01	9.678303e-01	9.686094e-01	9.693538e-01	9.700958e-01	9.708148e-01	9.715145e-01	9.721634e-01	9.727754e-01	9.733352e-01	9.738556e-01	9.743275e-01	9.747650e-01	9.751857e-01	9.756376e-01	9.760997e-01	9.765785e-01	9.770576e-01	9.775335e-01	9.780043e-01	9.784392e-01	9.788393e-01	9.791212e-01	9.793170e-01	9.794113e-01	9.794414e-01	9.793877e-01	9.792217e-01	9.788786e-01	9.783295e-01	9.776103e-01	9.766662e-01	9.755020e-01	9.740595e-01	9.723366e-01	9.703078e-01	9.679777e-01	9.653301e-01	9.623603e-01	9.590620e-01	9.554339e-01	9.515160e-01	9.472424e-01	9.427245e-01	9.379688e-01	9.329941e-01	9.279162e-01	9.227898e-01	9.176700e-01	9.125826e-01	9.074719e-01	9.022150e-01	8.965194e-01	8.900888e-01	8.825875e-01	8.740086e-01	8.647775e-01	8.559770e-01	8.491468e-01	8.458525e-01	8.471037e-01	8.528049e-01	8.614970e-01	8.705146e-01	8.765521e-01	8.769672e-01	8.704532e-01	8.577432e-01	8.395690e-01	8.174784e-01	7.911821e-01	7.596446e-01	7.213183e-01	6.623527e-01	
SCALARS Conservative_3 float 1
LOOKUP_TABLE default
1.010185e-01	1.066669e-01	1.128621e-01	1.197578e-01	1.301705e-01	1.447846e-01	1.632537e-01	1.836651e-01	2.028704e-01	2.169479e-01	2.227155e-01	2.185963e-01	2.055568e-01	1.873913e-01	1.688246e-01	1.535245e-01	1.431292e-01	1.373980e-01	1.349794e-01	1.342413e-01	1.338879e-01	1.331557e-01	1.317592e-01	1.297259e-01	1.272242e-01	1.244535e-01	1.215474e-01	1.185951e-01	1.156223e-01	1.126169e-01	1.095675e-01	1.064535e-01	1.032636e-01	9.999038e-02	9.661976e-02	9.316665e-02	8.962749e-02	8.602074e-02	8.235281e-02	7.863563e-02	7.488242e-02	7.110004e-02	6.730699e-02	6.350477e-02	5.970092e-02	5.588681e-02	5.206623e-02	4.825121e-02	4.446530e-02	4.071285e-02	3.695756e-02	3.314261e-02	2.924553e-02	2.525335e-02	2.119834e-02	1.712447e-02	1.307672e-02	9.041902e-03	4.912355e-03	5.516865e-04	-4.076746e-03	-8.951381e-03	-1.406088e-02	-1.939387e-02	-2.498857e-02	-3.087304e-02	-3.710357e-02	-4.369701e-02	-5.068694e-02	-5.809331e-02	-6.596300e-02	-7.436011e-02	-8.335499e-02	-9.298014e-02	-1.032783e-01	-1.143012e-01	-1.261600e-01	-1.389212e-01	-1.526609e-01	-1.675032e-01	-1.835665e-01	-2.009631e-01	-2.198488e-01	-2.403583e-01	-2.626122e-01	-2.867285e-01	-3.127784e-01	-3.407074e-01	-3.701291e-01	-4.003131e-01	-4.297841e-01	-4.554370e-01	-4.721985e-01	-4.716540e-01	-4.408849e-01	-3.644595e-01	-2.306547e-01	-3.806536e-02	1.858131e-01	3.519134e-01	4.964246e-01	6.611554e-01	7.236649e-01	6.884004e-01	6.111855e-01	5.275044e-01	4.530412e-01	3.912932e-01	3.411194e-01	3.001196e-01	2.665545e-01	2.386380e-01	2.151957e-01	1.952756e-01	1.781418e-01	1.632804e-01	1.503064e-01	1.388678e-01	1.287105e-01	1.195629e-01	1.112263e-01	1.036318e-01	9.672974e-02	9.042777e-02	8.459555e-02	7.908719e-02	7.387716e-02	6.894089e-02	6.426892e-02	5.981085e-02	5.553488e-02	5.140943e-02	4.740325e-02	4.347846e-02	3.961074e-02	3.578034e-02	3.197343e-02	2.816860e-02	2.433667e-02	2.045739e-02	1.653425e-02	1.256935e-02	8.551733e-03	4.449449e-03	2.443658e-04	-4.069630e-03	-8.489219e-03	-1.300596e-02	-1.763636e-02	-2.239054e-02	-2.728996e-02	-3.235469e-02	-3.753458e-02	-4.280048e-02	-4.810113e-02	-5.345645e-02	-5.888225e-02	-6.435869e-02	-6.982799e-02	-7.524655e-02	-8.057383e-02	-8.579668e-02	-9.085680e-02	-9.572520e-02	-1.003320e-01	-1.046530e-01	-1.086177e-01	-1.121912e-01	-1.153182e-01	-1.179548e-01	-1.200603e-01	-1.216007e-01	-1.225771e-01	-1.230152e-01	-1.229876e-01	-1.226400e-01	-1.221470e-01	-1.216864e-01	-1.213298e-01	-1.209132e-01	-1.199044e-01	-1.174078e-01	-1.123065e-01	-1.037167e-01	-9.144883e-02	-7.642465e-02	-6.080646e-02	-4.767965e-02	-4.028783e-02	-4.083363e-02	-4.941238e-02	-6.379016e-02	-8.016164e-02	-9.479991e-02	-1.049851e-01	-1.097972e-01	-1.102825e-01	-1.061985e-01	-1.003424e-01	2.575597e-03	
SCALARS Conservative_4 float 1
LOOKUP_TABLE default
3.446401e+00	3.400790e+00	3.375502e+00	3.359981e+00	3.348831e+00	3.337958e+00	3.320862e+00	3.293673e+00	3.253301e+00	3.199973e+00	3.136708e+00	3.069894e+00	3.010549e+00	2.968893e+00	2.947826e+00	2.942638e+00	2.945384e+00	2.948942e+00	2.948917e+00	2.943787e+00	2.934115e+00	2.921301e+00	2.906814e+00	2.891850e+00	2.877110e+00	2.862878e+00	2.849133e+00	2.835764e+00	2.822599e+00	2.809563e+00	2.796622e+00	2.783656e+00	2.770577e+00	2.757430e+00	2.744345e+00	2.731448e+00	2.718792e+00	2.706383e+00	2.694254e+00	2.682452e+00	2.670971e+00	2.659848e+00	2.649028e+00	2.638565e+00	2.628489e+00	2.618947e+00	2.609903e+00	2.601205e+00	2.592455e+00	2.583639e+00	2.575270e+00	2.568287e+00	2.562982e+00	2.558604e+00	2.553391e+00	2.545381e+00	2.533244e+00	2.517351e+00	2.499973e+00	2.484427e+00	2.473080e+00	2.466462e+00	2.463883e+00	2.464188e+00	2.466569e+00	2.470478e+00	2.475798e+00	2.482289e+00	2.489733e+00	2.497819e+00	2.506606e+00	2.516510e+00	2.528188e+00	2.541803e+00	2.557163e+00	2.573852e+00	2.592065e+00	2.612261e+00	2.634543e+00	2.658999e+00	2.685938e+00	2.715474e+00	2.747992e+00	2.783756e+00	2.823219e+00	2.867037e+00	2.915725e+00	2.970162e+00	3.031500e+00	3.100390e+00	3.178094e+00	3.265659e+00	3.362448e+00	3.467276e+00	3.575828e+00	3.681278e+00	3.762485e+00	3.809725e+00	3.781237e+00	3.702859e+00	3.649618e+00	3.499805e+00	3.190699e+00	2.942781e+00	2.747797e+00	2.604061e+00	2.505844e+00	2.441112e+00	2.397378e+00	2.367664e+00	2.347666e+00	2.334310e+00	2.326242e+00	2.321521e+00	2.319165e+00	2.319201e+00	2.321257e+00	2.324704e+00	2.328711e+00	2.332395e+00	2.335813e+00	2.339834e+00	2.345126e+00	2.351261e+00	2.357196e+00	2.362332e+00	2.366924e+00	2.371353e+00	2.375900e+00	2.380744e+00	2.386039e+00	2.391734e+00	2.397640e+00	2.403483e+00	2.409154e+00	2.414581e+00	2.419744e+00	2.424537e+00	2.428989e+00	2.433408e+00	2.438361e+00	2.444247e+00	2.451197e+00	2.459111e+00	2.468006e+00	2.478053e+00	2.489331e+00	2.501759e+00	2.514852e+00	2.528069e+00	2.540863e+00	2.553405e+00	2.566483e+00	2.581016e+00	2.597151e+00	2.614271e+00	2.631804e+00	2.649733e+00	2.668505e+00	2.688232e+00	2.708781e+00	2.729915e+00	2.751508e+00	2.773523e+00	2.795882e+00	2.818549e+00	2.841390e+00	2.864371e+00	2.887274e+00	2.910137e+00	2.932736e+00	2.954858e+00	2.976364e+00	2.997041e+00	3.016775e+00	3.035517e+00	3.053381e+00	3.070828e+00	3.088494e+00	3.107364e+00	3.128163e+00	3.151142e+00	3.175348e+00	3.198668e+00	3.218026e+00	3.230129e+00	3.232245e+00	3.223404e+00	3.205424e+00	3.183663e+00	3.165775e+00	3.159223e+00	3.168683e+00	3.194033e+00	3.230163e+00	3.272673e+00	3.318105e+00	3.367492e+00	3.426997e+00	3.383858e+00	
SCALARS Pressure float 1
LOOKUP_TABLE default
1.290549e+00	1.264206e+00	1.248338e+00	1.238435e+00	1.231530e+00	1.224774e+00	1.214690e+00	1.198774e+00	1.175262e+00	1.144281e+00	1.107707e+00	1.069460e+00	1.035763e+00	1.012141e+00	1.000150e+00	9.972124e-01	9.988457e-01	1.000984e+00	1.001117e+00	9.983968e-01	9.931314e-01	9.861205e-01	9.782043e-01	9.700508e-01	9.620548e-01	9.543688e-01	9.469805e-01	9.398176e-01	9.327956e-01	9.258667e-01	9.190013e-01	9.121469e-01	9.052559e-01	8.983505e-01	8.915008e-01	8.847726e-01	8.781867e-01	8.717546e-01	8.654888e-01	8.594065e-01	8.535139e-01	8.478146e-01	8.422947e-01	8.369649e-01	8.318558e-01	8.270230e-01	8.224613e-01	8.180707e-01	8.136689e-01	8.092304e-01	8.050411e-01	8.015598e-01	7.989431e-01	7.967891e-01	7.942039e-01	7.901834e-01	7.840866e-01	7.761270e-01	7.675067e-01	7.598690e-01	7.543452e-01	7.511662e-01	7.499475e-01	7.501343e-01	7.513115e-01	7.532420e-01	7.558488e-01	7.590410e-01	7.626951e-01	7.666796e-01	7.710099e-01	7.759134e-01	7.817076e-01	7.884984e-01	7.961761e-01	8.045791e-01	8.137678e-01	8.239864e-01	8.353578e-01	8.479482e-01	8.618912e-01	8.773049e-01	8.944027e-01	9.133842e-01	9.345479e-01	9.583303e-01	9.851177e-01	1.015448e+00	1.050084e+00	1.089622e+00	1.134893e+00	1.186697e+00	1.245070e+00	1.309378e+00	1.377182e+00	1.443417e+00	1.495270e+00	1.523658e+00	1.507270e+00	1.462207e+00	1.420637e+00	1.321066e+00	1.149900e+00	1.012956e+00	9.079126e-01	8.317321e-01	7.800224e-01	7.460613e-01	7.233626e-01	7.080878e-01	6.978487e-01	6.911038e-01	6.869988e-01	6.845628e-01	6.833023e-01	6.831756e-01	6.840477e-01	6.856133e-01	6.874334e-01	6.890994e-01	6.906230e-01	6.924129e-01	6.948214e-01	6.976841e-01	7.004672e-01	7.028709e-01	7.050029e-01	7.070625e-01	7.091757e-01	7.114407e-01	7.139220e-01	7.166058e-01	7.193938e-01	7.221628e-01	7.248505e-01	7.274287e-01	7.298805e-01	7.321583e-01	7.342699e-01	7.363636e-01	7.387062e-01	7.415115e-01	7.448410e-01	7.486506e-01	7.529476e-01	7.578175e-01	7.633126e-01	7.693859e-01	7.758299e-01	7.823516e-01	7.886823e-01	7.948892e-01	8.013754e-01	8.086126e-01	8.166981e-01	8.253313e-01	8.342054e-01	8.433340e-01	8.529326e-01	8.630779e-01	8.737002e-01	8.846897e-01	8.959794e-01	9.075559e-01	9.193815e-01	9.314386e-01	9.436635e-01	9.560213e-01	9.684365e-01	9.808813e-01	9.932504e-01	1.005439e+00	1.017339e+00	1.028834e+00	1.039851e+00	1.050358e+00	1.060425e+00	1.070301e+00	1.080376e+00	1.091200e+00	1.103223e+00	1.116573e+00	1.130694e+00	1.144298e+00	1.155522e+00	1.162389e+00	1.163330e+00	1.157881e+00	1.147239e+00	1.134596e+00	1.124449e+00	1.121064e+00	1.127019e+00	1.141999e+00	1.163405e+00	1.188659e+00	1.216116e+00	1.246309e+00	1.281864e+00	1.279255e+00	
SCALARS Temperature float 1
LOOKUP_TABLE default
1.075611e+00	1.069907e+00	1.065881e+00	1.063272e+00	1.061512e+00	1.059767e+00	1.057340e+00	1.053498e+00	1.047735e+00	1.039913e+00	1.030354e+00	1.020026e+00	1.010603e+00	1.003748e+00	1.000162e+00	9.992806e-01	9.998059e-01	1.000501e+00	1.000607e+00	9.998753e-01	9.983851e-01	9.963669e-01	9.940678e-01	9.916830e-01	9.893332e-01	9.870645e-01	9.848755e-01	9.827414e-01	9.806418e-01	9.785598e-01	9.764813e-01	9.743960e-01	9.722884e-01	9.701643e-01	9.680456e-01	9.659537e-01	9.638923e-01	9.618707e-01	9.598920e-01	9.579590e-01	9.560806e-01	9.542511e-01	9.524751e-01	9.507486e-01	9.490917e-01	9.475140e-01	9.460227e-01	9.445745e-01	9.431198e-01	9.416394e-01	9.402447e-01	9.390858e-01	9.382257e-01	9.375177e-01	9.366528e-01	9.352723e-01	9.331571e-01	9.303738e-01	9.273609e-01	9.246936e-01	9.227701e-01	9.216789e-01	9.212710e-01	9.213596e-01	9.217850e-01	9.224794e-01	9.234014e-01	9.245312e-01	9.258118e-01	9.272074e-01	9.287126e-01	9.304158e-01	9.324156e-01	9.347528e-01	9.373702e-01	9.402281e-01	9.433150e-01	9.467061e-01	9.504626e-01	9.545960e-01	9.591118e-01	9.640500e-01	9.694505e-01	9.753648e-01	9.818639e-01	9.890577e-01	9.970324e-01	1.005871e+00	1.015722e+00	1.026692e+00	1.038858e+00	1.052275e+00	1.066857e+00	1.082233e+00	1.097745e+00	1.111996e+00	1.122791e+00	1.127884e+00	1.125220e+00	1.117667e+00	1.106198e+00	1.081878e+00	1.045899e+00	1.010980e+00	9.805096e-01	9.557317e-01	9.372096e-01	9.241625e-01	9.151198e-01	9.088984e-01	9.046490e-01	9.018576e-01	9.001227e-01	8.990662e-01	8.984918e-01	8.983522e-01	8.986227e-01	8.991797e-01	8.998250e-01	9.004084e-01	9.009258e-01	9.015299e-01	9.023741e-01	9.034181e-01	9.044357e-01	9.053070e-01	9.060654e-01	9.067971e-01	9.075437e-01	9.083492e-01	9.092306e-01	9.101886e-01	9.111812e-01	9.121682e-01	9.131210e-01	9.140341e-01	9.148978e-01	9.156971e-01	9.164324e-01	9.171575e-01	9.179623e-01	9.189343e-01	9.200917e-01	9.214177e-01	9.229110e-01	9.245983e-01	9.265000e-01	9.285898e-01	9.308080e-01	9.330359e-01	9.351833e-01	9.372651e-01	9.394242e-01	9.418199e-01	9.444887e-01	9.473264e-01	9.502169e-01	9.531741e-01	9.562561e-01	9.594910e-01	9.628486e-01	9.662948e-01	9.698036e-01	9.733696e-01	9.769800e-01	9.806272e-01	9.842935e-01	9.879594e-01	9.916221e-01	9.952513e-01	9.988253e-01	1.002323e+00	1.005702e+00	1.008938e+00	1.012012e+00	1.014920e+00	1.017690e+00	1.020391e+00	1.023142e+00	1.026084e+00	1.029343e+00	1.032931e+00	1.036684e+00	1.040237e+00	1.043095e+00	1.044762e+00	1.044881e+00	1.043378e+00	1.040587e+00	1.037318e+00	1.034759e+00	1.034040e+00	1.035802e+00	1.039807e+00	1.045426e+00	1.051895e+00	1.058892e+00	1.066464e+00	1.074745e+00	1.083081e+00	
SCALARS Pressure_Coefficient float 1
LOOKUP_TABLE default
6.485461e-01	5.897449e-01	5.543254e-01	5.322204e-01	5.168079e-01	5.017280e-01	4.792178e-01	4.436924e-01	3.912104e-01	3.220567e-01	2.404175e-01	1.550447e-01	7.982790e-02	2.710048e-02	3.344624e-04	-6.222401e-03	-2.576461e-03	2.196011e-03	2.492289e-03	-3.578555e-03	-1.533160e-02	-3.098096e-02	-4.865104e-02	-6.685087e-02	-8.469912e-02	-1.018554e-01	-1.183471e-01	-1.343357e-01	-1.500098e-01	-1.654761e-01	-1.808006e-01	-1.961008e-01	-2.114823e-01	-2.268962e-01	-2.421858e-01	-2.572039e-01	-2.719048e-01	-2.862621e-01	-3.002482e-01	-3.138249e-01	-3.269780e-01	-3.396995e-01	-3.520208e-01	-3.639177e-01	-3.753220e-01	-3.861093e-01	-3.962918e-01	-4.060921e-01	-4.159176e-01	-4.258250e-01	-4.351761e-01	-4.429470e-01	-4.487878e-01	-4.535959e-01	-4.593664e-01	-4.683405e-01	-4.819496e-01	-4.997165e-01	-5.189583e-01	-5.360066e-01	-5.483365e-01	-5.554326e-01	-5.581530e-01	-5.577359e-01	-5.551082e-01	-5.507990e-01	-5.449804e-01	-5.378548e-01	-5.296984e-01	-5.208045e-01	-5.111387e-01	-5.001933e-01	-4.872598e-01	-4.721018e-01	-4.549641e-01	-4.362073e-01	-4.156969e-01	-3.928876e-01	-3.675050e-01	-3.394014e-01	-3.082785e-01	-2.738729e-01	-2.357082e-01	-1.933388e-01	-1.460985e-01	-9.301276e-02	-3.321932e-02	3.448107e-02	1.117942e-01	2.000483e-01	3.010999e-01	4.167343e-01	5.470313e-01	6.905749e-01	8.419238e-01	9.897699e-01	1.105514e+00	1.168880e+00	1.132300e+00	1.031712e+00	9.389227e-01	7.166647e-01	3.345981e-01	2.891883e-02	-2.055523e-01	-3.755980e-01	-4.910215e-01	-5.668276e-01	-6.174941e-01	-6.515898e-01	-6.744448e-01	-6.895006e-01	-6.986633e-01	-7.041009e-01	-7.069145e-01	-7.071974e-01	-7.052506e-01	-7.017561e-01	-6.976934e-01	-6.939746e-01	-6.905738e-01	-6.865783e-01	-6.812023e-01	-6.748122e-01	-6.686000e-01	-6.632345e-01	-6.584757e-01	-6.538783e-01	-6.491614e-01	-6.441055e-01	-6.385670e-01	-6.325763e-01	-6.263532e-01	-6.201723e-01	-6.141730e-01	-6.084180e-01	-6.029453e-01	-5.978610e-01	-5.931476e-01	-5.884741e-01	-5.832451e-01	-5.769833e-01	-5.695512e-01	-5.610477e-01	-5.514563e-01	-5.405860e-01	-5.283200e-01	-5.147637e-01	-5.003797e-01	-4.858224e-01	-4.716914e-01	-4.578366e-01	-4.433585e-01	-4.272039e-01	-4.091561e-01	-3.898855e-01	-3.700773e-01	-3.497008e-01	-3.282754e-01	-3.056297e-01	-2.819193e-01	-2.573891e-01	-2.321888e-01	-2.063483e-01	-1.799521e-01	-1.530389e-01	-1.257511e-01	-9.816672e-02	-7.045435e-02	-4.267567e-02	-1.506602e-02	1.214077e-02	3.870350e-02	6.436077e-02	8.895344e-02	1.124069e-01	1.348773e-01	1.569220e-01	1.794104e-01	2.035715e-01	2.304086e-01	2.602068e-01	2.917277e-01	3.220937e-01	3.471465e-01	3.624748e-01	3.645748e-01	3.524119e-01	3.286583e-01	3.004367e-01	2.777886e-01	2.702326e-01	2.835248e-01	3.169624e-01	3.647439e-01	4.211147e-01	4.824011e-01	5.497966e-01	6.291608e-01	6.233379e-01	
SCALARS Mach float 1
LOOKUP_TABLE default
4.935188e-01	5.210711e-01	5.398373e-01	5.517338e-01	5.596487e-01	5.674079e-01	5.780730e-01	5.946600e-01	6.189267e-01	6.508141e-01	6.883854e-01	7.275290e-01	7.621400e-01	7.867474e-01	7.994498e-01	8.025528e-01	8.007033e-01	7.982517e-01	7.978797e-01	8.004589e-01	8.057006e-01	8.127707e-01	8.207853e-01	8.290552e-01	8.371621e-01	8.449520e-01	8.524338e-01	8.596971e-01	8.668141e-01	8.738441e-01	8.808357e-01	8.878247e-01	8.948630e-01	9.019314e-01	9.089574e-01	9.158718e-01	9.226637e-01	9.293040e-01	9.357849e-01	9.420985e-01	9.482177e-01	9.541627e-01	9.599202e-01	9.655052e-01	9.708535e-01	9.759362e-01	9.807316e-01	9.853806e-01	9.900430e-01	9.947798e-01	9.992353e-01	1.002933e+00	1.005674e+00	1.007928e+00	1.010680e+00	1.015068e+00	1.021779e+00	1.030588e+00	1.040100e+00	1.048499e+00	1.054545e+00	1.057970e+00	1.059250e+00	1.058972e+00	1.057637e+00	1.055458e+00	1.052562e+00	1.049010e+00	1.044980e+00	1.040584e+00	1.035836e+00	1.030456e+00	1.024128e+00	1.016717e+00	1.008398e+00	9.992884e-01	9.894179e-01	9.785351e-01	9.664290e-01	9.530431e-01	9.383351e-01	9.221448e-01	9.043011e-01	8.845809e-01	8.626751e-01	8.381100e-01	8.104432e-01	7.791738e-01	7.434598e-01	7.024269e-01	6.550329e-01	5.998689e-01	5.353364e-01	4.598656e-01	3.712565e-01	2.683053e-01	1.523975e-01	2.330981e-02	1.112627e-01	2.150638e-01	3.139620e-01	4.617180e-01	6.265121e-01	7.607732e-01	8.672616e-01	9.493525e-01	1.008909e+00	1.050170e+00	1.078499e+00	1.097883e+00	1.111079e+00	1.119729e+00	1.125099e+00	1.128366e+00	1.130142e+00	1.130573e+00	1.129737e+00	1.128015e+00	1.126019e+00	1.124215e+00	1.122614e+00	1.120744e+00	1.118130e+00	1.114895e+00	1.111740e+00	1.109038e+00	1.106684e+00	1.104413e+00	1.102094e+00	1.099591e+00	1.096850e+00	1.093870e+00	1.090780e+00	1.087706e+00	1.084736e+00	1.081888e+00	1.079193e+00	1.076697e+00	1.074399e+00	1.072133e+00	1.069615e+00	1.066573e+00	1.062947e+00	1.058790e+00	1.054102e+00	1.048799e+00	1.042813e+00	1.036224e+00	1.029216e+00	1.022163e+00	1.015350e+00	1.008732e+00	1.001853e+00	9.942026e-01	9.856560e-01	9.765399e-01	9.672227e-01	9.576560e-01	9.476464e-01	9.370957e-01	9.260943e-01	9.147460e-01	9.031292e-01	8.912554e-01	8.791607e-01	8.668636e-01	8.544177e-01	8.418837e-01	8.292659e-01	8.166649e-01	8.041542e-01	7.918093e-01	7.797767e-01	7.681586e-01	7.570245e-01	7.464030e-01	7.362003e-01	7.261697e-01	7.158631e-01	7.047370e-01	6.922801e-01	6.783969e-01	6.636670e-01	6.495162e-01	6.379792e-01	6.311803e-01	6.306946e-01	6.368256e-01	6.481111e-01	6.611564e-01	6.712471e-01	6.740674e-01	6.671482e-01	6.512389e-01	6.284593e-01	6.014830e-01	5.712708e-01	5.371517e-01	4.977781e-01	4.554091e-01	