# vtk DataFile Version 3.0
vtk output
ASCII
DATASET UNSTRUCTURED_GRID
POINTS 5233 float
9.997500e-01	-3.633641e-05	0.0	9.990000e-01	-1.457236e-04	0.0	9.977600e-01	-3.302549e-04	0.0	9.960200e-01	-6.046871e-04	0.0	9.937800e-01	-1.000008e-03	0.0	9.910500e-01	-1.566667e-03	0.0	9.878400e-01	-2.368821e-03	0.0	9.841300e-01	-3.473358e-03	0.0	9.799500e-01	-4.897493e-03	0.0	9.752800e-01	-6.610149e-03	0.0	9.701500e-01	-8.490367e-03	0.0	9.645400e-01	-1.038417e-02	0.0	9.584700e-01	-1.211927e-02	0.0	9.519400e-01	-1.357993e-02	0.0	9.449600e-01	-1.473286e-02	0.0	9.375400e-01	-1.563324e-02	0.0	9.296900e-01	-1.639608e-02	0.0	9.214000e-01	-1.715477e-02	0.0	9.127000e-01	-1.801681e-02	0.0	9.035800e-01	-1.904806e-02	0.0	8.940600e-01	-2.026085e-02	0.0	8.841500e-01	-2.162668e-02	0.0	8.738500e-01	-2.309241e-02	0.0	8.631800e-01	-2.459193e-02	0.0	8.521600e-01	-2.606206e-02	0.0	8.407700e-01	-2.745591e-02	0.0	8.290500e-01	-2.873398e-02	0.0	8.170100e-01	-2.987663e-02	0.0	8.046400e-01	-3.087962e-02	0.0	7.919700e-01	-3.174616e-02	0.0	7.790100e-01	-3.248894e-02	0.0	7.657800e-01	-3.312432e-02	0.0	7.522800e-01	-3.367096e-02	0.0	7.385200e-01	-3.414604e-02	0.0	7.245300e-01	-3.456390e-02	0.0	7.103200e-01	-3.493666e-02	0.0	6.958900e-01	-3.527354e-02	0.0	6.812700e-01	-3.558031e-02	0.0	6.664700e-01	-3.586116e-02	0.0	6.515000e-01	-3.611898e-02	0.0	6.363800e-01	-3.635595e-02	0.0	6.211300e-01	-3.657442e-02	0.0	6.057600e-01	-3.677748e-02	0.0	5.902800e-01	-3.696907e-02	0.0	5.747100e-01	-3.715392e-02	0.0	5.590600e-01	-3.733765e-02	0.0	5.433600e-01	-3.752614e-02	0.0	5.276100e-01	-3.772573e-02	0.0	5.118400e-01	-3.794205e-02	0.0	4.960500e-01	-3.818039e-02	0.0	4.802700e-01	-3.844450e-02	0.0	4.645100e-01	-3.873697e-02	0.0	4.487800e-01	-3.905883e-02	0.0	4.331100e-01	-3.940891e-02	0.0	4.175000e-01	-3.978495e-02	0.0	4.019700e-01	-4.018255e-02	0.0	3.865400e-01	-4.059580e-02	0.0	3.712300e-01	-4.101742e-02	0.0	3.560400e-01	-4.143967e-02	0.0	3.409900e-01	-4.185344e-02	0.0	3.261100e-01	-4.224886e-02	0.0	3.114000e-01	-4.261660e-02	0.0	2.968700e-01	-4.294706e-02	0.0	2.825500e-01	-4.323036e-02	0.0	2.684500e-01	-4.345755e-02	0.0	2.545700e-01	-4.362022e-02	0.0	2.409400e-01	-4.371018e-02	0.0	2.275700e-01	-4.372029e-02	0.0	2.144700e-01	-4.364406e-02	0.0	2.016600e-01	-4.347585e-02	0.0	1.891400e-01	-4.321054e-02	0.0	1.769300e-01	-4.284406e-02	0.0	1.650400e-01	-4.237293e-02	0.0	1.534900e-01	-4.179494e-02	0.0	1.422900e-01	-4.110840e-02	0.0	1.314400e-01	-4.031157e-02	0.0	1.209500e-01	-3.940393e-02	0.0	1.108500e-01	-3.838794e-02	0.0	1.011300e-01	-3.726317e-02	0.0	9.181000e-02	-3.603315e-02	0.0	8.290000e-02	-3.470149e-02	0.0	7.440000e-02	-3.327117e-02	0.0	6.633000e-02	-3.174950e-02	0.0	5.869000e-02	-3.014144e-02	0.0	5.149000e-02	-2.845479e-02	0.0	4.474000e-02	-2.669858e-02	0.0	3.844000e-02	-2.488015e-02	0.0	3.260000e-02	-2.301019e-02	0.0	2.723000e-02	-2.110055e-02	0.0	2.232000e-02	-1.915581e-02	0.0	1.790000e-02	-1.719649e-02	0.0	1.395000e-02	-1.522160e-02	0.0	1.049000e-02	-1.324707e-02	0.0	7.520000e-03	-1.127782e-02	0.0	5.040000e-03	-9.314496e-03	0.0	3.050000e-03	-7.350420e-03	0.0	1.560000e-03	-5.380759e-03	0.0	5.600000e-04	-3.354116e-03	0.0	6.000000e-05	-1.187598e-03	0.0	0.000000e+00	0.000000e+00	0.0	6.000000e-05	1.145475e-03	0.0	5.600000e-04	3.137790e-03	0.0	1.560000e-03	4.912331e-03	0.0	3.050000e-03	6.568920e-03	0.0	5.040000e-03	8.167157e-03	0.0	7.520000e-03	9.723386e-03	0.0	1.049000e-02	1.125362e-02	0.0	1.395000e-02	1.276672e-02	0.0	1.790000e-02	1.426735e-02	0.0	2.232000e-02	1.575113e-02	0.0	2.723000e-02	1.722591e-02	0.0	3.260000e-02	1.868264e-02	0.0	3.844000e-02	2.012375e-02	0.0	4.474000e-02	2.154560e-02	0.0	5.149000e-02	2.294472e-02	0.0	5.869000e-02	2.431972e-02	0.0	6.633000e-02	2.566720e-02	0.0	7.440000e-02	2.698407e-02	0.0	8.290000e-02	2.826902e-02	0.0	9.181000e-02	2.951794e-02	0.0	1.011300e-01	3.072996e-02	0.0	1.108500e-01	3.190299e-02	0.0	1.209500e-01	3.303416e-02	0.0	1.314400e-01	3.412424e-02	0.0	1.422900e-01	3.516994e-02	0.0	1.534900e-01	3.617051e-02	0.0	1.650400e-01	3.712622e-02	0.0	1.769300e-01	3.803653e-02	0.0	1.891400e-01	3.890038e-02	0.0	2.016600e-01	3.971767e-02	0.0	2.144700e-01	4.048778e-02	0.0	2.275700e-01	4.121137e-02	0.0	2.409400e-01	4.188788e-02	0.0	2.545700e-01	4.251727e-02	0.0	2.684500e-01	4.309932e-02	0.0	2.825500e-01	4.363291e-02	0.0	2.968700e-01	4.411790e-02	0.0	3.114000e-01	4.455341e-02	0.0	3.261100e-01	4.493771e-02	0.0	3.409900e-01	4.526943e-02	0.0	3.560400e-01	4.554700e-02	0.0	3.712300e-01	4.576793e-02	0.0	3.865400e-01	4.592980e-02	0.0	4.019700e-01	4.603012e-02	0.0	4.175000e-01	4.606597e-02	0.0	4.331100e-01	4.603434e-02	0.0	4.487800e-01	4.593222e-02	0.0	4.645100e-01	4.575639e-02	0.0	4.802700e-01	4.550383e-02	0.0	4.960500e-01	4.517137e-02	0.0	5.118400e-01	4.475579e-02	0.0	5.276100e-01	4.425448e-02	0.0	5.433600e-01	4.366412e-02	0.0	5.590600e-01	4.298266e-02	0.0	5.747100e-01	4.220719e-02	0.0	5.902800e-01	4.133675e-02	0.0	6.057600e-01	4.037033e-02	0.0	6.211300e-01	3.930866e-02	0.0	6.363800e-01	3.815334e-02	0.0	6.515000e-01	3.690777e-02	0.0	6.664700e-01	3.557834e-02	0.0	6.812700e-01	3.417394e-02	0.0	6.958900e-01	3.270497e-02	0.0	7.103200e-01	3.118377e-02	0.0	7.245300e-01	2.962640e-02	0.0	7.385200e-01	2.804632e-02	0.0	7.522800e-01	2.645763e-02	0.0	7.657800e-01	2.487516e-02	0.0	7.790100e-01	2.330881e-02	0.0	7.919700e-01	2.176378e-02	0.0	8.046400e-01	2.024385e-02	0.0	8.170100e-01	1.874790e-02	0.0	8.290500e-01	1.727418e-02	0.0	8.407700e-01	1.581388e-02	0.0	8.521600e-01	1.435922e-02	0.0	8.631800e-01	1.290580e-02	0.0	8.738500e-01	1.144135e-02	0.0	8.841500e-01	9.959740e-03	0.0	8.940600e-01	8.458187e-03	0.0	9.035800e-01	6.938470e-03	0.0	9.127000e-01	5.418010e-03	0.0	9.214000e-01	3.937669e-03	0.0	9.296900e-01	2.559300e-03	0.0	9.375400e-01	1.373351e-03	0.0	9.449600e-01	4.695486e-04	0.0	9.519400e-01	-8.045639e-05	0.0	9.584700e-01	-2.567640e-04	0.0	9.645400e-01	-1.098048e-04	0.0	9.701500e-01	2.462028e-04	0.0	9.752800e-01	6.630127e-04	0.0	9.799500e-01	1.007044e-03	0.0	9.841300e-01	1.190295e-03	0.0	9.878400e-01	1.191927e-03	0.0	9.910500e-01	1.044878e-03	0.0	9.937800e-01	8.101748e-04	0.0	9.960200e-01	5.519494e-04	0.0	9.977600e-01	3.204640e-04	0.0	9.990000e-01	1.448296e-04	0.0	9.997500e-01	3.632224e-05	0.0	1.000000e+00	0.000000e+00	0.0	1.984229e+01	2.506660e+00	0.0	1.937166e+01	4.973800e+00	0.0	1.859553e+01	7.362490e+00	0.0	1.752613e+01	9.635070e+00	0.0	1.618034e+01	1.175571e+01	0.0	1.457937e+01	1.369094e+01	0.0	1.274848e+01	1.541027e+01	0.0	1.071654e+01	1.688656e+01	0.0	8.515590e+00	1.809654e+01	0.0	6.180340e+00	1.902113e+01	0.0	3.747630e+00	1.964575e+01	0.0	1.255810e+00	1.996053e+01	0.0	-1.255810e+00	1.996053e+01	0.0	-3.747630e+00	1.964574e+01	0.0	-6.180340e+00	1.902113e+01	0.0	-8.515590e+00	1.809654e+01	0.0	-1.071654e+01	1.688656e+01	0.0	-1.274848e+01	1.541026e+01	0.0	-1.457937e+01	1.369094e+01	0.0	-1.618034e+01	1.175570e+01	0.0	-1.752613e+01	9.635070e+00	0.0	-1.859553e+01	7.362490e+00	0.0	-1.937166e+01	4.973800e+00	0.0	-1.984229e+01	2.506660e+00	0.0	-2.000000e+01	0.000000e+00	0.0	-1.984229e+01	-2.506670e+00	0.0	-1.937166e+01	-4.973800e+00	0.0	-1.859553e+01	-7.362490e+00	0.0	-1.752613e+01	-9.635080e+00	0.0	-1.618034e+01	-1.175571e+01	0.0	-1.457937e+01	-1.369094e+01	0.0	-1.274848e+01	-1.541027e+01	0.0	-1.071653e+01	-1.688656e+01	0.0	-8.515580e+00	-1.809654e+01	0.0	-6.180340e+00	-1.902113e+01	0.0	-3.747620e+00	-1.964575e+01	0.0	-1.255810e+00	-1.996053e+01	0.0	1.255810e+00	-1.996053e+01	0.0	3.747630e+00	-1.964574e+01	0.0	6.180340e+00	-1.902113e+01	0.0	8.515590e+00	-1.809654e+01	0.0	1.071654e+01	-1.688656e+01	0.0	1.274848e+01	-1.541026e+01	0.0	1.457937e+01	-1.369094e+01	0.0	1.618034e+01	-1.175570e+01	0.0	1.752614e+01	-9.635070e+00	0.0	1.859553e+01	-7.362490e+00	0.0	1.937166e+01	-4.973790e+00	0.0	1.984229e+01	-2.506660e+00	0.0	2.000000e+01	0.000000e+00	0.0	6.108513e-02	-3.782387e-02	0.0	6.595856e-01	-4.977275e-02	0.0	4.255480e-01	6.025395e-02	0.0	6.897927e-01	4.666074e-02	0.0	3.792227e-01	-5.508496e-02	0.0	9.994688e-01	-7.275086e-04	0.0	9.985581e-01	-1.337115e-03	0.0	7.733799e-01	-4.473836e-02	0.0	6.892609e-01	-4.885715e-02	0.0	-8.015538e-04	4.849581e-03	0.0	7.462696e-01	-4.640949e-02	0.0	5.833565e-01	5.581609e-02	0.0	9.928496e-01	-3.874843e-03	0.0	9.899912e-01	-5.019901e-03	0.0	5.989361e-01	5.480953e-02	0.0	7.181974e-01	-4.775171e-02	0.0	-1.237509e-03	5.738208e-04	0.0	9.866560e-01	-6.400317e-03	0.0	9.828480e-01	-8.026005e-03	0.0	-8.878509e-04	-5.230491e-03	0.0	6.445109e-01	-5.017208e-02	0.0	8.242333e-01	-4.004543e-02	0.0	7.994007e-01	-4.265239e-02	0.0	3.484682e-01	5.916964e-02	0.0	8.477293e-01	-3.695097e-02	0.0	2.473351e-01	5.472149e-02	0.0	8.698225e-01	-3.351954e-02	0.0	1.068625e-02	1.525601e-02	0.0	8.904107e-01	-3.006679e-02	0.0	7.735273e-02	-4.164514e-02	0.0	9.094388e-01	-2.692392e-02	0.0	-1.446579e-03	-2.619526e-03	0.0	9.425619e-01	-2.143094e-02	0.0	9.268486e-01	-2.416864e-02	0.0	1.837968e-02	-2.220649e-02	0.0	4.257101e-01	-5.417520e-02	0.0	8.589604e-01	-3.525821e-02	0.0	9.564891e-01	-1.812257e-02	0.0	9.785548e-01	-9.907792e-03	0.0	9.685100e-01	-1.407651e-02	0.0	1.586109e-01	-5.259497e-02	0.0	9.001252e-01	-2.844253e-02	0.0	7.599553e-01	-4.562057e-02	0.0	9.971451e-01	-2.110044e-03	0.0	5.985196e-01	-5.117881e-02	0.0	4.413665e-01	-5.387286e-02	0.0	5.359501e-01	-5.223868e-02	0.0	4.728430e-01	-5.329292e-02	0.0	5.044056e-01	-5.275120e-02	0.0	4.886129e-01	-5.301639e-02	0.0	1.252832e-01	-4.935186e-02	0.0	2.824840e-02	-2.693590e-02	0.0	3.946263e-01	-5.478711e-02	0.0	4.658191e-02	-3.367180e-02	0.0	4.101234e-01	-5.448265e-02	0.0	3.189570e-01	-5.607106e-02	0.0	3.487896e-01	-5.563945e-02	0.0	3.389643e-02	-2.922439e-02	0.0	2.898037e-01	-5.632173e-02	0.0	9.349231e-01	-2.283468e-02	0.0	1.471472e-01	-5.162849e-02	0.0	1.950010e-01	-5.478839e-02	0.0	8.612412e-02	-4.340846e-02	0.0	1.049154e-01	-4.661547e-02	0.0	5.673630e-01	-5.173636e-02	0.0	1.704180e-01	-5.344470e-02	0.0	6.139698e-01	-5.086879e-02	0.0	8.803124e-01	-3.177404e-02	0.0	2.308659e-02	-2.459192e-02	0.0	9.952405e-01	-2.931529e-03	0.0	7.194822e-03	-1.499464e-02	0.0	1.866506e-02	1.916384e-02	0.0	9.183485e-01	-2.550997e-02	0.0	9.49
[...]
POINT_DATA 5233

SCALARS Conservative_1 float 1
LOOKUP_TABLE default
-3.107109e-01	-2.717852e-01	-2.691262e-01	-2.676436e-01	-2.664476e-01	-2.627703e-01	-2.515899e-01	-2.284787e-01	-1.889307e-01	-1.285795e-01	-4.544435e-02	5.909120e-02	1.760803e-01	2.698180e-01	2.796591e-01	1.976896e-01	9.895802e-02	4.007583e-02	1.657682e-02	1.267356e-02	2.347103e-02	4.714471e-02	8.056734e-02	1.201234e-01	1.625168e-01	2.060089e-01	2.504399e-01	2.927719e-01	3.233028e-01	3.290211e-01	3.057894e-01	2.658645e-01	2.275031e-01	2.000146e-01	1.817965e-01	1.678603e-01	1.553647e-01	1.440442e-01	1.341517e-01	1.255044e-01	1.175488e-01	1.099653e-01	1.026158e-01	9.555758e-02	8.883442e-02	8.259361e-02	7.697011e-02	7.213684e-02	6.825404e-02	6.547085e-02	6.391229e-02	6.366715e-02	6.479008e-02	6.731005e-02	7.126836e-02	7.663906e-02	8.342990e-02	9.158186e-02	1.010825e-01	1.118608e-01	1.238926e-01	1.370663e-01	1.513824e-01	1.667800e-01	1.831825e-01	2.001098e-01	2.169186e-01	2.330550e-01	2.491597e-01	2.670574e-01	2.898394e-01	3.202630e-01	3.574825e-01	3.924448e-01	4.088702e-01	3.944993e-01	3.530874e-01	3.034583e-01	2.639848e-01	2.385396e-01	2.181094e-01	1.935849e-01	1.636114e-01	1.312295e-01	9.815497e-02	6.408926e-02	2.848262e-02	-8.562099e-03	-4.709850e-02	-8.718003e-02	-1.292314e-01	-1.734999e-01	-2.210785e-01	-2.718586e-01	-3.276441e-01	-3.857897e-01	-4.396090e-01	-4.815045e-01	-5.029773e-01	-4.848597e-01	-4.404093e-01	-3.425153e-01	-1.926051e-01	-5.497713e-02	4.690872e-02	1.161318e-01	1.609869e-01	1.917771e-01	2.145382e-01	2.325382e-01	2.478141e-01	2.617930e-01	2.758268e-01	2.898263e-01	3.016901e-01	3.091546e-01	3.125981e-01	3.162918e-01	3.260554e-01	3.447488e-01	3.695719e-01	3.934405e-01	4.094756e-01	4.149283e-01	4.114908e-01	4.030182e-01	3.929162e-01	3.830023e-01	3.739377e-01	3.658524e-01	3.588286e-01	3.528953e-01	3.479933e-01	3.440659e-01	3.409207e-01	3.384045e-01	3.363154e-01	3.346867e-01	3.336154e-01	3.332842e-01	3.336261e-01	3.342919e-01	3.346025e-01	3.337413e-01	3.309635e-01	3.258802e-01	3.186385e-01	3.099865e-01	3.009952e-01	2.923153e-01	2.838132e-01	2.748506e-01	2.646919e-01	2.530444e-01	2.400137e-01	2.257385e-01	2.102930e-01	1.937611e-01	1.762527e-01	1.578774e-01	1.389358e-01	1.196777e-01	1.004718e-01	8.165076e-02	6.359302e-02	4.659290e-02	3.094883e-02	1.681497e-02	4.274871e-03	-6.788685e-03	-1.657343e-02	-2.543632e-02	-3.375152e-02	-4.200542e-02	-5.070937e-02	-6.029191e-02	-7.150109e-02	-8.502387e-02	-1.016816e-01	-1.220381e-01	-1.459995e-01	-1.724027e-01	-1.989760e-01	-2.226175e-01	-2.401339e-01	-2.486298e-01	-2.457456e-01	-2.297921e-01	-2.003476e-01	-1.594429e-01	-1.142473e-01	-7.883057e-02	-6.673665e-02	-8.050051e-02	-1.112153e-01	-1.468513e-01	-1.810513e-01	-2.104012e-01	-2.304460e-01	-2.842785e-01	-1.325657e-04	-1.318294e-04	-1.302108e-04	-1.288881e-04	-1.264299e-04	-1.216628e-04	-1.106140e-04	-9.396352e-05	-6.358669e-05	-2.154796e-05	5.191152e-05	1.521859e-04	2.556601e-04	3.048521e-04	3.041625e-04	2.831583e-04	2.508385e-04	2.158673e-04	1.787088e-04	1.429185e-04	1.104801e-04	8.568278e-05	9.994998e-05	5.111209e-05	-5.733204e-05	1.913160e-05	4.923330e-05	1.509569e-05	-2.576899e-05	-3.295556e-05	-3.828166e-05	-3.811562e-05	-3.337792e-05	-2.389025e-05	-1.117692e-05	2.476593e-06	8.276819e-06	-8.521457e-06	-4.430746e-05	-7.714877e-05	-1.051089e-04	-1.241160e-04	-1.343718e-04	-1.394011e-04	-1.403115e-04	-1.391859e-04	-1.380803e-04	-1.369135e-04	-1.338297e-04	-1.337446e-04	1.206595e-01	1.311269e-01	3.185954e-01	1.024993e-01	9.130961e-02	-3.035180e-01	-2.803937e-01	2.755068e-01	1.501332e-01	-3.111894e-01	2.075872e-01	2.213301e-01	-2.545045e-01	-2.441016e-01	2.066887e-01	1.736072e-01	-4.465674e-01	-2.262772e-01	-1.979315e-01	-4.485601e-01	1.231979e-01	2.539460e-01	3.127883e-01	3.245143e-01	1.718983e-01	3.357555e-01	9.725703e-02	1.030834e-01	4.136193e-02	1.811028e-01	2.478321e-02	-4.780044e-01	2.010999e-01	6.520712e-02	-1.324634e-01	7.426196e-02	1.334480e-01	1.574455e-01	-1.557305e-01	-2.395846e-02	3.607410e-01	2.731762e-02	2.378872e-01	-2.687482e-01	1.017744e-01	7.121744e-02	7.884200e-02	6.903949e-02	7.178461e-02	6.982624e-02	3.510291e-01	-5.354167e-02	8.432555e-02	5.449164e-02	7.862918e-02	1.314700e-01	1.090323e-01	-1.614783e-02	1.581948e-01	1.283683e-01	3.855506e-01	2.676888e-01	2.037876e-01	2.561783e-01	8.920995e-02	3.249985e-01	1.086123e-01	6.556210e-02	-9.224406e-02	-2.613818e-01	-2.647861e-01	1.701409e-01	3.470373e-02	2.183348e-01	-9.770140e-02	-2.030048e-01	2.122014e-01	2.043677e-01	8.368350e-02	1.875866e-01	3.061133e-01	3.016513e-01	2.342229e-01	9.527503e-02	1.399600e-01	8.784965e-02	-3.133441e-01	-1.744913e-01	9.956098e-02	2.923311e-01	-3.222834e-01	2.195802e-01	2.252377e-01	1.443202e-01	1.886265e-01	6.948824e-02	1.614959e-01	-3.962552e-01	-4.102331e-01	2.584292e-01	-4.771808e-01	2.138819e-01	2.787780e-01	2.497908e-01	3.840339e-01	3.227996e-01	-1.826590e-01	2.680213e-01	2.945610e-01	-1.770283e-01	-2.209121e-01	-9.818236e-02	2.854256e-01	3.121161e-01	3.253183e-01	-1.799930e-01	-1.357247e-01	2.981410e-01	-1.457895e-01	-2.286450e-01	-2.168903e-01	3.359647e-01	2.863839e-01	3.279629e-01	3.325439e-01	3.746128e-01	3.251520e-01	3.037971e-01	3.248545e-01	3.925857e-01	3.961641e-01	1.743788e-01	3.578338e-01	3.447963e-01	1.390533e-01	2.349278e-01	3.497937e-02	6.704514e-02	-1.413334e-02	7.882050e-03	-5.032957e-02	-3.262120e-02	-1.156461e-01	-7.083465e-02	-2.268783e-01	-1.576846e-01	-2.033118e-01	-6.000630e-02	-8.338248e-02	-2.366072e-02	-4.137332e-02	2.076511e-02	-3.693256e-03	8.448583e-02	5.047302e-02	1.569998e-01	1.207977e-01	2.473951e-01	1.910079e-01	3.508061e-01	3.398126e-01	3.839059e-01	3.658083e-01	2.661153e-01	3.979789e-01	1.407338e-01	2.321334e-01	2.493972e-01	-1.329033e-02	6.400150e-02	2.917086e-01	1.196967e-01	7.482801e-02	-9.892446e-02	1.938139e-01	5.333544e-02	3.129382e-01	2.910163e-01	3.299952e-01	3.621776e-01	-1.174703e-01	-1.022367e-01	3.263326e-01	-1.054652e-01	-1.243952e-01	3.245169e-01	3.249557e-01	-2.005252e-01	-2.554745e-01	-2.134140e-01	-2.404835e-01	1.157552e-01	1.988935e-02	-1.520522e-01	2.767535e-01	-3.628191e-01	-2.186272e-01	1.526427e-01	3.836113e-01	1.730556e-01	2.714770e-01	-2.888828e-01	-3.573802e-01	1.639252e-01	1.558276e-01	3.825443e-02	-2.565549e-01	2.165300e-01	1.455805e-01	2.803590e-01	-2.201495e-01	1.266916e-01	1.427057e-01	2.150242e-01	1.902784e-01	-4.138376e-01	2.340665e-01	-1.737864e-01	6.045235e-02	3.560875e-01	1.667903e-01	1.285198e-01	7.526843e-02	1.679434e-01	9.156891e-02	4.169165e-02	2.951596e-01	1.006858e-02	1.345437e-01	1.210191e-01	-4.928465e-02	3.541957e-01	1.036683e-01	3.650792e-01	-8.144095e-02	-1.265109e-01	3.156599e-01	2.610913e-01	-2.100931e-01	-9.489685e-02	-1.356629e-01	-2.075720e-01	-1.421052e-01	3.272336e-01	3.159401e-01	3.313203e-01	3.287921e-01	1.365263e-01	2.490461e-01	6.076636e-02	3.796284e-01	2.437929e-01	-1.820290e-01	-1.526629e-01	-1.101658e-01	3.273119e-01	-2.778640e-01	-2.013127e-01	-1.755137e-01	-5.302700e-02	-2.082199e-01	-2.995049e-01	-4.585425e-01	-4.453386e-01	-1.342307e-01	-2.925508e-01	1.109225e-01	-2.630869e-01	-2.454538e-01	3.109984e-01	8.518423e-02	-1.980691e-01	8.102796e-02	2.024825e-01	-2.351053e-01	-4.446497e-01	7.750885e-02	3.144869e-01	1.776256e-01	3.193597e-01	1.101548e-01	5.747053e-02	1.415645e-01	3.502348e-02	5.494476e-02	1.627778e-01	-5.873338e-02	1.290180e-01	-1.045961e-02	-1.672497e-01	3.453507e-01	2.178007e-01	2.495402e-01	-2.543290e-01	7.422493e-02	7.435158e-02	7.559440e-02	-9.599376e-02	8.566902e-02	8.096421e-02	1.162704e-01	1.216195e-02	9.197150e-02	1.408746e-01	3.654205e-01	2.159104e-01	8.998150e-02	1.075564e-01	-7.287272e-02	-1.255260e-01	1.785942e-01	1.941464e-01	2.537699e-01	3.021083e-01	9.538377e-02	1.012617e-01	4.578393e-02	7.864423e-02	-2.147730e-01	1.068956e-01	9.866297e-02	2.948409e-01	2.683200e-01	2.206231e-01	2.069049e-01	1.505634e-01	1.381519e-01	1.925943e-01	-4.090263e-01	-3.412656e-01	2.265511e-01	-1.286813e-01	2.519344e-01	2.698664e-01	2.790682e-01	2.886300e-01	-1.619615e-01	-1.979749e-01	-1.640792e-01	2.976586e-01	3.053166e-01	3.160267e-01	-1.455278e-01	-2.058573e-01	2.644034e-01	2.564134e-01	3.239338e-01	3.213745e-01	3.733196e-01	3.806642e-01	3.726169e-01	-1.117514e-02	3.862459e-02	5.376107e-02	-3.151690e-04	-3.999876e-02	-1.272309e-01	-6.959659e-02	-5.896543e-02	-3.072377e-02	-2.123811e-02	1.154737e-02	2.450170e-02	6.978882e-02	8.649341e-02	1.383234e-01	1.553192e-01	2.297578e-01	2.416624e-01	1.718314e-01	1.875803e-01	3.363501e-01	3.423179e-01	3.491935e-01	3.568444e-01	1.015850e-01	2.066519e-01	1.851890e-01	2.843031e-01	2.533195e-01	7.787185e-02	8.110187e-02	-1.272478e-01	1.616582e-01	3.030523e-01	2.832688e-01	3.166739e-01	3.178287e-01	3.162311e-01	3.158749e-01	-1.958484e-01	-1.813846e-01	1.141891e-01	1.211635e-01	-2.261315e-02	-3.811839e-01	1.780417e-01	-4.125423e-01	9.189902e-02	1.552792e-01	2.712609e-01	8.665028e-02	5.347123e-02	-1.433241e-01	-1.393282e-01	-1.881039e-01	-1.430805e-01	-1.537191e-01	-2.259021e-01	-2.500952e-01	-2.478101e-01	-2.694191e-01	-1.350768e-01	-3.848648e-01	1.784419e-01	7.422290e-02	-2.130780e-01	2.120698e-01	-2.784123e-01	-2.859943e-01	1.607046e-01	-3.573624e-01	1.714692e-01	-1.718333e-01	9.296962e-02	-2.477858e-01	1.222542e-01	1.189997e-01	1.506124e-01	-2.259053e-01	-2.096849e-01	-1.536297e-01	2.452999e-01	-1.917466e-01	1.208032e-01	-1.723036e-01	2.545777e-01	3.105932e-01	3.070869e-01	3.539019e-01	2.434914e-01	-2.433154e-01	-3.854133e-01	-2.753453e-01	6.845691e-02	-3.334920e-01	-2.195184e-03	1.543793e-01	-4.261957e-01	3.224916e-01	7.898757e-02	-9.873877e-02	-2.164758e-02	-4.718016e-02	-7.761680e-03	1.042734e-01	-1.433067e-01	-1.924472e-01	-1.042922e-01	-9.082487e-02	3.074666e-01	3.091399e-01	3.183760e-01	3.191754e-01	1.332518e-01	1.414097e-01	2.324337e-01	2.709617e-02	3.599731e-01	-1.667951e-01	-1.903857e-01	-7.885956e-02	-2.101507e-01	-3.228225e-01	-4.311802e-01	-6.315439e-02	-2.815577e-01	-2.854495e-01	-5.480884e-02	-1.950952e-01	1.983444e-01	8.053707e-02	3.030758e-01	1.798982e-01	1.480611e-01	7.120844e-02	5.521123e-02	1.003905e-01	1.292080e-01	4.623039e-02	4.511616e-02	1.002016e-01	5.348910e-02	-1.712785e-01	2.289771e-01	2.548063e-01	-2.374724e-01	7.850182e-02	7.911496e-02	8.698249e-02	8.317688e-02	-2.880467e-02	1.027370e-01	1.181280e-01	3.289146e-01	3.378476e-01	9.073088e-02	9.546832e-02	-1.010965e-01	-1.402340e-01	1.842698e-01	2.031510e-01	2.090370e-01	2.506561e-01	2.958125e-01	1.007140e-01	1.064320e-01	4.557079e-03	3.735035e-02	6.941872e-02	1.131302e-01	1.049903e-01	9.791740e-02	2.951223e-01	2.685291e-01	2.477856e-01	2.195377e-01	2.071759e-01	1.433751e-01	1.323690e-01	1.943073e-01	2.030354e-01	2.639397e-01	2.737474e-01	-1.791066e-01	2.830157e-01	2.913027e-01	2.981438e-01	3.059461e-01	-1.495407e-01	2.339379e-01	2.208422e-01	3.125250e-01	3.151188e-01	3.623133e-01	3.572354e-01	3.422434e-01	4.203478e-02	-1.341808e-01	-1.188384e-01	-7.854331e-02	-6.730230e-02	-5.701274e-02	-3.753286e-02	-2.781779e-02	-1.801219e-02	3.402172e-03	1.527982e-02	2.826235e-02	5.677632e-02	7.205457e-02	8.807604e-02	1.370941e-01	2.248060e-01	2.355618e-01	1.532649e-01	1.688051e-01	1.839023e-01	3.224636e-01	3.273316e-01	3.330677e-01	3.394956e-01	3.465328e-01	1.819186e-01	1.584621e-01	2.686032e-01	2.462281e-01	2.139853e-01	8.073944e-02	8.327327e-02	1.322820e-01	1.028152e-01	2.931579e-01	2.702938e-01	2.540929e-01	3.081486e-01	3.070993e-01	3.071823e-01	3.069892e-01	-1.863145e-01	-1.767968e-01	-1.642194e-01	1.125284e-01	1.190054e-01	1.258707e-01	1.810948e-01	1.679150e-01	-3.793801e-01	1.673066e-01	-1.823614e-01	-1.510979e-01	9.072664e-02	-3.497026e-01	-2.525508e-01	6.298669e-02	7.649691e-02	-6.704259e-02	-1.566661e-01	2.479803e-01	-3.573923e-01	5.823109e-04	-2.707968e-01	-1.767171e-01	-1.688156e-01	-2.576611e-01	1.213557e-01	-2.043724e-01	-2.569983e-01	-2.686106e-01	2.522372e-01	2.889317e-01	-1.344413e-01	9.189787e-02	1.414073e-01	8.296323e-02	1.468677e-01	-1.479081e-01	2.083414e-01	-1.777461e-01	-1.752309e-01	-4.259604e-03	3.399342e-01	3.016457e-01	-1.924710e-01	2.121898e-01	9.980102e-02	-2.037002e-01	-1.496016e-01	-2.303648e-01	-8.473233e-02	-1.684599e-01	1.540379e-01	-3.029760e-01	1.632724e-01	1.749250e-01	-2.025631e-01	-2.080176e-01	-2.372138e-01	-4.399353e-02	2.405884e-01	2.988763e-01	-3.068410e-01	-4.479170e-02	1.045890e-01	-9.830946e-02	2.985969e-01	2.994040e-01	3.002920e-01	1.368119e-01	1.446254e-01	-1.577215e-01	-9.483734e-02	-1.490358e-01	-3.329130e-01	-4.003022e-01	-1.000556e-01	-4.517260e-02	-1.732435e-01	1.937511e-01	1.493110e-01	1.230610e-01	7.976966e-02	6.466801e-02	8.906087e-02	1.164923e-01	5.476828e-02	5.100167e-02	5.366353e-02	3.996474e-02	-2.232126e-03	2.357010e-01	2.470996e-01	-2.195434e-01	8.195062e-02	8.189729e-02	8.783099e-02	8.487573e-02	8.362739e-02	7.190404e-02	3.034526e-01	3.056168e-01	9.498083e-02	-1.197454e-01	-1.494288e-01	1.887617e-01	2.125596e-01	2.006547e-01	2.419566e-01	2.801384e-01	9.951457e-02	1.046737e-01	-3.491473e-02	-2.825862e-03	2.904096e-02	5.959446e-02	1.177996e-01	1.099280e-01	1.029114e-01	9.693785e-02	2.660430e-01	2.457391e-01	2.295066e-01	2.167606e-01	2.051332e-01	1.266689e-01	1.363038e-01	1.936384e-01	2.585715e-01	-1.655399e-01	-1.723645e-01	2.680080e-01	2.765087e-01	2.841061e-01	2.902593e-01	2.946155e-01	1.980135e-01	1.792032e-01	3.035596e-01	3.060776e-01	3.421891e-01	3.388459e-01	3.264222e-01	3.059742e-01	-1.370189e-01	-1.240243e-01	-1.110580e-01	-8.629083e-02	-7.478885e-02	-6.416366e-02	-5.352044e-02	-3.481843e-02	-2.384057e-02	-1.455457e-02	7.277701e-03	1.905104e-02	3.218129e-02	4.522393e-02	5.992651e-02	7.397263e-02	9.004968e-02	2.290826e-01	2.206790e-01	1.355923e-01	1.523321e-01	1.659068e-01	1.821426e-01	3.092630e-01	3.131014e-01	3.177381e-01	3.230974e-01	3.287214e-01	3.349886e-01	1.570578e-01	1.327422e-01	2.334274e-01	2.066542e-01	1.780554e-01	8.296265e-02	8.450120e-02	8.750540e-02	1.054833e-01	7.450649e-02	4.015442e-02	2.810999e-01	2.571792e-01	2.380187e-01	2.240172e-01	2.970780e-01	2.982036e-01	2.982375e-01	2.984268e-01	-1.493790e-01	-1.691595e-01	-1.604888e-01	1.102441e-01	1.160992e-01	1.225773e-01	1.291898e-01	1.817077e-01	1.698286e-01	1.580205e-01	-1.949497e-01	-1.775769e-01	-7.547650e-02	-2.551625e-01	-2.259576e-01	1.694531e-01	1.550219e-01	-2.558543e-01	-1.536185e-01	-3.102836e-01	-1.010053e-01	2.577634e-01	3.216294e-01	-6.228969e-02	-1.971651e-01	-3.223909e-01	-4.037788e-01	-4.153289e-01	-3.782244e-01	-3.326447e-01	-2.197364e-01	2.894202e-01	-1.054574e-01	-1.902979e-01	5.767653e-02	2.232287e-01	9.108619e-02	-1.657427e-01	-1.382740e-01	-1.605149e-01	2.089123e-01	2.273185e-01	1.122213e-01	4.857859e-03	2.414613e-01	9.187411e-02	2.908388e-01	-1.581737e-01	1.282688e-01	-2.309623e-01	-1.521451e-01	-3.976682e-01	-2.833030e-01	-2.678237e-01	6.032485e-02	-7.115620e-02	-3.512338e-01	-2.127295e-02	-2.839300e-01	-1.653913e-01	-2.415191e-01	-2.612940e-01	-2.682201e-01	-1.645659e-01	1.297092e-01	1.385928e-01	-1.535015e-01	1.895290e-01	-1.643667e-01	-1.739737e-01	1.498175e-01	-2.836421e-01	2.910264e-01	2.901178e-01	2.924471e-01	1.342999e-01	-1.059641e-01	-1.510760e-01	-3.695264e-01	-1.326741e-01	1.220369e-01	1.031509e-01	8.347548e-02	6.897158e-02	1.036134e-01	7.702248e-02	5.853778e-02	5.313608e-02	5.216868e-02	5.435863e-02	-8.661418e-03	-4.269090e-02	2.203361e-01	-2.028052e-01	8.428638e-02	8.388914e-02	8.784730e-02	8.580453e-02	4.600931e-02	2.296766e-02	2.749930e-01	2.775234e-01	-1.321179e-01	-1.550026e-01	1.936733e-01	1.919900e-01	2.332915e-01	2.571908e-01	9.978969e-02	-4.100444e-02	-1.014092e-02	2.005288e-02	4.892910e-02	1.208838e-01	1.133409e-01	1.063815e-01	1.004586e-01	9.575421e-02	2.428902e-01	2.252324e-01	2.139885e-01	2.014932e-01	1.921846e-01	-1.570655e-01	-1.609848e-01	-1.640948e-01	2.536610e-01	2.606987e-01	2.706577e-01	2.759634e-01	2.835108e-01	1.753222e-01	1.554217e-01	2.923602e-01	2.957117e-01	3.226518e-01	3.091693e-01	2.899820e-01	-1.266797e-01	-1.157581e-01	-1.038815e-01	-9.252072e-02	-8.136469e-02	-7.048328e-02	-6.021934e-02	-4.554442e-02	-3.100187e-02	-1.561989e-02	2.879547e-02	5.484343e-02	8.292375e-02	1.417022e-01	1.694296e-01	2.965966e-01	3.012321e-01	3.032984e-01	3.094768e-01	3.115890e-01	3.167007e-01	3.209056e-01	1.322782e-01	1.074133e-01	1.949854e-01	1.737476e-01	1.480140e-01	8.425242e-02	8.645699e-02	8.044171e-02	4.932128e-02	1.523925e-02	2.666594e-01	2.428901e-01	2.220990e-01	2.051111e-01	1.908691e-01	2.857284e-01	2.897625e-01	2.889776e-01	2.892442e-01	-1.545922e-01	-1.466128e-01	1.095980e-01	1.210708e-01	1.802236e-01	1.704983e-01	1.588536e-01	1.491002e-01	-2.630337e-01	-2.163120e-01	-2.409717e-01	-3.459314e-01	-2.683755e-01	-1.193278e-01	-1.580140e-01	-2.615499e-01	-1.553790e-01	-2.227879e-01	-1.582423e-01	-3.405524e-01	-1.019437e-01	-2.143362e-01	2.801227e-01	-2.533063e-01	-1.132090e-01	-2.262350e-01	-1.872632e-01	-9.627317e-02	8.911848e-02	-1.540762e-01	1.270550e-01	2.656618e-02	4.234716e-02	1.127748e-01	1.437427e-01	2.262740e-01	-3.089077e-01	8.867631e-02	8.982043e-02	1.131745e-01	2.958216e-01	-1.523497e-01	-1.311034e-01	-2.951137e-01	-7.529294e-02	-7.093712e-02	-2.428587e-01	-1.522631e-01	-3.988571e-01	-3.252287e-01	-1.745546e-01	1.735124e-01	2.215300e-01	2.405417e-01	-1.638639e-01	-2.578059e-01	-1.846613e-01	-3.766084e-01	-2.732823e-01	-7.476818e-02	-2.886617e-01	-2.656557e-01	1.864731e-01	-1.300678e-01	-1.546860e-01	-1.521427e-01	2.043834e-01	2.802073e-01	2.813926e-01	1.529088e-01	-1.511414e-01	-1.893799e-01	-1.597146e-01	9.231906e-02	6.530221e-02	6.442477e-02	5.115400e-02	4.618456e-02	-4.421253e-02	-1.886004e-01	8.552302e-02	6.711746e-03	-1.734413e-02	2.449493e-01	-1.399340e-01	1.949706e-01	2.019131e-01	1.959703e-01	2.318876e-01	9.504423e-02	-4.629979e-02	-1.589650e-02	1.399234e-02	3.679777e-02	1.121055e-01	1.008140e-01	9.376642e-02	2.028279e-01	1.828323e-01	-1.535123e-01	-1.548096e-01	2.574510e-01	2.706766e-01	1.333073e-01	2.841731e-01	2.730661e-01	-2.553930e-02	-1.125983e-01	-9.183535e-02	-7.169000e-02	-5.472499e-02	-4.000535e-02	-8.452347e-03	1.271626e-02	3.633505e-02	6.162592e-02	8.844826e-02	1.161606e-01	1.432551e-01	1.667922e-01	2.888819e-01	2.949330e-01	2.983535e-01	3.047965e-01	3.017527e-01	1.084871e-01	8.348058e-02	1.831065e-01	1.527786e-01	1.199953e-01	8.487427e-02	8.584088e-02	5.722382e-02	2.757056e-02	-5.666223e-03	-3.939684e-02	2.495071e-01	2.262535e-01	2.051310e-01	1.865133e-01	1.689203e-01	1.575000e-01	2.778281e-01	2.786246e-01	-1.490720e-01	-1.421065e-01	1.030680e-01	1.240159e-01	1.369606e-01	1.634801e-01	1.445364e-01	-1.696203e-01	-2.590643e-01	-2.543544e-01	-1.912073e-01	-8.429612e-03	-1.617256e-01	-2.498233e-01	-2.135815e-01	-2.483231e-01	-1.794309e-01	-2.306509e-01	-1.972408e-01	-1.498101e-01	-2.702826e-01	-3.139271e-01	-1.483367e-01	1.732147e-01	2.672334e-01	-1.794888e-01	4.001583e-02	-1.270734e-01	1.234972e-01	-1.175670e-01	-2.264956e-01	9.089034e-02	-5.487319e-03	1.155828e-01	9.149099e-02	-1.099140e-01	-1.284572e-01	-1.026078e-01	-7.748135e-02	-2.427905e-01	-1.522728e-01	-1.561369e-01	-1.465556e-01	2.675798e-01	1.642042e-01	1.399388e-01	5.463441e-02	-2.125426e-01	-2.221879e-01	-3.638302e-01	-8.986801e-02	-1.477663e-01	-2.572623e-01	-1.453146e-01	-2.417007e-01	-2.030213e-01	8.736526e-02	-3.012986e-01	7.320910e-02	9.837773e-02	-1.500264e-01	-3.159696e-01	-6.879829e-02	-1.611587e-01	1.563711e-01	-3.497859e-01	-2.649298e-01	2.582223e-02	-2.862344e-01	-2.682494e-01	2.003162e-01	-1.538738e-01	-1.443688e-01	1.828132e-01	2.674042e-01	1.431955e-01	-1.816520e-01	-2.122422e-01	6.880194e-02	5.088662e-02	2.974070e-02	1.403740e-02	-1.768405e-01	8.708878e-02	-2.549061e-02	-4.702465e-02	9.650980e-02	1.441613e-01	1.174818e-01	1.806716e-01	1.349502e-01	1.780716e-01	2.068369e-01	-4.883337e-02	1.162274e-01	1.045620e-01	2.114449e-01	1.976270e-01	1.266410e-01	-1.488908e-01	2.179654e-01	2.353554e-01	2.558727e-01	-1.164919e-01	-9.953897e-02	-3.465076e-02	-8.121033e-02	-6.407700e-02	-4.883466e-02	-1.942226e-02	-1.149471e-03	2.004340e-02	4.309333e-02	6.752475e-02	9.316519e-02	1.190931e-01	2.689366e-01	2.717744e-01	2.756268e-01	2.793395e-01	2.828235e-01	2.737691e-01	8.736544e-02	6.107281e-02	1.691966e-01	9.231228e-02	8.548380e-02	8.555694e-02	3.612719e-02	8.946018e-03	-2.206590e-02	-5.366022e-02	-8.498521e-02	2.306927e-01	2.067703e-01	1.857201e-01	1.663934e-01	1.473277