# vtk DataFile Version 3.0
vtk output
ASCII
DATASET UNSTRUCTURED_GRID
POINTS 200 float
9.997500e-01	-3.633641e-05	0.0	9.990000e-01	-1.457236e-04	0.0	9.977600e-01	-3.302549e-04	0.0	9.960200e-01	-6.046871e-04	0.0	9.937800e-01	-1.000008e-03	0.0	9.910500e-01	-1.566667e-03	0.0	9.878400e-01	-2.368821e-03	0.0	9.841300e-01	-3.473358e-03	0.0	9.799500e-01	-4.897493e-03	0.0	9.752800e-01	-6.610149e-03	0.0	9.701500e-01	-8.490367e-03	0.0	9.645400e-01	-1.038417e-02	0.0	9.584700e-01	-1.211927e-02	0.0	9.519400e-01	-1.357993e-02	0.0	9.449600e-01	-1.473286e-02	0.0	9.375400e-01	-1.563324e-02	0.0	9.296900e-01	-1.639608e-02	0.0	9.214000e-01	-1.715477e-02	0.0	9.127000e-01	-1.801681e-02	0.0	9.035800e-01	-1.904806e-02	0.0	8.940600e-01	-2.026085e-02	0.0	8.841500e-01	-2.162668e-02	0.0	8.738500e-01	-2.309241e-02	0.0	8.631800e-01	-2.459193e-02	0.0	8.521600e-01	-2.606206e-02	0.0	8.407700e-01	-2.745591e-02	0.0	8.290500e-01	-2.873398e-02	0.0	8.170100e-01	-2.987663e-02	0.0	8.046400e-01	-3.087962e-02	0.0	7.919700e-01	-3.174616e-02	0.0	7.790100e-01	-3.248894e-02	0.0	7.657800e-01	-3.312432e-02	0.0	7.522800e-01	-3.367096e-02	0.0	7.385200e-01	-3.414604e-02	0.0	7.245300e-01	-3.456390e-02	0.0	7.103200e-01	-3.493666e-02	0.0	6.958900e-01	-3.527354e-02	0.0	6.812700e-01	-3.558031e-02	0.0	6.664700e-01	-3.586116e-02	0.0	6.515000e-01	-3.611898e-02	0.0	6.363800e-01	-3.635595e-02	0.0	6.211300e-01	-3.657442e-02	0.0	6.057600e-01	-3.677748e-02	0.0	5.902800e-01	-3.696907e-02	0.0	5.747100e-01	-3.715392e-02	0.0	5.590600e-01	-3.733765e-02	0.0	5.433600e-01	-3.752614e-02	0.0	5.276100e-01	-3.772573e-02	0.0	5.118400e-01	-3.794205e-02	0.0	4.960500e-01	-3.818039e-02	0.0	4.802700e-01	-3.844450e-02	0.0	4.645100e-01	-3.873697e-02	0.0	4.487800e-01	-3.905883e-02	0.0	4.331100e-01	-3.940891e-02	0.0	4.175000e-01	-3.978495e-02	0.0	4.019700e-01	-4.018255e-02	0.0	3.865400e-01	-4.059580e-02	0.0	3.712300e-01	-4.101742e-02	0.0	3.560400e-01	-4.143967e-02	0.0	3.409900e-01	-4.185344e-02	0.0	3.261100e-01	-4.224886e-02	0.0	3.114000e-01	-4.261660e-02	0.0	2.968700e-01	-4.294706e-02	0.0	2.825500e-01	-4.323036e-02	0.0	2.684500e-01	-4.345755e-02	0.0	2.545700e-01	-4.362022e-02	0.0	2.409400e-01	-4.371018e-02	0.0	2.275700e-01	-4.372029e-02	0.0	2.144700e-01	-4.364406e-02	0.0	2.016600e-01	-4.347585e-02	0.0	1.891400e-01	-4.321054e-02	0.0	1.769300e-01	-4.284406e-02	0.0	1.650400e-01	-4.237293e-02	0.0	1.534900e-01	-4.179494e-02	0.0	1.422900e-01	-4.110840e-02	0.0	1.314400e-01	-4.031157e-02	0.0	1.209500e-01	-3.940393e-02	0.0	1.108500e-01	-3.838794e-02	0.0	1.011300e-01	-3.726317e-02	0.0	9.181000e-02	-3.603315e-02	0.0	8.290000e-02	-3.470149e-02	0.0	7.440000e-02	-3.327117e-02	0.0	6.633000e-02	-3.174950e-02	0.0	5.869000e-02	-3.014144e-02	0.0	5.149000e-02	-2.845479e-02	0.0	4.474000e-02	-2.669858e-02	0.0	3.844000e-02	-2.488015e-02	0.0	3.260000e-02	-2.301019e-02	0.0	2.723000e-02	-2.110055e-02	0.0	2.232000e-02	-1.915581e-02	0.0	1.790000e-02	-1.719649e-02	0.0	1.395000e-02	-1.522160e-02	0.0	1.049000e-02	-1.324707e-02	0.0	7.520000e-03	-1.127782e-02	0.0	5.040000e-03	-9.314496e-03	0.0	3.050000e-03	-7.350420e-03	0.0	1.560000e-03	-5.380759e-03	0.0	5.600000e-04	-3.354116e-03	0.0	6.000000e-05	-1.187598e-03	0.0	0.000000e+00	0.000000e+00	0.0	6.000000e-05	1.145475e-03	0.0	5.600000e-04	3.137790e-03	0.0	1.560000e-03	4.912331e-03	0.0	3.050000e-03	6.568920e-03	0.0	5.040000e-03	8.167157e-03	0.0	7.520000e-03	9.723386e-03	0.0	1.049000e-02	1.125362e-02	0.0	1.395000e-02	1.276672e-02	0.0	1.790000e-02	1.426735e-02	0.0	2.232000e-02	1.575113e-02	0.0	2.723000e-02	1.722591e-02	0.0	3.260000e-02	1.868264e-02	0.0	3.844000e-02	2.012375e-02	0.0	4.474000e-02	2.154560e-02	0.0	5.149000e-02	2.294472e-02	0.0	5.869000e-02	2.431972e-02	0.0	6.633000e-02	2.566720e-02	0.0	7.440000e-02	2.698407e-02	0.0	8.290000e-02	2.826902e-02	0.0	9.181000e-02	2.951794e-02	0.0	1.011300e-01	3.072996e-02	0.0	1.108500e-01	3.190299e-02	0.0	1.209500e-01	3.303416e-02	0.0	1.314400e-01	3.412424e-02	0.0	1.422900e-01	3.516994e-02	0.0	1.534900e-01	3.617051e-02	0.0	1.650400e-01	3.712622e-02	0.0	1.769300e-01	3.803653e-02	0.0	1.891400e-01	3.890038e-02	0.0	2.016600e-01	3.971767e-02	0.0	2.144700e-01	4.048778e-02	0.0	2.275700e-01	4.121137e-02	0.0	2.409400e-01	4.188788e-02	0.0	2.545700e-01	4.251727e-02	0.0	2.684500e-01	4.309932e-02	0.0	2.825500e-01	4.363291e-02	0.0	2.968700e-01	4.411790e-02	0.0	3.114000e-01	4.455341e-02	0.0	3.261100e-01	4.493771e-02	0.0	3.409900e-01	4.526943e-02	0.0	3.560400e-01	4.554700e-02	0.0	3.712300e-01	4.576793e-02	0.0	3.865400e-01	4.592980e-02	0.0	4.019700e-01	4.603012e-02	0.0	4.175000e-01	4.606597e-02	0.0	4.331100e-01	4.603434e-02	0.0	4.487800e-01	4.593222e-02	0.0	4.645100e-01	4.575639e-02	0.0	4.802700e-01	4.550383e-02	0.0	4.960500e-01	4.517137e-02	0.0	5.118400e-01	4.475579e-02	0.0	5.276100e-01	4.425448e-02	0.0	5.433600e-01	4.366412e-02	0.0	5.590600e-01	4.298266e-02	0.0	5.747100e-01	4.220719e-02	0.0	5.902800e-01	4.133675e-02	0.0	6.057600e-01	4.037033e-02	0.0	6.211300e-01	3.930866e-02	0.0	6.363800e-01	3.815334e-02	0.0	6.515000e-01	3.690777e-02	0.0	6.664700e-01	3.557834e-02	0.0	6.812700e-01	3.417394e-02	0.0	6.958900e-01	3.270497e-02	0.0	7.103200e-01	3.118377e-02	0.0	7.245300e-01	2.962640e-02	0.0	7.385200e-01	2.804632e-02	0.0	7.522800e-01	2.645763e-02	0.0	7.657800e-01	2.487516e-02	0.0	7.790100e-01	2.330881e-02	0.0	7.919700e-01	2.176378e-02	0.0	8.046400e-01	2.024385e-02	0.0	8.170100e-01	1.874790e-02	0.0	8.290500e-01	1.727418e-02	0.0	8.407700e-01	1.581388e-02	0.0	8.521600e-01	1.435922e-02	0.0	8.631800e-01	1.290580e-02	0.0	8.738500e-01	1.144135e-02	0.0	8.841500e-01	9.959740e-03	0.0	8.940600e-01	8.458187e-03	0.0	9.035800e-01	6.938470e-03	0.0	9.127000e-01	5.418010e-03	0.0	9.214000e-01	3.937669e-03	0.0	9.296900e-01	2.559300e-03	0.0	9.375400e-01	1.373351e-03	0.0	9.449600e-01	4.695486e-04	0.0	9.519400e-01	-8.045639e-05	0.0	9.584700e-01	-2.567640e-04	0.0	9.645400e-01	-1.098048e-04	0.0	9.701500e-01	2.462028e-04	0.0	9.752800e-01	6.630127e-04	0.0	9.799500e-01	1.007044e-03	0.0	9.841300e-01	1.190295e-03	0.0	9.878400e-01	1.191927e-03	0.0	9.910500e-01	1.044878e-03	0.0	9.937800e-01	8.101748e-04	0.0	9.960200e-01	5.519494e-04	0.0	9.977600e-01	3.204640e-04	0.0	9.990000e-01	1.448296e-04	0.0	9.997500e-01	3.632224e-05	0.0	1.000000e+00	0.000000e+00	0.0	
CELLS 200	600
2	199	0	2	0	1	2	1	2	2	2	3	2	3	4	2	4	5	2	5	6	2	6	7	2	7	8	2	8	9	2	9	10	2	10	11	2	11	12	2	12	13	2	13	14	2	14	15	2	15	16	2	16	17	2	17	18	2	18	19	2	19	20	2	20	21	2	21	22	2	22	23	2	23	24	2	24	25	2	25	26	2	26	27	2	27	28	2	28	29	2	29	30	2	30	31	2	31	32	2	32	33	2	33	34	2	34	35	2	35	36	2	36	37	2	37	38	2	38	39	2	39	40	2	40	41	2	41	42	2	42	43	2	43	44	2	44	45	2	45	46	2	46	47	2	47	48	2	48	49	2	49	50	2	50	51	2	51	52	2	52	53	2	53	54	2	54	55	2	55	56	2	56	57	2	57	58	2	58	59	2	59	60	2	60	61	2	61	62	2	62	63	2	63	64	2	64	65	2	65	66	2	66	67	2	67	68	2	68	69	2	69	70	2	70	71	2	71	72	2	72	73	2	73	74	2	74	75	2	75	76	2	76	77	2	77	78	2	78	79	2	79	80	2	80	81	2	81	82	2	82	83	2	83	84	2	84	85	2	85	86	2	86	87	2	87	88	2	88	89	2	89	90	2	90	91	2	91	92	2	92	93	2	93	94	2	94	95	2	95	96	2	96	97	2	97	98	2	98	99	2	99	100	2	100	101	2	101	102	2	102	103	2	103	104	2	104	105	2	105	106	2	106	107	2	107	108	2	108	109	2	109	110	2	110	111	2	111	112	2	112	113	2	113	114	2	114	115	2	115	116	2	116	117	2	117	118	2	118	119	2	119	120	2	120	121	2	121	122	2	122	123	2	123	124	2	124	125	2	125	126	2	126	127	2	127	128	2	128	129	2	129	130	2	130	131	2	131	132	2	132	133	2	133	134	2	134	135	2	135	136	2	136	137	2	137	138	2	138	139	2	139	140	2	140	141	2	141	142	2	142	143	2	143	144	2	144	145	2	145	146	2	146	147	2	147	148	2	148	149	2	149	150	2	150	151	2	151	152	2	152	153	2	153	154	2	154	155	2	155	156	2	156	157	2	157	158	2	158	159	2	159	160	2	160	161	2	161	162	2	162	163	2	163	164	2	164	165	2	165	166	2	166	167	2	167	168	2	168	169	2	169	170	2	170	171	2	171	172	2	172	173	2	173	174	2	174	175	2	175	176	2	176	177	2	177	178	2	178	179	2	179	180	2	180	181	2	181	182	2	182	183	2	183	184	2	184	185	2	185	186	2	186	187	2	187	188	2	188	189	2	189	190	2	190	191	2	191	192	2	192	193	2	193	194	2	194	195	2	195	196	2	196	197	2	197	198	2	198	199	
CELL_TYPES 200
3	3	3	3	3	3	3	3	3	3	3	3	3	3	3	3	3	3	3	3	3	3	3	3	3	3	3	3	3	3	3	3	3	3	3	3	3	3	3	3	3	3	3	3	3	3	3	3	3	3	3	3	3	3	3	3	3	3	3	3	3	3	3	3	3	3	3	3	3	3	3	3	3	3	3	3	3	3	3	3	3	3	3	3	3	3	3	3	3	3	3	3	3	3	3	3	3	3	3	3	3	3	3	3	3	3	3	3	3	3	3	3	3	3	3	3	3	3	3	3	3	3	3	3	3	3	3	3	3	3	3	3	3	3	3	3	3	3	3	3	3	3	3	3	3	3	3	3	3	3	3	3	3	3	3	3	3	3	3	3	3	3	3	3	3	3	3	3	3	3	3	3	3	3	3	3	3	3	3	3	3	3	3	3	3	3	3	3	3	3	3	3	3	3	3	3	3	3	3	3	
POINT_DATA 200

SCALARS Conservative_1 float 1
LOOKUP_TABLE default
-3.107109e-01	-2.717852e-01	-2.691262e-01	-2.676436e-01	-2.664476e-01	-2.627703e-01	-2.515899e-01	-2.284787e-01	-1.889307e-01	-1.285795e-01	-4.544435e-02	5.909120e-02	1.760803e-01	2.698180e-01	2.796591e-01	1.976896e-01	9.895802e-02	4.007583e-02	1.657682e-02	1.267356e-02	2.347103e-02	4.714471e-02	8.056734e-02	1.201234e-01	1.625168e-01	2.060089e-01	2.504399e-01	2.927719e-01	3.233028e-01	3.290211e-01	3.057894e-01	2.658645e-01	2.275031e-01	2.000146e-01	1.817965e-01	1.678603e-01	1.553647e-01	1.440442e-01	1.341517e-01	1.255044e-01	1.175488e-01	1.099653e-01	1.026158e-01	9.555758e-02	8.883442e-02	8.259361e-02	7.697011e-02	7.213684e-02	6.825404e-02	6.547085e-02	6.391229e-02	6.366715e-02	6.479008e-02	6.731005e-02	7.126836e-02	7.663906e-02	8.342990e-02	9.158186e-02	1.010825e-01	1.118608e-01	1.238926e-01	1.370663e-01	1.513824e-01	1.667800e-01	1.831825e-01	2.001098e-01	2.169186e-01	2.330550e-01	2.491597e-01	2.670574e-01	2.898394e-01	3.202630e-01	3.574825e-01	3.924448e-01	4.088702e-01	3.944993e-01	3.530874e-01	3.034583e-01	2.639848e-01	2.385396e-01	2.181094e-01	1.935849e-01	1.636114e-01	1.312295e-01	9.815497e-02	6.408926e-02	2.848262e-02	-8.562099e-03	-4.709850e-02	-8.718003e-02	-1.292314e-01	-1.734999e-01	-2.210785e-01	-2.718586e-01	-3.276441e-01	-3.857897e-01	-4.396090e-01	-4.815045e-01	-5.029773e-01	-4.848597e-01	-4.404093e-01	-3.425153e-01	-1.926051e-01	-5.497713e-02	4.690872e-02	1.161318e-01	1.609869e-01	1.917771e-01	2.145382e-01	2.325382e-01	2.478141e-01	2.617930e-01	2.758268e-01	2.898263e-01	3.016901e-01	3.091546e-01	3.125981e-01	3.162918e-01	3.260554e-01	3.447488e-01	3.695719e-01	3.934405e-01	4.094756e-01	4.149283e-01	4.114908e-01	4.030182e-01	3.929162e-01	3.830023e-01	3.739377e-01	3.658524e-01	3.588286e-01	3.528953e-01	3.479933e-01	3.440659e-01	3.409207e-01	3.384045e-01	3.363154e-01	3.346867e-01	3.336154e-01	3.332842e-01	3.336261e-01	3.342919e-01	3.346025e-01	3.337413e-01	3.309635e-01	3.258802e-01	3.186385e-01	3.099865e-01	3.009952e-01	2.923153e-01	2.838132e-01	2.748506e-01	2.646919e-01	2.530444e-01	2.400137e-01	2.257385e-01	2.102930e-01	1.937611e-01	1.762527e-01	1.578774e-01	1.389358e-01	1.196777e-01	1.004718e-01	8.165076e-02	6.359302e-02	4.659290e-02	3.094883e-02	1.681497e-02	4.274871e-03	-6.788685e-03	-1.657343e-02	-2.543632e-02	-3.375152e-02	-4.200542e-02	-5.070937e-02	-6.029191e-02	-7.150109e-02	-8.502387e-02	-1.016816e-01	-1.220381e-01	-1.459995e-01	-1.724027e-01	-1.989760e-01	-2.226175e-01	-2.401339e-01	-2.486298e-01	-2.457456e-01	-2.297921e-01	-2.003476e-01	-1.594429e-01	-1.142473e-01	-7.883057e-02	-6.673665e-02	-8.050051e-02	-1.112153e-01	-1.468513e-01	-1.810513e-01	-2.104012e-01	-2.304460e-01	-2.842785e-01	
SCALARS Conservative_2 float 1
LOOKUP_TABLE default
3.947588e-01	3.529420e-01	3.609213e-01	3.652912e-01	3.683732e-01	3.683070e-01	3.581320e-01	3.316181e-01	2.829000e-01	2.070254e-01	1.028876e-01	-2.379522e-02	-1.590248e-01	-2.673099e-01	-2.884374e-01	-2.076285e-01	-1.007405e-01	-3.398327e-02	-5.778693e-03	5.819393e-04	-1.004091e-02	-3.567000e-02	-7.244305e-02	-1.159336e-01	-1.621572e-01	-2.087813e-01	-2.553273e-01	-2.989361e-01	-3.304604e-01	-3.372304e-01	-3.147833e-01	-2.749196e-01	-2.360405e-01	-2.079136e-01	-1.891080e-01	-1.745921e-01	-1.614621e-01	-1.494937e-01	-1.389827e-01	-1.297563e-01	-1.212279e-01	-1.130611e-01	-1.051081e-01	-9.743662e-02	-9.009554e-02	-8.325514e-02	-7.706485e-02	-7.173035e-02	-6.743157e-02	-6.434477e-02	-6.261430e-02	-6.234704e-02	-6.360400e-02	-6.641853e-02	-7.082856e-02	-7.680108e-02	-8.432708e-02	-9.333113e-02	-1.037768e-01	-1.155706e-01	-1.286581e-01	-1.429031e-01	-1.582656e-01	-1.746571e-01	-1.919624e-01	-2.096896e-01	-2.271524e-01	-2.437602e-01	-2.600697e-01	-2.778451e-01	-3.000190e-01	-3.292250e-01	-3.646525e-01	-3.976378e-01	-4.124535e-01	-3.971171e-01	-3.550698e-01	-3.043950e-01	-2.629683e-01	-2.346730e-01	-2.106851e-01	-1.818632e-01	-1.466173e-01	-1.078048e-01	-6.702556e-02	-2.380473e-02	2.265968e-02	7.254922e-02	1.263076e-01	1.844941e-01	2.482748e-01	3.187837e-01	3.988362e-01	4.896583e-01	5.959438e-01	7.151167e-01	8.424330e-01	9.501169e-01	9.985400e-01	9.913847e-01	9.306628e-01	7.789805e-01	5.198179e-01	2.946059e-01	1.234798e-01	6.235600e-03	-7.225688e-02	-1.271626e-01	-1.674650e-01	-1.985965e-01	-2.239586e-01	-2.458267e-01	-2.661321e-01	-2.851809e-01	-3.012243e-01	-3.122717e-01	-3.188419e-01	-3.251796e-01	-3.370068e-01	-3.571713e-01	-3.830205e-01	-4.077448e-01	-4.247022e-01	-4.312275e-01	-4.289543e-01	-4.216321e-01	-4.125814e-01	-4.036023e-01	-3.953519e-01	-3.879769e-01	-3.815674e-01	-3.761553e-01	-3.717004e-01	-3.681440e-01	-3.653178e-01	-3.630653e-01	-3.612032e-01	-3.597565e-01	-3.588357e-01	-3.586236e-01	-3.590680e-01	-3.598202e-01	-3.601962e-01	-3.593799e-01	-3.566318e-01	-3.515693e-01	-3.443331e-01	-3.356561e-01	-3.265843e-01	-3.177515e-01	-3.090286e-01	-2.997541e-01	-2.891776e-01	-2.769833e-01	-2.632617e-01	-2.481330e-01	-2.316489e-01	-2.138746e-01	-1.948942e-01	-1.748282e-01	-1.539631e-01	-1.325827e-01	-1.110797e-01	-8.984952e-02	-6.932328e-02	-4.987220e-02	-3.185322e-02	-1.548254e-02	-8.671643e-04	1.210591e-02	2.367097e-02	3.424704e-02	4.429610e-02	5.442134e-02	6.525393e-02	7.738018e-02	9.174623e-02	1.092992e-01	1.311525e-01	1.581250e-01	1.901608e-01	2.257693e-01	2.618562e-01	2.940355e-01	3.176026e-01	3.281855e-01	3.222699e-01	2.975687e-01	2.539995e-01	1.952592e-01	1.321555e-01	8.378715e-02	6.689766e-02	8.364812e-02	1.223761e-01	1.672837e-01	2.079353e-01	2.341666e-01	2.319938e-01	2.682637e-01	
SCALARS Conservative_3 float 1
LOOKUP_TABLE default
-9.498034e-02	-9.136174e-02	-8.327063e-02	-8.853169e-02	-1.020650e-01	-1.247012e-01	-1.559778e-01	-1.936991e-01	-2.342355e-01	-2.717136e-01	-2.978135e-01	-3.035403e-01	-2.804162e-01	-2.250486e-01	-1.558171e-01	-1.050456e-01	-8.301718e-02	-7.904685e-02	-8.588005e-02	-9.897242e-02	-1.130158e-01	-1.242925e-01	-1.308908e-01	-1.320085e-01	-1.277587e-01	-1.190751e-01	-1.070095e-01	-9.222583e-02	-7.573531e-02	-5.947052e-02	-4.542378e-02	-3.424206e-02	-2.519908e-02	-1.770449e-02	-1.170097e-02	-7.211760e-03	-3.839585e-03	-1.143988e-03	1.196335e-03	3.244935e-03	5.036327e-03	6.524917e-03	7.713635e-03	8.532544e-03	8.965392e-03	8.958640e-03	8.519425e-03	7.653285e-03	6.404086e-03	4.829892e-03	3.009162e-03	1.027967e-03	-1.016536e-03	-3.016086e-03	-4.875237e-03	-6.477435e-03	-7.733883e-03	-8.537943e-03	-8.813053e-03	-8.459535e-03	-7.418330e-03	-5.604850e-03	-2.972462e-03	5.580101e-04	5.056427e-03	1.061843e-02	1.723166e-02	2.485257e-02	3.335815e-02	4.292317e-02	5.393069e-02	6.694653e-02	8.259036e-02	1.006103e-01	1.191885e-01	1.357411e-01	1.492867e-01	1.618352e-01	1.764776e-01	1.943662e-01	2.137791e-01	2.324887e-01	2.500802e-01	2.673271e-01	2.846211e-01	3.016401e-01	3.180061e-01	3.335635e-01	3.481558e-01	3.614720e-01	3.730629e-01	3.818768e-01	3.864347e-01	3.833593e-01	3.666214e-01	3.258923e-01	2.425617e-01	1.153088e-01	-3.343647e-02	-1.356933e-01	-2.474317e-01	-4.454662e-01	-5.890145e-01	-6.161031e-01	-5.855391e-01	-5.351210e-01	-4.822574e-01	-4.342868e-01	-3.928244e-01	-3.570911e-01	-3.262370e-01	-2.994685e-01	-2.762242e-01	-2.557776e-01	-2.369974e-01	-2.189315e-01	-2.014719e-01	-1.854316e-01	-1.718198e-01	-1.608163e-01	-1.515198e-01	-1.424900e-01	-1.326976e-01	-1.220432e-01	-1.110785e-01	-1.004534e-01	-9.053509e-02	-8.136709e-02	-7.287967e-02	-6.500503e-02	-5.767228e-02	-5.083204e-02	-4.440660e-02	-3.832780e-02	-3.253828e-02	-2.695257e-02	-2.153485e-02	-1.623192e-02	-1.102137e-02	-5.836123e-03	-6.286976e-04	4.661007e-03	1.007182e-02	1.565014e-02	2.142441e-02	2.742298e-02	3.363131e-02	3.999700e-02	4.647204e-02	5.304842e-02	5.978507e-02	6.672837e-02	7.385838e-02	8.110560e-02	8.837994e-02	9.563910e-02	1.027985e-01	1.097582e-01	1.163746e-01	1.224831e-01	1.279468e-01	1.326225e-01	1.363874e-01	1.391840e-01	1.410003e-01	1.419064e-01	1.420391e-01	1.416079e-01	1.408593e-01	1.400678e-01	1.394953e-01	1.393721e-01	1.398820e-01	1.411279e-01	1.431565e-01	1.460075e-01	1.495270e-01	1.534796e-01	1.572272e-01	1.595866e-01	1.587970e-01	1.527882e-01	1.398252e-01	1.191283e-01	9.132422e-02	5.841721e-02	2.373503e-02	-8.178240e-03	-3.155858e-02	-4.014916e-02	-2.894163e-02	2.213240e-03	4.446304e-02	8.468754e-02	1.136662e-01	1.304588e-01	1.388694e-01	1.451744e-01	1.540473e-01	1.093535e-01	
SCALARS Conservative_4 float 1
LOOKUP_TABLE default
-8.963730e-02	-6.865582e-02	-6.829257e-02	-6.809690e-02	-6.752933e-02	-6.657227e-02	-6.371083e-02	-5.782132e-02	-4.780277e-02	-3.254162e-02	-1.142989e-02	1.523926e-02	4.505620e-02	6.884513e-02	7.132588e-02	5.014864e-02	2.468868e-02	9.836695e-03	3.989664e-03	2.946204e-03	5.646995e-03	1.166003e-02	2.016862e-02	3.023095e-02	4.102248e-02	5.209281e-02	6.331398e-02	7.387309e-02	8.129903e-02	8.245343e-02	7.649785e-02	6.653359e-02	5.702133e-02	5.022065e-02	4.567378e-02	4.216564e-02	3.901521e-02	3.616841e-02	3.368614e-02	3.151352e-02	2.951628e-02	2.760917e-02	2.576432e-02	2.399056e-02	2.230431e-02	2.073796e-02	1.932762e-02	1.811820e-02	1.714768e-02	1.645588e-02	1.607033e-02	1.601648e-02	1.630742e-02	1.695372e-02	1.796003e-02	1.932903e-02	2.105175e-02	2.312391e-02	2.553168e-02	2.826845e-02	3.131519e-02	3.465995e-02	3.828363e-02	4.218854e-02	4.633036e-02	5.061155e-02	5.485028e-02	5.895180e-02	6.305419e-02	6.767281e-02	7.353156e-02	8.128238e-02	9.058690e-02	9.911536e-02	1.028795e-01	9.899462e-02	8.856558e-02	7.623780e-02	6.645372e-02	6.008338e-02	5.488404e-02	4.864241e-02	4.105597e-02	3.288896e-02	2.457296e-02	1.601144e-02	7.084234e-03	-2.189306e-03	-1.179233e-02	-2.176887e-02	-3.210799e-02	-4.299227e-02	-5.439504e-02	-6.652329e-02	-7.921165e-02	-9.208328e-02	-1.044522e-01	-1.114213e-01	-1.093964e-01	-1.065592e-01	-1.007589e-01	-7.319665e-02	-3.703509e-02	-7.129738e-03	1.531903e-02	3.064827e-02	4.104229e-02	4.836266e-02	5.395156e-02	5.838836e-02	6.222488e-02	6.573254e-02	6.926755e-02	7.280925e-02	7.584699e-02	7.780476e-02	7.875507e-02	7.972183e-02	8.214285e-02	8.676788e-02	9.295372e-02	9.897494e-02	1.031046e-01	1.046067e-01	1.038550e-01	1.017969e-01	9.928432e-02	9.680015e-02	9.450971e-02	9.246311e-02	9.068351e-02	8.917403e-02	8.793315e-02	8.692931e-02	8.613398e-02	8.548940e-02	8.496177e-02	8.454202e-02	8.426829e-02	8.417378e-02	8.425124e-02	8.440917e-02	8.447887e-02	8.425864e-02	8.356392e-02	8.229629e-02	8.047960e-02	7.829955e-02	7.602021e-02	7.380976e-02	7.166154e-02	6.939473e-02	6.682759e-02	6.388438e-02	6.059264e-02	5.699623e-02	5.310781e-02	4.894276e-02	4.451214e-02	3.987859e-02	3.508474e-02	3.022102e-02	2.535610e-02	2.059812e-02	1.602196e-02	1.172433e-02	7.761141e-03	4.193650e-03	1.019323e-03	-1.770618e-03	-4.242629e-03	-6.470339e-03	-8.556383e-03	-1.062806e-02	-1.278599e-02	-1.519062e-02	-1.798826e-02	-2.138476e-02	-2.558671e-02	-3.075971e-02	-3.686992e-02	-4.361788e-02	-5.038971e-02	-5.639442e-02	-6.081417e-02	-6.291987e-02	-6.210486e-02	-5.792028e-02	-5.024188e-02	-3.957191e-02	-2.785268e-02	-1.892243e-02	-1.611461e-02	-1.980554e-02	-2.741061e-02	-3.606094e-02	-4.416314e-02	-4.999120e-02	-5.144618e-02	-7.612639e-02	
SCALARS Surface_Sensitivity float 1
LOOKUP_TABLE default
4.489380e+01	-8.440425e+01	-3.272440e+00	-1.863072e+00	-6.808170e-01	2.413225e-01	5.008799e-01	7.824174e-01	7.991571e-01	6.355081e-01	3.598033e+00	5.886058e+00	-3.714481e+00	-1.271959e+01	-5.531471e+00	4.050635e+00	4.385617e+00	9.921162e-01	-1.467597e-01	1.512508e-01	2.519553e-01	3.854280e-02	-1.770796e-01	1.940391e-01	1.439260e+00	1.961850e+00	6.137955e-03	-2.820030e+00	-3.603934e+00	-1.775078e+00	6.936091e-01	1.751086e+00	1.255260e+00	3.680635e-01	-7.641265e-02	-7.145804e-02	4.484200e-02	7.753697e-02	4.811876e-02	1.999860e-02	1.630813e-02	1.923444e-02	2.174531e-02	2.118759e-02	2.258298e-02	2.317275e-02	2.388830e-02	2.290638e-02	2.114028e-02	1.853099e-02	1.678848e-02	1.494184e-02	1.394875e-02	1.327867e-02	1.315836e-02	1.545146e-02	1.939953e-02	2.240205e-02	1.673399e-02	6.523073e-03	1.558755e-02	7.263652e-02	1.226820e-01	2.034239e-02	-2.676326e-01	-3.737474e-01	3.277569e-01	2.027284e+00	3.495065e+00	2.751609e+00	-4.107111e-01	-4.142839e+00	-6.449839e+00	-5.941939e+00	-2.553159e+00	1.878230e+00	4.564105e+00	4.054707e+00	1.501868e+00	-6.239298e-01	-9.987516e-01	-3.002473e-01	2.171991e-01	2.212731e-01	8.521851e-02	8.173740e-02	1.671578e-01	2.433916e-01	3.424104e-01	5.422330e-01	8.553790e-01	1.373750e+00	2.384266e+00	3.949418e+00	6.079614e+00	8.630437e+00	6.847842e+00	1.750780e+01	1.194426e+01	-1.069958e+01	4.094669e+01	4.553459e+01	2.893175e+01	1.637951e+01	6.347059e+00	3.185856e+00	1.924979e+00	8.945456e-01	2.575286e-01	-5.524640e-02	-8.661601e-02	1.244859e-01	4.057881e-01	3.239998e-01	-3.118456e-01	-1.158618e+00	-1.470793e+00	-6.893909e-01	9.521079e-01	2.535540e+00	3.112639e+00	2.367791e+00	7.854920e-01	-7.943194e-01	-1.778107e+00	-2.083935e+00	-1.985380e+00	-1.739036e+00	-1.446612e+00	-1.117855e+00	-7.827426e-01	-4.831248e-01	-2.248175e-01	3.898399e-02	3.857192e-01	8.551060e-01	1.388325e+00	1.782279e+00	1.801371e+00	1.387685e+00	7.227733e-01	3.802334e-02	-5.126124e-01	-8.665887e-01	-1.021418e+00	-9.889679e-01	-7.684909e-01	-3.827923e-01	5.772830e-02	3.625264e-01	4.115227e-01	2.605615e-01	7.972806e-02	-1.298963e-02	-3.127885e-02	-3.791361e-02	-4.499383e-02	-3.571163e-02	-1.504607e-02	4.058097e-03	8.806720e-03	6.382871e-03	2.185542e-03	-8.162465e-04	-2.385780e-03	-2.104238e-04	3.823950e-03	9.028572e-03	1.526578e-02	1.880503e-02	1.974605e-02	1.997064e-02	1.609796e-02	1.384268e-02	1.454454e-02	6.923036e-03	-6.650155e-03	-3.989726e-02	-9.015876e-02	-1.479354e-01	-1.927562e-01	-2.114242e-01	-1.821008e-01	-1.025100e-01	2.068543e-02	1.790906e-01	3.814782e-01	6.179461e-01	9.046098e-01	1.211030e+00	8.601691e-01	-6.390725e-01	-1.871765e+00	-1.285508e+00	3.696675e-01	8.137493e-01	6.731384e-01	5.807790e+00	-2.313470e+02	4.301014e+02	