# vtk DataFile Version 3.0
vtk output
ASCII
DATASET UNSTRUCTURED_GRID
POINTS 5233 float
9.997500e-01	-3.633243e-05	0.0	9.990000e-01	-1.454723e-04	0.0	9.977600e-01	-3.275074e-04	0.0	9.960200e-01	-5.899275e-04	0.0	9.937800e-01	-9.470961e-04	0.0	9.910500e-01	-1.422100e-03	0.0	9.878400e-01	-2.045526e-03	0.0	9.841300e-01	-2.853692e-03	0.0	9.799500e-01	-3.858915e-03	0.0	9.752800e-01	-5.058355e-03	0.0	9.701500e-01	-6.405193e-03	0.0	9.645400e-01	-7.840955e-03	0.0	9.584700e-01	-9.290302e-03	0.0	9.519400e-01	-1.069788e-02	0.0	9.449600e-01	-1.203573e-02	0.0	9.375400e-01	-1.330825e-02	0.0	9.296900e-01	-1.454276e-02	0.0	9.214000e-01	-1.577754e-02	0.0	9.127000e-01	-1.703983e-02	0.0	9.035800e-01	-1.835068e-02	0.0	8.940600e-01	-1.971372e-02	0.0	8.841500e-01	-2.112434e-02	0.0	8.738500e-01	-2.257435e-02	0.0	8.631800e-01	-2.405163e-02	0.0	8.521600e-01	-2.554553e-02	0.0	8.407700e-01	-2.705290e-02	0.0	8.290500e-01	-2.856448e-02	0.0	8.170100e-01	-3.007643e-02	0.0	8.046400e-01	-3.158794e-02	0.0	7.919700e-01	-3.309335e-02	0.0	7.790100e-01	-3.458939e-02	0.0	7.657800e-01	-3.607145e-02	0.0	7.522800e-01	-3.753697e-02	0.0	7.385200e-01	-3.898211e-02	0.0	7.245300e-01	-4.040099e-02	0.0	7.103200e-01	-4.178999e-02	0.0	6.958900e-01	-4.314654e-02	0.0	6.812700e-01	-4.446544e-02	0.0	6.664700e-01	-4.574371e-02	0.0	6.515000e-01	-4.697855e-02	0.0	6.363800e-01	-4.816666e-02	0.0	6.211300e-01	-4.930514e-02	0.0	6.057600e-01	-5.039211e-02	0.0	5.902800e-01	-5.142595e-02	0.0	5.747100e-01	-5.240461e-02	0.0	5.590600e-01	-5.332692e-02	0.0	5.433600e-01	-5.419079e-02	0.0	5.276100e-01	-5.499603e-02	0.0	5.118400e-01	-5.574100e-02	0.0	4.960500e-01	-5.642564e-02	0.0	4.802700e-01	-5.704860e-02	0.0	4.645100e-01	-5.760950e-02	0.0	4.487800e-01	-5.810785e-02	0.0	4.331100e-01	-5.854260e-02	0.0	4.175000e-01	-5.891350e-02	0.0	4.019700e-01	-5.921967e-02	0.0	3.865400e-01	-5.946021e-02	0.0	3.712300e-01	-5.963424e-02	0.0	3.560400e-01	-5.974096e-02	0.0	3.409900e-01	-5.977922e-02	0.0	3.261100e-01	-5.974792e-02	0.0	3.114000e-01	-5.964591e-02	0.0	2.968700e-01	-5.947182e-02	0.0	2.825500e-01	-5.922456e-02	0.0	2.684500e-01	-5.890284e-02	0.0	2.545700e-01	-5.850499e-02	0.0	2.409400e-01	-5.803014e-02	0.0	2.275700e-01	-5.747701e-02	0.0	2.144700e-01	-5.684431e-02	0.0	2.016600e-01	-5.613136e-02	0.0	1.891400e-01	-5.533648e-02	0.0	1.769300e-01	-5.445925e-02	0.0	1.650400e-01	-5.349882e-02	0.0	1.534900e-01	-5.245543e-02	0.0	1.422900e-01	-5.132880e-02	0.0	1.314400e-01	-5.011766e-02	0.0	1.209500e-01	-4.882176e-02	0.0	1.108500e-01	-4.744390e-02	0.0	1.011300e-01	-4.598189e-02	0.0	9.181000e-02	-4.443785e-02	0.0	8.290000e-02	-4.281291e-02	0.0	7.440000e-02	-4.110641e-02	0.0	6.633000e-02	-3.932189e-02	0.0	5.869000e-02	-3.745907e-02	0.0	5.149000e-02	-3.551994e-02	0.0	4.474000e-02	-3.350705e-02	0.0	3.844000e-02	-3.142007e-02	0.0	3.260000e-02	-2.926186e-02	0.0	2.723000e-02	-2.703610e-02	0.0	2.232000e-02	-2.473776e-02	0.0	1.790000e-02	-2.238083e-02	0.0	1.395000e-02	-1.995450e-02	0.0	1.049000e-02	-1.747003e-02	0.0	7.520000e-03	-1.492833e-02	0.0	5.040000e-03	-1.232957e-02	0.0	3.050000e-03	-9.672232e-03	0.0	1.560000e-03	-6.971543e-03	0.0	5.600000e-04	-4.206360e-03	0.0	6.000000e-05	-1.384040e-03	0.0	0.000000e+00	0.000000e+00	0.0	6.000000e-05	1.263750e-03	0.0	5.600000e-04	3.625103e-03	0.0	1.560000e-03	5.788960e-03	0.0	3.050000e-03	7.807065e-03	0.0	5.040000e-03	9.724434e-03	0.0	7.520000e-03	1.154882e-02	0.0	1.049000e-02	1.329520e-02	0.0	1.395000e-02	1.497409e-02	0.0	1.790000e-02	1.659341e-02	0.0	2.232000e-02	1.815277e-02	0.0	2.723000e-02	1.966532e-02	0.0	3.260000e-02	2.112693e-02	0.0	3.844000e-02	2.254530e-02	0.0	4.474000e-02	2.392178e-02	0.0	5.149000e-02	2.525777e-02	0.0	5.869000e-02	2.655627e-02	0.0	6.633000e-02	2.781802e-02	0.0	7.440000e-02	2.904368e-02	0.0	8.290000e-02	3.023516e-02	0.0	9.181000e-02	3.139137e-02	0.0	1.011300e-01	3.251381e-02	0.0	1.108500e-01	3.360245e-02	0.0	1.209500e-01	3.465617e-02	0.0	1.314400e-01	3.567682e-02	0.0	1.422900e-01	3.666211e-02	0.0	1.534900e-01	3.761178e-02	0.0	1.650400e-01	3.852620e-02	0.0	1.769300e-01	3.940467e-02	0.0	1.891400e-01	4.024573e-02	0.0	2.016600e-01	4.104860e-02	0.0	2.144700e-01	4.181177e-02	0.0	2.275700e-01	4.253484e-02	0.0	2.409400e-01	4.321610e-02	0.0	2.545700e-01	4.385430e-02	0.0	2.684500e-01	4.444804e-02	0.0	2.825500e-01	4.499500e-02	0.0	2.968700e-01	4.549403e-02	0.0	3.114000e-01	4.594333e-02	0.0	3.261100e-01	4.634045e-02	0.0	3.409900e-01	4.668351e-02	0.0	3.560400e-01	4.697065e-02	0.0	3.712300e-01	4.719929e-02	0.0	3.865400e-01	4.736713e-02	0.0	4.019700e-01	4.747202e-02	0.0	4.175000e-01	4.751152e-02	0.0	4.331100e-01	4.748327e-02	0.0	4.487800e-01	4.738503e-02	0.0	4.645100e-01	4.721447e-02	0.0	4.802700e-01	4.696959e-02	0.0	4.960500e-01	4.664839e-02	0.0	5.118400e-01	4.624894e-02	0.0	5.276100e-01	4.577010e-02	0.0	5.433600e-01	4.521017e-02	0.0	5.590600e-01	4.456880e-02	0.0	5.747100e-01	4.384486e-02	0.0	5.902800e-01	4.303899e-02	0.0	6.057600e-01	4.215147e-02	0.0	6.211300e-01	4.118367e-02	0.0	6.363800e-01	4.013699e-02	0.0	6.515000e-01	3.901338e-02	0.0	6.664700e-01	3.781619e-02	0.0	6.812700e-01	3.654963e-02	0.0	6.958900e-01	3.521786e-02	0.0	7.103200e-01	3.382568e-02	0.0	7.245300e-01	3.238065e-02	0.0	7.385200e-01	3.088811e-02	0.0	7.522800e-01	2.935502e-02	0.0	7.657800e-01	2.779126e-02	0.0	7.790100e-01	2.620522e-02	0.0	7.919700e-01	2.460454e-02	0.0	8.046400e-01	2.299974e-02	0.0	8.170100e-01	2.140047e-02	0.0	8.290500e-01	1.981908e-02	0.0	8.407700e-01	1.826235e-02	0.0	8.521600e-01	1.673874e-02	0.0	8.631800e-01	1.525907e-02	0.0	8.738500e-01	1.382384e-02	0.0	8.841500e-01	1.243627e-02	0.0	8.940600e-01	1.109755e-02	0.0	9.035800e-01	9.806001e-03	0.0	9.127000e-01	8.564327e-03	0.0	9.214000e-01	7.383473e-03	0.0	9.296900e-01	6.280000e-03	0.0	9.375400e-01	5.284871e-03	0.0	9.449600e-01	4.427229e-03	0.0	9.519400e-01	3.731991e-03	0.0	9.584700e-01	3.205272e-03	0.0	9.645400e-01	2.826897e-03	0.0	9.701500e-01	2.552004e-03	0.0	9.752800e-01	2.324796e-03	0.0	9.799500e-01	2.093037e-03	0.0	9.841300e-01	1.827009e-03	0.0	9.878400e-01	1.519892e-03	0.0	9.910500e-01	1.190197e-03	0.0	9.937800e-01	8.630202e-04	0.0	9.960200e-01	5.666259e-04	0.0	9.977600e-01	3.231882e-04	0.0	9.990000e-01	1.450783e-04	0.0	9.997500e-01	3.632619e-05	0.0	1.000000e+00	0.000000e+00	0.0	1.984229e+01	2.506660e+00	0.0	1.937166e+01	4.973800e+00	0.0	1.859553e+01	7.362490e+00	0.0	1.752613e+01	9.635070e+00	0.0	1.618034e+01	1.175571e+01	0.0	1.457937e+01	1.369094e+01	0.0	1.274848e+01	1.541027e+01	0.0	1.071654e+01	1.688656e+01	0.0	8.515590e+00	1.809654e+01	0.0	6.180340e+00	1.902113e+01	0.0	3.747630e+00	1.964575e+01	0.0	1.255810e+00	1.996053e+01	0.0	-1.255810e+00	1.996053e+01	0.0	-3.747630e+00	1.964574e+01	0.0	-6.180340e+00	1.902113e+01	0.0	-8.515590e+00	1.809654e+01	0.0	-1.071654e+01	1.688656e+01	0.0	-1.274848e+01	1.541026e+01	0.0	-1.457937e+01	1.369094e+01	0.0	-1.618034e+01	1.175570e+01	0.0	-1.752613e+01	9.635070e+00	0.0	-1.859553e+01	7.362490e+00	0.0	-1.937166e+01	4.973800e+00	0.0	-1.984229e+01	2.506660e+00	0.0	-2.000000e+01	0.000000e+00	0.0	-1.984229e+01	-2.506670e+00	0.0	-1.937166e+01	-4.973800e+00	0.0	-1.859553e+01	-7.362490e+00	0.0	-1.752613e+01	-9.635080e+00	0.0	-1.618034e+01	-1.175571e+01	0.0	-1.457937e+01	-1.369094e+01	0.0	-1.274848e+01	-1.541027e+01	0.0	-1.071653e+01	-1.688656e+01	0.0	-8.515580e+00	-1.809654e+01	0.0	-6.180340e+00	-1.902113e+01	0.0	-3.747620e+00	-1.964575e+01	0.0	-1.255810e+00	-1.996053e+01	0.0	1.255810e+00	-1.996053e+01	0.0	3.747630e+00	-1.964574e+01	0.0	6.180340e+00	-1.902113e+01	0.0	8.515590e+00	-1.809654e+01	0.0	1.071654e+01	-1.688656e+01	0.0	1.274848e+01	-1.541026e+01	0.0	1.457937e+01	-1.369094e+01	0.0	1.618034e+01	-1.175570e+01	0.0	1.752614e+01	-9.635070e+00	0.0	1.859553e+01	-7.362490e+00	0.0	1.937166e+01	-4.973790e+00	0.0	1.984229e+01	-2.506660e+00	0.0	2.000000e+01	0.000000e+00	0.0	6.074234e-02	-4.532214e-02	0.0	6.601883e-01	-6.002236e-02	0.0	4.255533e-01	6.172158e-02	0.0	6.897642e-01	4.910549e-02	0.0	3.791232e-01	-7.360614e-02	0.0	9.994675e-01	-7.275898e-04	0.0	9.985544e-01	-1.331422e-03	0.0	7.738131e-01	-4.740048e-02	0.0	6.898600e-01	-5.714856e-02	0.0	-1.127223e-03	5.516774e-03	0.0	7.467800e-01	-5.080790e-02	0.0	5.833311e-01	5.753315e-02	0.0	9.928160e-01	-3.736238e-03	0.0	9.899359e-01	-4.744193e-03	0.0	5.989072e-01	5.659833e-02	0.0	7.187646e-01	-5.406402e-02	0.0	-1.468710e-03	5.998188e-04	0.0	9.865725e-01	-5.906497e-03	0.0	9.827328e-01	-7.226405e-03	0.0	-1.302101e-03	-6.473195e-03	0.0	6.451051e-01	-6.137296e-02	0.0	8.244819e-01	-4.029826e-02	0.0	7.997421e-01	-4.389459e-02	0.0	3.484810e-01	6.060707e-02	0.0	8.479020e-01	-3.666782e-02	0.0	2.473656e-01	5.609727e-02	0.0	8.699420e-01	-3.302750e-02	0.0	1.046392e-02	1.734397e-02	0.0	8.904957e-01	-2.943344e-02	0.0	7.702146e-02	-4.970013e-02	0.0	9.094909e-01	-2.594042e-02	0.0	-1.766809e-03	-3.207050e-03	0.0	9.424826e-01	-1.916841e-02	0.0	9.268474e-01	-2.255035e-02	0.0	1.794778e-02	-2.749754e-02	0.0	4.257416e-01	-7.303696e-02	0.0	8.591035e-01	-3.484345e-02	0.0	9.563355e-01	-1.566704e-02	0.0	9.784088e-01	-8.725376e-03	0.0	9.683300e-01	-1.208073e-02	0.0	1.582633e-01	-6.357454e-02	0.0	9.001950e-01	-2.767233e-02	0.0	7.604294e-01	-4.912000e-02	0.0	9.971359e-01	-2.087283e-03	0.0	5.990500e-01	-6.504559e-02	0.0	4.414441e-01	-7.268712e-02	0.0	5.363196e-01	-6.898060e-02	0.0	4.730157e-01	-7.175466e-02	0.0	5.046766e-01	-7.051724e-02	0.0	4.888342e-01	-7.117289e-02	0.0	1.249493e-01	-5.906619e-02	0.0	2.784413e-02	-3.297732e-02	0.0	3.945689e-01	-7.349816e-02	0.0	4.621898e-02	-4.062403e-02	0.0	4.101097e-01	-7.330876e-02	0.0	3.187146e-01	-7.321413e-02	0.0	3.486125e-01	-7.358085e-02	0.0	3.350768e-02	-3.559069e-02	0.0	2.895104e-01	-7.250870e-02	0.0	9.348849e-01	-2.086625e-02	0.0	1.468045e-01	-6.216245e-02	0.0	1.946434e-01	-6.723438e-02	0.0	8.579567e-02	-5.175782e-02	0.0	1.045869e-01	-5.560504e-02	0.0	5.678223e-01	-6.716085e-02	0.0	1.700658e-01	-6.489283e-02	0.0	6.145275e-01	-6.388390e-02	0.0	8.804131e-01	-3.122203e-02	0.0	2.266810e-02	-3.027793e-02	0.0	9.952218e-01	-2.870139e-03	0.0	6.736318e-03	-1.882200e-02	0.0	1.849211e-02	2.151276e-02	0.0	9.183776e-01	-2.423591e-02	0.0	9.49640
[...]
POINT_DATA 5233

SCALARS Conservative_1 float 1
LOOKUP_TABLE default
1.199829e+00	1.181604e+00	1.171179e+00	1.164740e+00	1.160167e+00	1.155702e+00	1.148818e+00	1.137900e+00	1.121718e+00	1.100363e+00	1.075074e+00	1.048463e+00	1.024895e+00	1.008360e+00	9.999864e-01	9.979281e-01	9.990373e-01	1.000480e+00	1.000507e+00	9.985187e-01	9.947350e-01	9.897132e-01	9.840387e-01	9.781831e-01	9.724240e-01	9.668724e-01	9.615195e-01	9.563188e-01	9.512056e-01	9.461486e-01	9.411318e-01	9.361113e-01	9.310531e-01	9.259737e-01	9.209243e-01	9.159534e-01	9.110795e-01	9.063072e-01	9.016479e-01	8.971180e-01	8.927173e-01	8.884564e-01	8.843176e-01	8.803177e-01	8.764715e-01	8.728307e-01	8.693847e-01	8.660697e-01	8.627384e-01	8.593814e-01	8.562008e-01	8.535507e-01	8.515447e-01	8.498911e-01	8.479168e-01	8.448706e-01	8.402526e-01	8.342108e-01	8.276246e-01	8.217509e-01	8.174764e-01	8.149941e-01	8.140314e-01	8.141554e-01	8.150563e-01	8.165351e-01	8.185422e-01	8.209942e-01	8.238048e-01	8.268615e-01	8.301833e-01	8.339333e-01	8.383583e-01	8.435264e-01	8.493613e-01	8.557164e-01	8.626566e-01	8.703600e-01	8.788838e-01	8.882674e-01	8.986224e-01	9.100078e-01	9.225751e-01	9.364419e-01	9.517983e-01	9.689215e-01	9.880395e-01	1.009511e+00	1.033822e+00	1.061287e+00	1.092437e+00	1.127740e+00	1.167042e+00	1.209884e+00	1.254554e+00	1.298041e+00	1.331744e+00	1.350900e+00	1.339535e+00	1.308273e+00	1.284261e+00	1.221101e+00	1.099462e+00	1.001984e+00	9.259869e-01	8.702775e-01	8.322949e-01	8.072903e-01	7.904576e-01	7.790573e-01	7.713941e-01	7.662991e-01	7.632125e-01	7.613970e-01	7.604786e-01	7.604535e-01	7.611935e-01	7.624617e-01	7.639365e-01	7.652910e-01	7.665417e-01	7.680127e-01	7.699625e-01	7.722412e-01	7.744496e-01	7.763596e-01	7.780631e-01	7.797071e-01	7.813946e-01	7.831960e-01	7.851666e-01	7.872902e-01	7.894942e-01	7.916781e-01	7.937990e-01	7.958315e-01	7.977657e-01	7.995633e-01	8.012333e-01	8.028919e-01	8.047535e-01	8.069758e-01	8.096077e-01	8.126074e-01	8.159697e-01	8.197464e-01	8.239639e-01	8.285969e-01	8.334900e-01	8.384552e-01	8.432954e-01	8.480616e-01	8.530387e-01	8.585681e-01	8.647074e-01	8.712288e-01	8.779147e-01	8.847665e-01	8.919522e-01	8.995189e-01	9.074143e-01	9.155505e-01	9.238788e-01	9.323870e-01	9.410456e-01	9.498411e-01	9.587232e-01	9.676742e-01	9.766200e-01	9.855630e-01	9.944202e-01	1.003111e+00	1.011573e+00	1.019721e+00	1.027510e+00	1.034919e+00	1.041994e+00	1.048914e+00	1.055941e+00	1.063462e+00	1.071775e+00	1.080977e+00	1.090685e+00	1.100038e+00	1.107784e+00	1.112589e+00	1.113363e+00	1.109742e+00	1.102492e+00	1.093777e+00	1.086675e+00	1.084158e+00	1.088062e+00	1.098278e+00	1.112851e+00	1.130016e+00	1.148479e+00	1.168636e+00	1.192714e+00	1.181127e+00	9.999764e-01	9.999694e-01	9.999527e-01	9.999288e-01	9.999046e-01	9.998764e-01	9.998368e-01	9.997816e-01	9.997189e-01	9.996668e-01	9.996323e-01	9.996438e-01	9.996983e-01	9.998090e-01	9.999041e-01	9.999809e-01	1.000023e+00	1.000049e+00	1.000064e+00	1.000070e+00	1.000073e+00	1.000074e+00	1.000074e+00	1.000076e+00	1.000077e+00	1.000080e+00	1.000085e+00	1.000092e+00	1.000101e+00	1.000114e+00	1.000129e+00	1.000150e+00	1.000169e+00	1.000196e+00	1.000213e+00	1.000224e+00	1.000226e+00	1.000213e+00	1.000203e+00	1.000190e+00	1.000183e+00	1.000168e+00	1.000151e+00	1.000130e+00	1.000106e+00	1.000078e+00	1.000060e+00	1.000046e+00	1.000013e+00	9.999797e-01	9.443221e-01	9.020635e-01	8.215067e-01	9.232654e-01	8.406856e-01	1.183062e+00	1.173570e+00	9.408008e-01	9.112688e-01	1.217015e+00	9.308277e-01	8.720832e-01	1.151718e+00	1.144988e+00	8.786945e-01	9.208864e-01	1.307641e+00	1.136016e+00	1.123648e+00	1.337687e+00	8.976464e-01	9.609007e-01	9.507399e-01	8.073255e-01	9.714715e-01	7.943399e-01	9.825777e-01	8.784284e-01	9.931879e-01	9.171222e-01	1.000616e+00	1.344666e+00	1.006087e+00	1.003000e+00	1.100364e+00	8.522885e-01	9.769812e-01	1.025355e+00	1.107396e+00	1.065588e+00	8.484436e-01	9.974966e-01	9.358340e-01	1.164147e+00	8.851320e-01	8.538352e-01	8.706329e-01	8.576890e-01	8.639676e-01	8.606385e-01	8.683239e-01	1.042984e+00	8.461748e-01	9.775439e-01	8.499734e-01	8.197361e-01	8.278147e-01	1.018706e+00	8.182257e-01	1.003610e+00	8.544663e-01	8.348200e-01	9.053864e-01	8.849917e-01	8.774950e-01	8.431774e-01	8.891855e-01	9.880839e-01	1.070111e+00	1.157649e+00	1.209199e+00	8.234967e-01	1.002355e+00	1.012766e+00	1.087634e+00	1.133880e+00	9.661181e-01	8.225090e-01	8.739841e-01	9.258223e-01	9.457533e-01	8.762259e-01	8.280074e-01	8.812269e-01	9.066124e-01	9.600854e-01	1.248743e+00	1.133827e+00	8.341476e-01	8.387098e-01	1.211158e+00	8.250523e-01	8.947089e-01	8.183287e-01	8.204838e-01	8.554520e-01	9.160284e-01	1.279733e+00	1.318486e+00	8.546263e-01	1.324588e+00	7.951225e-01	7.745761e-01	7.811401e-01	7.755992e-01	8.178924e-01	1.140214e+00	8.498031e-01	8.349127e-01	1.097231e+00	1.105872e+00	1.052286e+00	8.399766e-01	8.255580e-01	8.118116e-01	1.083648e+00	1.067049e+00	7.730499e-01	1.092477e+00	1.106616e+00	1.099063e+00	7.739815e-01	7.731779e-01	8.004004e-01	7.964253e-01	7.836526e-01	8.039668e-01	8.300554e-01	8.146662e-01	7.807795e-01	7.772011e-01	8.923388e-01	7.865584e-01	7.901672e-01	9.072751e-01	8.656871e-01	9.569838e-01	9.398905e-01	9.915046e-01	9.742825e-01	1.023932e+00	1.008233e+00	1.059447e+00	1.038438e+00	1.104232e+00	1.075186e+00	1.102347e+00	1.031326e+00	1.045366e+00	9.999607e-01	1.016230e+00	9.656291e-01	9.829362e-01	9.315034e-01	9.483898e-01	8.996276e-01	9.151746e-01	8.598304e-01	8.853981e-01	7.882622e-01	7.922291e-01	7.822788e-01	7.850492e-01	7.771607e-01	7.790632e-01	8.464900e-01	7.868884e-01	8.312883e-01	9.814741e-01	1.043720e+00	9.557818e-01	8.228440e-01	8.673370e-01	1.053438e+00	8.069061e-01	9.226246e-01	7.735305e-01	7.727855e-01	7.984484e-01	7.745566e-01	1.090300e+00	1.092374e+00	8.022489e-01	1.099371e+00	1.110420e+00	8.056001e-01	8.093552e-01	1.091890e+00	1.206471e+00	1.157952e+00	1.174455e+00	8.933500e-01	9.969949e-01	1.124415e+00	8.449783e-01	1.286683e+00	1.170397e+00	9.300492e-01	8.611168e-01	8.190149e-01	7.851060e-01	1.199592e+00	1.259543e+00	8.238777e-01	9.165092e-01	1.003318e+00	1.199631e+00	8.735139e-01	9.118613e-01	9.456800e-01	1.133353e+00	8.258165e-01	9.762931e-01	9.657721e-01	9.126261e-01	1.317253e+00	8.363941e-01	1.132824e+00	1.041624e+00	8.603774e-01	9.212388e-01	9.028890e-01	8.580261e-01	9.245708e-01	8.471617e-01	9.965486e-01	9.505731e-01	9.565315e-01	8.548452e-01	9.153182e-01	1.020541e+00	7.830477e-01	9.231571e-01	7.883385e-01	1.041857e+00	1.100605e+00	8.104069e-01	8.518976e-01	1.099647e+00	1.048672e+00	1.108353e+00	1.100928e+00	1.094589e+00	7.975151e-01	8.087079e-01	7.955845e-01	7.829140e-01	9.073297e-01	8.402368e-01	9.139851e-01	7.860329e-01	7.939876e-01	1.098098e+00	1.119027e+00	1.055547e+00	8.542340e-01	1.215365e+00	1.145818e+00	1.131612e+00	1.009100e+00	1.133521e+00	1.234089e+00	1.331026e+00	1.315062e+00	1.102262e+00	1.217657e+00	9.519807e-01	1.163047e+00	1.148577e+00	8.239017e-01	8.755313e-01	1.123031e+00	9.869494e-01	8.799787e-01	1.141661e+00	1.332381e+00	8.564848e-01	8.204425e-01	9.709809e-01	8.033904e-01	9.816511e-01	9.919981e-01	9.376409e-01	1.000357e+00	1.005624e+00	1.017435e+00	1.048641e+00	1.027463e+00	1.058816e+00	1.110019e+00	8.747597e-01	9.359135e-01	9.408149e-01	1.155386e+00	8.599530e-01	8.625916e-01	8.657125e-01	1.074341e+00	8.516676e-01	8.546379e-01	8.296450e-01	1.004269e+00	1.007900e+00	1.011329e+00	8.672629e-01	9.017225e-01	8.789440e-01	8.903272e-01	1.077036e+00	1.094514e+00	9.260415e-01	9.309730e-01	8.918656e-01	8.829109e-01	8.825717e-01	8.863642e-01	9.851958e-01	9.678186e-01	1.165343e+00	8.350759e-01	8.413117e-01	8.489921e-01	8.443924e-01	8.329256e-01	8.298551e-01	8.232741e-01	8.238071e-01	8.272930e-01	1.298362e+00	1.267562e+00	8.001528e-01	1.095899e+00	8.566860e-01	8.469815e-01	8.419124e-01	8.368657e-01	1.095746e+00	1.100204e+00	1.077312e+00	8.321368e-01	8.277977e-01	8.173771e-01	1.069904e+00	1.096250e+00	7.867935e-01	7.896208e-01	7.994897e-01	8.014498e-01	7.871801e-01	7.849305e-01	7.838279e-01	9.889536e-01	9.557124e-01	9.474243e-01	9.807216e-01	1.012979e+00	1.062591e+00	1.034944e+00	1.027849e+00	1.005210e+00	9.971749e-01	9.723796e-01	9.640346e-01	9.392277e-01	9.311237e-01	9.076784e-01	9.002942e-01	8.672974e-01	8.616874e-01	8.932657e-01	8.865198e-01	7.937604e-01	7.921462e-01	7.907421e-01	7.895173e-01	8.808030e-01	8.086069e-01	8.199788e-01	9.555537e-01	9.606312e-01	8.689885e-01	8.722284e-01	1.069731e+00	8.350084e-01	7.833512e-01	7.840712e-01	8.070372e-01	8.052625e-01	8.146860e-01	8.123513e-01	1.091039e+00	1.084526e+00	8.943890e-01	8.985890e-01	1.025302e+00	1.297444e+00	8.252559e-01	1.311610e+00	8.534826e-01	8.292031e-01	9.510650e-01	8.777066e-01	1.007441e+00	1.107320e+00	1.101254e+00	1.096613e+00	1.081192e+00	1.115973e+00	1.160562e+00	1.181452e+00	1.153144e+00	1.200927e+00	1.103904e+00	1.283261e+00	9.202797e-01	1.010849e+00	1.131558e+00	8.756532e-01	1.172914e+00	1.220862e+00	9.222666e-01	1.275977e+00	9.269343e-01	1.131351e+00	9.863607e-01	1.190708e+00	8.325190e-01	9.812330e-01	9.176610e-01	1.139454e+00	1.160737e+00	1.095994e+00	8.593147e-01	1.093256e+00	9.162936e-01	1.125965e+00	8.544079e-01	8.065531e-01	8.137043e-01	7.935388e-01	7.998127e-01	1.171571e+00	1.293314e+00	1.184889e+00	9.088726e-01	1.240746e+00	1.055117e+00	9.323195e-01	1.312122e+00	8.665379e-01	8.627433e-01	1.078024e+00	9.819659e-01	1.017742e+00	9.871796e-01	9.238626e-01	1.097523e+00	1.095650e+00	1.051741e+00	1.045114e+00	8.120075e-01	8.084436e-01	8.009866e-01	7.917837e-01	9.087100e-01	9.131363e-01	8.458224e-01	9.421873e-01	7.926805e-01	1.095970e+00	1.136242e+00	1.028978e+00	1.134225e+00	1.249581e+00	1.315001e+00	1.053690e+00	1.186192e+00	1.178452e+00	1.070321e+00	1.122723e+00	8.819665e-01	8.611101e-01	8.266260e-01	9.708754e-01	9.760451e-01	9.913475e-01	9.960354e-01	9.598001e-01	9.454879e-01	1.000283e+00	1.004062e+00	1.029627e+00	1.041164e+00	1.112210e+00	9.414386e-01	9.462646e-01	1.145974e+00	8.650164e-01	8.679859e-01	8.572350e-01	8.595384e-01	1.031617e+00	1.015032e+00	1.021002e+00	8.815471e-01	8.736922e-01	8.810435e-01	8.845596e-01	1.085512e+00	1.099623e+00	9.317125e-01	9.366229e-01	9.092565e-01	8.990438e-01	8.898572e-01	8.882469e-01	8.921103e-01	1.011538e+00	9.928057e-01	9.755009e-01	8.368367e-01	8.424610e-01	8.483582e-01	8.605010e-01	8.551600e-01	8.503092e-01	8.417945e-01	8.381778e-01	8.289178e-01	8.298731e-01	8.350730e-01	8.181382e-01	8.492793e-01	8.440712e-01	1.096482e+00	8.391296e-01	8.345348e-01	8.303626e-01	8.233414e-01	1.071765e+00	8.042002e-01	8.101894e-01	8.046447e-01	8.027927e-01	7.921048e-01	7.919242e-01	7.917552e-01	9.552720e-01	1.065111e+00	1.058365e+00	1.038450e+00	1.031737e+00	1.024908e+00	1.010341e+00	1.002819e+00	9.950655e-01	9.793001e-01	9.713077e-01	9.632882e-01	9.473143e-01	9.393944e-01	9.315868e-01	9.089014e-01	8.695538e-01	8.642739e-01	9.018056e-01	8.949916e-01	8.883958e-01	7.993064e-01	7.977709e-01	7.964882e-01	7.953894e-01	7.944550e-01	8.287451e-01	8.425644e-01	9.559148e-01	9.608700e-01	9.658215e-01	8.711906e-01	8.744234e-01	8.600679e-01	8.817376e-01	7.926608e-01	7.944607e-01	7.967631e-01	8.102821e-01	8.204541e-01	8.179055e-01	8.156170e-01	1.089391e+00	1.084279e+00	1.078289e+00	8.960853e-01	9.001839e-01	9.043866e-01	8.324606e-01	8.304879e-01	1.289945e+00	9.280961e-01	1.129356e+00	1.097677e+00	8.830942e-01	1.261896e+00	1.159457e+00	1.013178e+00	1.018103e+00	1.057416e+00	1.112693e+00	8.575874e-01	1.271270e+00	9.660557e-01	1.206348e+00	1.092416e+00	1.120628e+00	1.172035e+00	9.172803e-01	1.130616e+00	1.185407e+00	1.188067e+00	9.563936e-01	8.739494e-01	1.104103e+00	8.600135e-01	9.402484e-01	8.662786e-01	8.357782e-01	1.101033e+00	8.780678e-01	1.090333e+00	1.087298e+00	9.861662e-01	7.998608e-01	8.103048e-01	1.122118e+00	8.186791e-01	9.865887e-01	1.146692e+00	1.106000e+00	1.144057e+00	1.078630e+00	1.128379e+00	9.233990e-01	1.231575e+00	9.285090e-01	9.326020e-01	1.154392e+00	1.129950e+00	1.180681e+00	1.015150e+00	8.615234e-01	8.157866e-01	1.219414e+00	1.002406e+00	9.253579e-01	1.048417e+00	8.175560e-01	8.140143e-01	8.121338e-01	9.144758e-01	9.194754e-01	1.095702e+00	1.042552e+00	1.086587e+00	1.254720e+00	1.296768e+00	1.080050e+00	1.065698e+00	1.113091e+00	8.850327e-01	9.764859e-01	9.814717e-01	9.914615e-01	9.961950e-01	9.673979e-01	9.532828e-01	1.000615e+00	1.004879e+00	1.009006e+00	1.041509e+00	1.053086e+00	9.468043e-01	9.520306e-01	1.137239e+00	8.682047e-01	8.708967e-01	8.628959e-01	8.647491e-01	1.024025e+00	1.031681e+00	8.891037e-01	8.806253e-01	8.871869e-01	1.091098e+00	1.102743e+00	9.377216e-01	9.429945e-01	9.169064e-01	9.067721e-01	8.977918e-01	8.901662e-01	8.945531e-01	1.037358e+00	1.017930e+00	9.994097e-01	9.825703e-01	8.403608e-01	8.449249e-01	8.502782e-01	8.555054e-01	8.679422e-01	8.623737e-01	8.571370e-01	8.524360e-01	8.482138e-01	8.372988e-01	8.358054e-01	8.445367e-01	8.519832e-01	1.094599e+00	1.093693e+00	8.468805e-01	8.420748e-01	8.376419e-01	8.336343e-01	8.300673e-01	8.267976e-01	8.370716e-01	8.084939e-01	8.068690e-01	7.996530e-01	7.999596e-01	8.007277e-01	8.014826e-01	1.067029e+00	1.060915e+00	1.054738e+00	1.042057e+00	1.035724e+00	1.029368e+00	1.021898e+00	1.008909e+00	1.000846e+00	9.934070e-01	9.781928e-01	9.709376e-01	9.627663e-01	9.555933e-01	9.473350e-01	9.403331e-01	9.321178e-01	8.673481e-01	8.717250e-01	9.108734e-01	9.031624e-01	8.972473e-01	8.900218e-01	8.052876e-01	8.039263e-01	8.026016e-01	8.015825e-01	8.006892e-01	8.000957e-01	8.492016e-01	8.647073e-01	9.615996e-01	9.667643e-01	9.715195e-01	8.740781e-01	8.764148e-01	8.803341e-01	8.841569e-01	9.071245e-01	9.339738e-01	8.025911e-01	8.048807e-01	8.086752e-01	8.131110e-01	8.269240e-01	8.241857e-01	8.217320e-01	8.193789e-01	1.072927e+00	1.083240e+00	1.078467e+00	8.978097e-01	9.024281e-01	9.059244e-01	9.107473e-01	8.413337e-01	8.387437e-01	8.368109e-01	1.148051e+00	1.125342e+00	1.073701e+00	1.177465e+00	1.171258e+00	9.363785e-01	9.362898e-01	1.193494e+00	1.096514e+00	1.235367e+00	1.081063e+00	8.826918e-01	8.076603e-01	1.018710e+00	1.127171e+00	1.234991e+00	1.292322e+00	1.294374e+00	1.281519e+00	1.250850e+00	1.138724e+00	8.218755e-01	1.084565e+00	1.121530e+00	1.026544e+00	9.595719e-01	8.664521e-01	1.115925e+00	1.068626e+00	1.081998e+00	8.773787e-01	8.677952e-01	9.226598e-01	9.813161e-01	8.606160e-01	8.874887e-01	8.229623e-01	1.109673e+00	9.483780e-01	1.165199e+00	1.099799e+00	1.292577e+00	1.182391e+00	1.173230e+00	1.019719e+00	1.061228e+00	1.266772e+00	9.858910e-01	1.215153e+00	1.088026e+00	1.162032e+00	1.177068e+00	1.178082e+00	1.125470e+00	8.423664e-01	8.430907e-01	1.104119e+00	8.873895e-01	1.085384e+00	1.113477e+00	9.275509e-01	1.200184e+00	8.193575e-01	8.182225e-01	8.156908e-01	9.187687e-01	1.053290e+00	1.090007e+00	1.275308e+00	1.103693e+00	9.825609e-01	9.866788e-01	9.920564e-01	9.964841e-01	9.611936e-01	9.754520e-01	1.001610e+00	1.005603e+00	1.010545e+00	1.015614e+00	1.052037e+00	1.062704e+00	9.507948e-01	1.128574e+00	8.712869e-01	8.741578e-01	8.679883e-01	8.702921e-01	1.033976e+00	1.042186e+00	8.964350e-01	8.873657e-01	1.095030e+00	1.104728e+00	9.443547e-01	9.247644e-01	9.138985e-01	9.071944e-01	8.946947e-01	1.042322e+00	1.023728e+00	1.005926e+00	9.904240e-01	8.452027e-01	8.475733e-01	8.527394e-01	8.570485e-01	8.623092e-01	8.749153e-01	8.704757e-01	8.634179e-01	8.598927e-01	8.541846e-01	1.094057e+00	1.092109e+00	1.090214e+00	8.543609e-01	8.501813e-01	8.447593e-01	8.412722e-01	8.366094e-01	8.442460e-01	8.563751e-01	8.147370e-01	8.124203e-01	8.070453e-01	8.098340e-01	8.118222e-01	1.062733e+00	1.057300e+00	1.051226e+00	1.045390e+00	1.039175e+00	1.033230e+00	1.026392e+00	1.016498e+00	1.007093e+00	9.954014e-01	9.666356e-01	9.518471e-01	9.371553e-01	9.086584e-01	8.962938e-01	8.118385e-01	8.097574e-01	8.095435e-01	8.076216e-01	8.079895e-01	8.072694e-01	8.072466e-01	8.706240e-01	8.867881e-01	9.677425e-01	9.722219e-01	9.772674e-01	8.772629e-01	8.811099e-01	9.067083e-01	9.305708e-01	9.565313e-01	8.138096e-01	8.167963e-01	8.216668e-01	8.286810e-01	8.357853e-01	8.340004e-01	8.302193e-01	8.285894e-01	8.257850e-01	1.078201e+00	1.072942e+00	9.023129e-01	9.103377e-01	8.516298e-01	8.471299e-01	8.457349e-01	8.427886e-01	1.166078e+00	1.154375e+00	1.181134e+00	1.254998e+00	1.180682e+00	1.088606e+00	1.106554e+00	1.183414e+00	1.086403e+00	1.141046e+00	1.105939e+00	1.255340e+00	1.081814e+00	1.161524e+00	8.282914e-01	1.177728e+00	1.060983e+00	1.152355e+00	1.141413e+00	1.079418e+00	8.887980e-01	1.101715e+00	8.496538e-01	1.035165e+00	1.024795e+00	9.106076e-01	9.441974e-01	8.864899e-01	1.231223e+00	8.726336e-01	9.701512e-01	9.572980e-01	8.172342e-01	1.094246e+00	1.066031e+00	1.212907e+00	1.031034e+00	1.070052e+00	1.170731e+00	1.097582e+00	1.291358e+00	1.245000e+00	1.113742e+00	9.441390e-01	8.700602e-01	8.599847e-01	1.112130e+00	1.173869e+00	1.129521e+00	1.275258e+00	1.176732e+00	1.064255e+00	1.216966e+00	1.199795e+00	8.879862e-01	1.101540e+00	1.083946e+00	1.080338e+00	8.786688e-01	8.245612e-01	8.210536e-01	9.358623e-01	1.091858e+00	1.122785e+00	1.122175e+00	9.901236e-01	9.994877e-01	9.830008e-01	1.009058e+00	1.017509e+00	1.060615e+00	1.120995e+00	8.760555e-01	1.043361e+00	1.051496e+00	8.996391e-01	1.097454e+00	9.513544e-01	9.587444e-01	9.280298e-01	9.145832e-01	8.954333e-01	1.046651e+00	1.028095e+00	1.011326e+00	9.997677e-01	8.534482e-01	8.612411e-01	8.688089e-01	8.740426e-01	8.636709e-01	1.091457e+00	1.088962e+00	8.503954e-01	8.422549e-01	8.759909e-01	8.182281e-01	8.224986e-01	1.003200e+00	1.056071e+00	1.044842e+00	1.033302e+00	1.022715e+00	1.013322e+00	9.908552e-01	9.771695e-01	9.630733e-01	9.489380e-01	9.347852e-01	9.208129e-01	9.080957e-01	8.975948e-01	8.161738e-01	8.148623e-01	8.150742e-01	8.138098e-01	8.158728e-01	8.921807e-01	9.090274e-01	9.672433e-01	9.753251e-01	9.832574e-01	8.800629e-01	8.837863e-01	9.281703e-01	9.512357e-01	9.763602e-01	1.002460e+00	8.263150e-01	8.299175e-01	8.354701e-01	8.439510e-01	8.547981e-01	8.607899e-01	8.360663e-01	8.325675e-01	1.077797e+00	1.073292e+00	9.028442e-01	9.187222e-01	9.272070e-01	8.557808e-01	8.507844e-01	1.117389e+00	1.166019e+00	1.161178e+00	1.136253e+00	1.025470e+00	1.108370e+00	1.173798e+00	1.135621e+00	1.185597e+00	1.135183e+00	1.147604e+00	1.126775e+00	1.092512e+00	1.193616e+00	1.235632e+00	1.088367e+00	9.515827e-01	8.359112e-01	1.125044e+00	1.017128e+00	1.099450e+00	8.876411e-01	1.066669e+00	1.169561e+00	8.756809e-01	1.043570e+00	9.189930e-01	8.966355e-01	1.083528e+00	1.091447e+00	1.082183e+00	1.067012e+00	1.171389e+00	1.098735e+00	1.103073e+00	1.082831e+00	8.283440e-01	8.985332e-01	9.355821e-01	9.897482e-01	1.150518e+00	1.157258e+00	1.272007e+00	1.075361e+00	1.085452e+00	1.175645e+00	1.099194e+00	1.169043e+00	1.152264e+00	8.908597e-01	1.224909e+00	9.799709e-01	9.646772e-01	1.094848e+00	1.233603e+00	1.067210e+00	1.106562e+00	9.438984e-01	1.254315e+00	1.176116e+00	1.005254e+00	1.213097e+00	1.200149e+00	8.801635e-01	1.117597e+00	1.079350e+00	8.891164e-01	8.319076e-01	9.086291e-01	1.118335e+00	1.143438e+00	9.980301e-01	1.007579e+00	1.025397e+00	1.034305e+00	1.114269e+00	8.793712e-01	1.051245e+00	1.059000e+00	8.698626e-01	9.748668e-01	9.827991e-01	9.588313e-01	9.500478e-01	9.347766e-01	9.199728e-01	1.049056e+00	8.581092e-01	8.628183e-01	9.055659e-01	8.916400e-01	9.271640e-01	1.091450e+00	8.707218e-01	8.609507e-01	8.331872e-01	1.059487e+00	1.049544e+00	1.009808e+00	1.038879e+00	1.028573e+00	1.019147e+00	9.991174e-01	9.867738e-01	9.735547e-01	9.600780e-01	9.464826e-01	9.328369e-01	9.199196e-01	8.254981e-01	8.236802e-01	8.227956e-01	8.228300e-01	8.230126e-01	8.273840e-01	9.123094e-01	9.305340e-01	9.666049e-01	9.900199e-01	8.826170e-01	8.863440e-01	9.484972e-01	9.694039e-01	9.929352e-01	1.016441e+00	1.041011e+00	8.402485e-01	8.460523e-01	8.514016e-01	8.596130e-01	8.717061e-01	8.521498e-01	8.451537e-01	8.401224e-01	1.074559e+00	1.067818e+00	9.035839e-01	9.111389e-01	8.791499e-01	8.690362e-01	8.617333e-01	8.577929e-01	1.152328e+00	1.152977e+00	1.149675e+00	1.121131e+00	1.156074e+00	1.140384e+00	1.113594e+00	1.050483e+00	1.172800e+00	1.120685e+00	1.117931e+00	1.071726e+00	1.166005e+00	1.084786e+00	8.331433e-01	1.137607e+00	1.141597e+00	1.128289e+00	1.169441e+00	1.070949e+00	9.260587e-01	1.027032e+00	1.024945e+00	9.594693e-01	1.132801e+00	1.131997e+00	1.128187e+00	1.171839e+00	1.172190e+00	9.002057e-01	9.