# vtk DataFile Version 3.0
vtk output
ASCII
DATASET UNSTRUCTURED_GRID
POINTS 200 float
9.997500e-01	-3.633243e-05	0.0	9.990000e-01	-1.454723e-04	0.0	9.977600e-01	-3.275074e-04	0.0	9.960200e-01	-5.899275e-04	0.0	9.937800e-01	-9.470961e-04	0.0	9.910500e-01	-1.422100e-03	0.0	9.878400e-01	-2.045526e-03	0.0	9.841300e-01	-2.853692e-03	0.0	9.799500e-01	-3.858915e-03	0.0	9.752800e-01	-5.058355e-03	0.0	9.701500e-01	-6.405193e-03	0.0	9.645400e-01	-7.840955e-03	0.0	9.584700e-01	-9.290302e-03	0.0	9.519400e-01	-1.069788e-02	0.0	9.449600e-01	-1.203573e-02	0.0	9.375400e-01	-1.330825e-02	0.0	9.296900e-01	-1.454276e-02	0.0	9.214000e-01	-1.577754e-02	0.0	9.127000e-01	-1.703983e-02	0.0	9.035800e-01	-1.835068e-02	0.0	8.940600e-01	-1.971372e-02	0.0	8.841500e-01	-2.112434e-02	0.0	8.738500e-01	-2.257435e-02	0.0	8.631800e-01	-2.405163e-02	0.0	8.521600e-01	-2.554553e-02	0.0	8.407700e-01	-2.705290e-02	0.0	8.290500e-01	-2.856448e-02	0.0	8.170100e-01	-3.007643e-02	0.0	8.046400e-01	-3.158794e-02	0.0	7.919700e-01	-3.309335e-02	0.0	7.790100e-01	-3.458939e-02	0.0	7.657800e-01	-3.607145e-02	0.0	7.522800e-01	-3.753697e-02	0.0	7.385200e-01	-3.898211e-02	0.0	7.245300e-01	-4.040099e-02	0.0	7.103200e-01	-4.178999e-02	0.0	6.958900e-01	-4.314654e-02	0.0	6.812700e-01	-4.446544e-02	0.0	6.664700e-01	-4.574371e-02	0.0	6.515000e-01	-4.697855e-02	0.0	6.363800e-01	-4.816666e-02	0.0	6.211300e-01	-4.930514e-02	0.0	6.057600e-01	-5.039211e-02	0.0	5.902800e-01	-5.142595e-02	0.0	5.747100e-01	-5.240461e-02	0.0	5.590600e-01	-5.332692e-02	0.0	5.433600e-01	-5.419079e-02	0.0	5.276100e-01	-5.499603e-02	0.0	5.118400e-01	-5.574100e-02	0.0	4.960500e-01	-5.642564e-02	0.0	4.802700e-01	-5.704860e-02	0.0	4.645100e-01	-5.760950e-02	0.0	4.487800e-01	-5.810785e-02	0.0	4.331100e-01	-5.854260e-02	0.0	4.175000e-01	-5.891350e-02	0.0	4.019700e-01	-5.921967e-02	0.0	3.865400e-01	-5.946021e-02	0.0	3.712300e-01	-5.963424e-02	0.0	3.560400e-01	-5.974096e-02	0.0	3.409900e-01	-5.977922e-02	0.0	3.261100e-01	-5.974792e-02	0.0	3.114000e-01	-5.964591e-02	0.0	2.968700e-01	-5.947182e-02	0.0	2.825500e-01	-5.922456e-02	0.0	2.684500e-01	-5.890284e-02	0.0	2.545700e-01	-5.850499e-02	0.0	2.409400e-01	-5.803014e-02	0.0	2.275700e-01	-5.747701e-02	0.0	2.144700e-01	-5.684431e-02	0.0	2.016600e-01	-5.613136e-02	0.0	1.891400e-01	-5.533648e-02	0.0	1.769300e-01	-5.445925e-02	0.0	1.650400e-01	-5.349882e-02	0.0	1.534900e-01	-5.245543e-02	0.0	1.422900e-01	-5.132880e-02	0.0	1.314400e-01	-5.011766e-02	0.0	1.209500e-01	-4.882176e-02	0.0	1.108500e-01	-4.744390e-02	0.0	1.011300e-01	-4.598189e-02	0.0	9.181000e-02	-4.443785e-02	0.0	8.290000e-02	-4.281291e-02	0.0	7.440000e-02	-4.110641e-02	0.0	6.633000e-02	-3.932189e-02	0.0	5.869000e-02	-3.745907e-02	0.0	5.149000e-02	-3.551994e-02	0.0	4.474000e-02	-3.350705e-02	0.0	3.844000e-02	-3.142007e-02	0.0	3.260000e-02	-2.926186e-02	0.0	2.723000e-02	-2.703610e-02	0.0	2.232000e-02	-2.473776e-02	0.0	1.790000e-02	-2.238083e-02	0.0	1.395000e-02	-1.995450e-02	0.0	1.049000e-02	-1.747003e-02	0.0	7.520000e-03	-1.492833e-02	0.0	5.040000e-03	-1.232957e-02	0.0	3.050000e-03	-9.672232e-03	0.0	1.560000e-03	-6.971543e-03	0.0	5.600000e-04	-4.206360e-03	0.0	6.000000e-05	-1.384040e-03	0.0	0.000000e+00	0.000000e+00	0.0	6.000000e-05	1.263750e-03	0.0	5.600000e-04	3.625103e-03	0.0	1.560000e-03	5.788960e-03	0.0	3.050000e-03	7.807065e-03	0.0	5.040000e-03	9.724434e-03	0.0	7.520000e-03	1.154882e-02	0.0	1.049000e-02	1.329520e-02	0.0	1.395000e-02	1.497409e-02	0.0	1.790000e-02	1.659341e-02	0.0	2.232000e-02	1.815277e-02	0.0	2.723000e-02	1.966532e-02	0.0	3.260000e-02	2.112693e-02	0.0	3.844000e-02	2.254530e-02	0.0	4.474000e-02	2.392178e-02	0.0	5.149000e-02	2.525777e-02	0.0	5.869000e-02	2.655627e-02	0.0	6.633000e-02	2.781802e-02	0.0	7.440000e-02	2.904368e-02	0.0	8.290000e-02	3.023516e-02	0.0	9.181000e-02	3.139137e-02	0.0	1.011300e-01	3.251381e-02	0.0	1.108500e-01	3.360245e-02	0.0	1.209500e-01	3.465617e-02	0.0	1.314400e-01	3.567682e-02	0.0	1.422900e-01	3.666211e-02	0.0	1.534900e-01	3.761178e-02	0.0	1.650400e-01	3.852620e-02	0.0	1.769300e-01	3.940467e-02	0.0	1.891400e-01	4.024573e-02	0.0	2.016600e-01	4.104860e-02	0.0	2.144700e-01	4.181177e-02	0.0	2.275700e-01	4.253484e-02	0.0	2.409400e-01	4.321610e-02	0.0	2.545700e-01	4.385430e-02	0.0	2.684500e-01	4.444804e-02	0.0	2.825500e-01	4.499500e-02	0.0	2.968700e-01	4.549403e-02	0.0	3.114000e-01	4.594333e-02	0.0	3.261100e-01	4.634045e-02	0.0	3.409900e-01	4.668351e-02	0.0	3.560400e-01	4.697065e-02	0.0	3.712300e-01	4.719929e-02	0.0	3.865400e-01	4.736713e-02	0.0	4.019700e-01	4.747202e-02	0.0	4.175000e-01	4.751152e-02	0.0	4.331100e-01	4.748327e-02	0.0	4.487800e-01	4.738503e-02	0.0	4.645100e-01	4.721447e-02	0.0	4.802700e-01	4.696959e-02	0.0	4.960500e-01	4.664839e-02	0.0	5.118400e-01	4.624894e-02	0.0	5.276100e-01	4.577010e-02	0.0	5.433600e-01	4.521017e-02	0.0	5.590600e-01	4.456880e-02	0.0	5.747100e-01	4.384486e-02	0.0	5.902800e-01	4.303899e-02	0.0	6.057600e-01	4.215147e-02	0.0	6.211300e-01	4.118367e-02	0.0	6.363800e-01	4.013699e-02	0.0	6.515000e-01	3.901338e-02	0.0	6.664700e-01	3.781619e-02	0.0	6.812700e-01	3.654963e-02	0.0	6.958900e-01	3.521786e-02	0.0	7.103200e-01	3.382568e-02	0.0	7.245300e-01	3.238065e-02	0.0	7.385200e-01	3.088811e-02	0.0	7.522800e-01	2.935502e-02	0.0	7.657800e-01	2.779126e-02	0.0	7.790100e-01	2.620522e-02	0.0	7.919700e-01	2.460454e-02	0.0	8.046400e-01	2.299974e-02	0.0	8.170100e-01	2.140047e-02	0.0	8.290500e-01	1.981908e-02	0.0	8.407700e-01	1.826235e-02	0.0	8.521600e-01	1.673874e-02	0.0	8.631800e-01	1.525907e-02	0.0	8.738500e-01	1.382384e-02	0.0	8.841500e-01	1.243627e-02	0.0	8.940600e-01	1.109755e-02	0.0	9.035800e-01	9.806001e-03	0.0	9.127000e-01	8.564327e-03	0.0	9.214000e-01	7.383473e-03	0.0	9.296900e-01	6.280000e-03	0.0	9.375400e-01	5.284871e-03	0.0	9.449600e-01	4.427229e-03	0.0	9.519400e-01	3.731991e-03	0.0	9.584700e-01	3.205272e-03	0.0	9.645400e-01	2.826897e-03	0.0	9.701500e-01	2.552004e-03	0.0	9.752800e-01	2.324796e-03	0.0	9.799500e-01	2.093037e-03	0.0	9.841300e-01	1.827009e-03	0.0	9.878400e-01	1.519892e-03	0.0	9.910500e-01	1.190197e-03	0.0	9.937800e-01	8.630202e-04	0.0	9.960200e-01	5.666259e-04	0.0	9.977600e-01	3.231882e-04	0.0	9.990000e-01	1.450783e-04	0.0	9.997500e-01	3.632619e-05	0.0	1.000000e+00	0.000000e+00	0.0	
CELLS 200	600
2	149	150	2	150	151	2	151	152	2	152	153	2	153	154	2	154	155	2	155	156	2	156	157	2	157	158	2	158	159	2	159	160	2	160	161	2	161	162	2	162	163	2	163	164	2	164	165	2	165	166	2	166	167	2	167	168	2	168	169	2	169	170	2	170	171	2	171	172	2	172	173	2	173	174	2	174	175	2	175	176	2	176	177	2	177	178	2	178	179	2	179	180	2	180	181	2	181	182	2	31	32	2	32	33	2	33	34	2	34	35	2	35	36	2	36	37	2	37	38	2	38	39	2	39	40	2	40	41	2	41	42	2	42	43	2	43	44	2	44	45	2	45	46	2	46	47	2	47	48	2	48	49	2	49	50	2	50	51	2	51	52	2	52	53	2	53	54	2	54	55	2	55	56	2	56	57	2	57	58	2	58	59	2	59	60	2	60	61	2	61	62	2	62	63	2	63	64	2	64	65	2	65	66	2	66	67	2	67	68	2	68	69	2	69	70	2	70	71	2	71	72	2	72	73	2	73	74	2	74	75	2	75	76	2	76	77	2	77	78	2	78	79	2	79	80	2	80	81	2	81	82	2	82	83	2	83	84	2	113	114	2	114	115	2	115	116	2	116	117	2	117	118	2	118	119	2	119	120	2	120	121	2	121	122	2	122	123	2	123	124	2	124	125	2	125	126	2	126	127	2	127	128	2	128	129	2	129	130	2	130	131	2	131	132	2	132	133	2	133	134	2	134	135	2	135	136	2	136	137	2	137	138	2	138	139	2	139	140	2	140	141	2	141	142	2	142	143	2	143	144	2	144	145	2	145	146	2	146	147	2	147	148	2	148	149	2	84	85	2	85	86	2	86	87	2	87	88	2	88	89	2	89	90	2	90	91	2	91	92	2	92	93	2	93	94	2	94	95	2	95	96	2	96	97	2	97	98	2	98	99	2	99	100	2	100	101	2	101	102	2	102	103	2	103	104	2	104	105	2	105	106	2	106	107	2	107	108	2	108	109	2	109	110	2	110	111	2	111	112	2	112	113	2	199	0	2	0	1	2	1	2	2	2	3	2	3	4	2	4	5	2	5	6	2	6	7	2	182	183	2	183	184	2	184	185	2	185	186	2	186	187	2	187	188	2	188	189	2	189	190	2	190	191	2	191	192	2	192	193	2	193	194	2	194	195	2	195	196	2	196	197	2	197	198	2	198	199	2	7	8	2	8	9	2	9	10	2	10	11	2	11	12	2	12	13	2	13	14	2	14	15	2	15	16	2	16	17	2	17	18	2	18	19	2	19	20	2	20	21	2	21	22	2	22	23	2	23	24	2	24	25	2	25	26	2	26	27	2	27	28	2	28	29	2	29	30	2	30	31	
CELL_TYPES 200
3	3	3	3	3	3	3	3	3	3	3	3	3	3	3	3	3	3	3	3	3	3	3	3	3	3	3	3	3	3	3	3	3	3	3	3	3	3	3	3	3	3	3	3	3	3	3	3	3	3	3	3	3	3	3	3	3	3	3	3	3	3	3	3	3	3	3	3	3	3	3	3	3	3	3	3	3	3	3	3	3	3	3	3	3	3	3	3	3	3	3	3	3	3	3	3	3	3	3	3	3	3	3	3	3	3	3	3	3	3	3	3	3	3	3	3	3	3	3	3	3	3	3	3	3	3	3	3	3	3	3	3	3	3	3	3	3	3	3	3	3	3	3	3	3	3	3	3	3	3	3	3	3	3	3	3	3	3	3	3	3	3	3	3	3	3	3	3	3	3	3	3	3	3	3	3	3	3	3	3	3	3	3	3	3	3	3	3	3	3	3	3	3	3	3	3	3	3	3	3	
POINT_DATA 200

SCALARS Conservative_1 float 1
LOOKUP_TABLE default
1.199829e+00	1.181604e+00	1.171179e+00	1.164740e+00	1.160167e+00	1.155702e+00	1.148818e+00	1.137900e+00	1.121718e+00	1.100363e+00	1.075074e+00	1.048463e+00	1.024895e+00	1.008360e+00	9.999864e-01	9.979281e-01	9.990373e-01	1.000480e+00	1.000507e+00	9.985187e-01	9.947350e-01	9.897132e-01	9.840387e-01	9.781831e-01	9.724240e-01	9.668724e-01	9.615195e-01	9.563188e-01	9.512056e-01	9.461486e-01	9.411318e-01	9.361113e-01	9.310531e-01	9.259737e-01	9.209243e-01	9.159534e-01	9.110795e-01	9.063072e-01	9.016479e-01	8.971180e-01	8.927173e-01	8.884564e-01	8.843176e-01	8.803177e-01	8.764715e-01	8.728307e-01	8.693847e-01	8.660697e-01	8.627384e-01	8.593814e-01	8.562008e-01	8.535507e-01	8.515447e-01	8.498911e-01	8.479168e-01	8.448706e-01	8.402526e-01	8.342108e-01	8.276246e-01	8.217509e-01	8.174764e-01	8.149941e-01	8.140314e-01	8.141554e-01	8.150563e-01	8.165351e-01	8.185422e-01	8.209942e-01	8.238048e-01	8.268615e-01	8.301833e-01	8.339333e-01	8.383583e-01	8.435264e-01	8.493613e-01	8.557164e-01	8.626566e-01	8.703600e-01	8.788838e-01	8.882674e-01	8.986224e-01	9.100078e-01	9.225751e-01	9.364419e-01	9.517983e-01	9.689215e-01	9.880395e-01	1.009511e+00	1.033822e+00	1.061287e+00	1.092437e+00	1.127740e+00	1.167042e+00	1.209884e+00	1.254554e+00	1.298041e+00	1.331744e+00	1.350900e+00	1.339535e+00	1.308273e+00	1.284261e+00	1.221101e+00	1.099462e+00	1.001984e+00	9.259869e-01	8.702775e-01	8.322949e-01	8.072903e-01	7.904576e-01	7.790573e-01	7.713941e-01	7.662991e-01	7.632125e-01	7.613970e-01	7.604786e-01	7.604535e-01	7.611935e-01	7.624617e-01	7.639365e-01	7.652910e-01	7.665417e-01	7.680127e-01	7.699625e-01	7.722412e-01	7.744496e-01	7.763596e-01	7.780631e-01	7.797071e-01	7.813946e-01	7.831960e-01	7.851666e-01	7.872902e-01	7.894942e-01	7.916781e-01	7.937990e-01	7.958315e-01	7.977657e-01	7.995633e-01	8.012333e-01	8.028919e-01	8.047535e-01	8.069758e-01	8.096077e-01	8.126074e-01	8.159697e-01	8.197464e-01	8.239639e-01	8.285969e-01	8.334900e-01	8.384552e-01	8.432954e-01	8.480616e-01	8.530387e-01	8.585681e-01	8.647074e-01	8.712288e-01	8.779147e-01	8.847665e-01	8.919522e-01	8.995189e-01	9.074143e-01	9.155505e-01	9.238788e-01	9.323870e-01	9.410456e-01	9.498411e-01	9.587232e-01	9.676742e-01	9.766200e-01	9.855630e-01	9.944202e-01	1.003111e+00	1.011573e+00	1.019721e+00	1.027510e+00	1.034919e+00	1.041994e+00	1.048914e+00	1.055941e+00	1.063462e+00	1.071775e+00	1.080977e+00	1.090685e+00	1.100038e+00	1.107784e+00	1.112589e+00	1.113363e+00	1.109742e+00	1.102492e+00	1.093777e+00	1.086675e+00	1.084158e+00	1.088062e+00	1.098278e+00	1.112851e+00	1.130016e+00	1.148479e+00	1.168636e+00	1.192714e+00	1.181127e+00	
SCALARS Conservative_2 float 1
LOOKUP_TABLE default
7.195752e-01	7.459506e-01	7.640411e-01	7.748501e-01	7.807417e-01	7.855149e-01	7.913205e-01	8.009856e-01	8.159950e-01	8.364021e-01	8.604910e-01	8.849343e-01	9.060890e-01	9.215743e-01	9.308010e-01	9.347640e-01	9.355181e-01	9.351576e-01	9.351411e-01	9.360805e-01	9.380293e-01	9.406866e-01	9.436766e-01	9.467090e-01	9.495971e-01	9.522751e-01	9.547381e-01	9.570281e-01	9.591555e-01	9.611526e-01	9.630545e-01	9.648533e-01	9.665634e-01	9.681825e-01	9.696980e-01	9.710978e-01	9.723964e-01	9.735749e-01	9.746435e-01	9.756175e-01	9.764778e-01	9.772594e-01	9.779358e-01	9.785443e-01	9.790521e-01	9.795002e-01	9.798659e-01	9.802012e-01	9.804743e-01	9.807243e-01	9.808923e-01	9.810052e-01	9.810480e-01	9.810776e-01	9.811131e-01	9.811868e-01	9.812256e-01	9.811487e-01	9.808247e-01	9.803292e-01	9.798251e-01	9.794118e-01	9.791622e-01	9.790109e-01	9.789586e-01	9.789147e-01	9.789020e-01	9.788487e-01	9.787683e-01	9.785938e-01	9.783385e-01	9.779488e-01	9.774265e-01	9.766915e-01	9.757311e-01	9.744052e-01	9.727336e-01	9.706217e-01	9.678388e-01	9.642303e-01	9.597058e-01	9.539736e-01	9.467702e-01	9.376786e-01	9.261837e-01	9.115570e-01	8.928667e-01	8.690380e-01	8.384984e-01	7.990983e-01	7.483517e-01	6.832111e-01	6.000129e-01	4.965527e-01	3.728393e-01	2.366331e-01	1.074515e-01	1.080777e-02	-2.157754e-02	5.237570e-03	7.306487e-02	2.105153e-01	4.135417e-01	5.903041e-01	7.153097e-01	7.968793e-01	8.484583e-01	8.813646e-01	9.026311e-01	9.169596e-01	9.269971e-01	9.341629e-01	9.396315e-01	9.439077e-01	9.473386e-01	9.502802e-01	9.527945e-01	9.549679e-01	9.568979e-01	9.585629e-01	9.600484e-01	9.614679e-01	9.628371e-01	9.640682e-01	9.651661e-01	9.661295e-01	9.670142e-01	9.678251e-01	9.686045e-01	9.693491e-01	9.700914e-01	9.708108e-01	9.715111e-01	9.721606e-01	9.727734e-01	9.733340e-01	9.738554e-01	9.743284e-01	9.747673e-01	9.751896e-01	9.756439e-01	9.761091e-01	9.765910e-01	9.770720e-01	9.775470e-01	9.780141e-01	9.784437e-01	9.788393e-01	9.791196e-01	9.793171e-01	9.794137e-01	9.794444e-01	9.793897e-01	9.792225e-01	9.788785e-01	9.783292e-01	9.776102e-01	9.766664e-01	9.755024e-01	9.740600e-01	9.723370e-01	9.703081e-01	9.679780e-01	9.653305e-01	9.623607e-01	9.590623e-01	9.554342e-01	9.515163e-01	9.472427e-01	9.427247e-01	9.379690e-01	9.329942e-01	9.279162e-01	9.227898e-01	9.176699e-01	9.125825e-01	9.074718e-01	9.022149e-01	8.965193e-01	8.900887e-01	8.825874e-01	8.740084e-01	8.647772e-01	8.559767e-01	8.491465e-01	8.458524e-01	8.471040e-01	8.528058e-01	8.614987e-01	8.705172e-01	8.765553e-01	8.769709e-01	8.704570e-01	8.577468e-01	8.395723e-01	8.174812e-01	7.911845e-01	7.596466e-01	7.213200e-01	6.623533e-01	
SCALARS Conservative_3 float 1
LOOKUP_TABLE default
1.010185e-01	1.066668e-01	1.128621e-01	1.197579e-01	1.301709e-01	1.447854e-01	1.632552e-01	1.836672e-01	2.028733e-01	2.169516e-01	2.227196e-01	2.186007e-01	2.055613e-01	1.873955e-01	1.688284e-01	1.535280e-01	1.431324e-01	1.374010e-01	1.349822e-01	1.342439e-01	1.338903e-01	1.331579e-01	1.317612e-01	1.297278e-01	1.272258e-01	1.244549e-01	1.215487e-01	1.185962e-01	1.156233e-01	1.126178e-01	1.095682e-01	1.064542e-01	1.032642e-01	9.999080e-02	9.662006e-02	9.316684e-02	8.962756e-02	8.602071e-02	8.235266e-02	7.863537e-02	7.488206e-02	7.109959e-02	6.730646e-02	6.350417e-02	5.970027e-02	5.588613e-02	5.206551e-02	4.825049e-02	4.446460e-02	4.071220e-02	3.695698e-02	3.314211e-02	2.924514e-02	2.525306e-02	2.119816e-02	1.712438e-02	1.307675e-02	9.042125e-03	4.912851e-03	5.524597e-04	-4.075732e-03	-8.950152e-03	-1.405944e-02	-1.939222e-02	-2.498670e-02	-3.087096e-02	-3.710128e-02	-4.369452e-02	-5.068427e-02	-5.809047e-02	-6.596003e-02	-7.435706e-02	-8.335189e-02	-9.297706e-02	-1.032752e-01	-1.142983e-01	-1.261573e-01	-1.389188e-01	-1.526589e-01	-1.675017e-01	-1.835656e-01	-2.009630e-01	-2.198496e-01	-2.403602e-01	-2.626152e-01	-2.867330e-01	-3.127845e-01	-3.407151e-01	-3.701386e-01	-4.003242e-01	-4.297966e-01	-4.554502e-01	-4.722115e-01	-4.716655e-01	-4.408939e-01	-3.644662e-01	-2.306616e-01	-3.807647e-02	1.857943e-01	3.518872e-01	4.963943e-01	6.611276e-01	7.236547e-01	6.884103e-01	6.112073e-01	5.275295e-01	4.530645e-01	3.913126e-01	3.411345e-01	3.001306e-01	2.665619e-01	2.386424e-01	2.151976e-01	1.952753e-01	1.781398e-01	1.632770e-01	1.503017e-01	1.388621e-01	1.287041e-01	1.195559e-01	1.112188e-01	1.036239e-01	9.672162e-02	9.041949e-02	8.458725e-02	7.907896e-02	7.386904e-02	6.893290e-02	6.426109e-02	5.980326e-02	5.552755e-02	5.140241e-02	4.739657e-02	4.347213e-02	3.960482e-02	3.577484e-02	3.196839e-02	2.816402e-02	2.433241e-02	2.045330e-02	1.653019e-02	1.256561e-02	8.549001e-03	4.448598e-03	2.458963e-04	-4.066481e-03	-8.486322e-03	-1.300535e-02	-1.763903e-02	-2.239525e-02	-2.729348e-02	-3.235536e-02	-3.753286e-02	-4.279782e-02	-4.809872e-02	-5.345473e-02	-5.888099e-02	-6.435745e-02	-6.982661e-02	-7.524495e-02	-8.057212e-02	-8.579506e-02	-9.085527e-02	-9.572376e-02	-1.003306e-01	-1.046516e-01	-1.086163e-01	-1.121899e-01	-1.153170e-01	-1.179536e-01	-1.200590e-01	-1.215994e-01	-1.225758e-01	-1.230138e-01	-1.229861e-01	-1.226383e-01	-1.221452e-01	-1.216845e-01	-1.213278e-01	-1.209110e-01	-1.199021e-01	-1.174054e-01	-1.123039e-01	-1.037137e-01	-9.144532e-02	-7.642053e-02	-6.080170e-02	-4.767437e-02	-4.028234e-02	-4.082837e-02	-4.940781e-02	-6.378663e-02	-8.015929e-02	-9.479861e-02	-1.049846e-01	-1.097971e-01	-1.102826e-01	-1.061987e-01	-1.003425e-01	2.575552e-03	
SCALARS Conservative_4 float 1
LOOKUP_TABLE default
3.446401e+00	3.400791e+00	3.375503e+00	3.359983e+00	3.348834e+00	3.337961e+00	3.320865e+00	3.293677e+00	3.253304e+00	3.199975e+00	3.136709e+00	3.069894e+00	3.010546e+00	2.968889e+00	2.947821e+00	2.942632e+00	2.945378e+00	2.948936e+00	2.948911e+00	2.943780e+00	2.934108e+00	2.921293e+00	2.906806e+00	2.891842e+00	2.877101e+00	2.862869e+00	2.849124e+00	2.835754e+00	2.822590e+00	2.809554e+00	2.796612e+00	2.783646e+00	2.770567e+00	2.757419e+00	2.744334e+00	2.731437e+00	2.718781e+00	2.706372e+00	2.694243e+00	2.682441e+00	2.670959e+00	2.659836e+00	2.649016e+00	2.638554e+00	2.628478e+00	2.618937e+00	2.609893e+00	2.601196e+00	2.592445e+00	2.583630e+00	2.575262e+00	2.568280e+00	2.562977e+00	2.558601e+00	2.553390e+00	2.545383e+00	2.533247e+00	2.517354e+00	2.499973e+00	2.484423e+00	2.473073e+00	2.466453e+00	2.463872e+00	2.464175e+00	2.466555e+00	2.470463e+00	2.475782e+00	2.482271e+00	2.489714e+00	2.497798e+00	2.506583e+00	2.516485e+00	2.528162e+00	2.541776e+00	2.557135e+00	2.573822e+00	2.592034e+00	2.612229e+00	2.634511e+00	2.658967e+00	2.685906e+00	2.715442e+00	2.747960e+00	2.783725e+00	2.823189e+00	2.867008e+00	2.915698e+00	2.970138e+00	3.031479e+00	3.100372e+00	3.178080e+00	3.265649e+00	3.362442e+00	3.467272e+00	3.575827e+00	3.681277e+00	3.762483e+00	3.809724e+00	3.781241e+00	3.702873e+00	3.649640e+00	3.499844e+00	3.190765e+00	2.942858e+00	2.747869e+00	2.604116e+00	2.505879e+00	2.441130e+00	2.397380e+00	2.367653e+00	2.347643e+00	2.334278e+00	2.326201e+00	2.321473e+00	2.319110e+00	2.319141e+00	2.321192e+00	2.324635e+00	2.328639e+00	2.332321e+00	2.335737e+00	2.339755e+00	2.345046e+00	2.351180e+00	2.357115e+00	2.362252e+00	2.366845e+00	2.371275e+00	2.375824e+00	2.380670e+00	2.385967e+00	2.391666e+00	2.397577e+00	2.403427e+00	2.409108e+00	2.414548e+00	2.419725e+00	2.424536e+00	2.429008e+00	2.433451e+00	2.438441e+00	2.444382e+00	2.451407e+00	2.459401e+00	2.468350e+00	2.478391e+00	2.489587e+00	2.501874e+00	2.514821e+00	2.527948e+00	2.540733e+00	2.553320e+00	2.566455e+00	2.581027e+00	2.597174e+00	2.614290e+00	2.631815e+00	2.649740e+00	2.668511e+00	2.688239e+00	2.708788e+00	2.729921e+00	2.751512e+00	2.773527e+00	2.795885e+00	2.818553e+00	2.841395e+00	2.864376e+00	2.887279e+00	2.910141e+00	2.932740e+00	2.954863e+00	2.976369e+00	2.997046e+00	3.016780e+00	3.035522e+00	3.053386e+00	3.070833e+00	3.088499e+00	3.107369e+00	3.128167e+00	3.151146e+00	3.175353e+00	3.198672e+00	3.218031e+00	3.230134e+00	3.232248e+00	3.223406e+00	3.205424e+00	3.183661e+00	3.165771e+00	3.159217e+00	3.168677e+00	3.194028e+00	3.230159e+00	3.272671e+00	3.318104e+00	3.367492e+00	3.426997e+00	3.383859e+00	
SCALARS Pressure float 1
LOOKUP_TABLE default
1.290549e+00	1.264206e+00	1.248339e+00	1.238436e+00	1.231531e+00	1.224776e+00	1.214692e+00	1.198776e+00	1.175264e+00	1.144283e+00	1.107708e+00	1.069460e+00	1.035762e+00	1.012139e+00	1.000147e+00	9.972093e-01	9.988426e-01	1.000980e+00	1.001113e+00	9.983931e-01	9.931275e-01	9.861164e-01	9.782000e-01	9.700463e-01	9.620501e-01	9.543640e-01	9.469756e-01	9.398127e-01	9.327906e-01	9.258616e-01	9.189962e-01	9.121416e-01	9.052506e-01	8.983451e-01	8.914952e-01	8.847670e-01	8.781809e-01	8.717488e-01	8.654829e-01	8.594006e-01	8.535081e-01	8.478089e-01	8.422889e-01	8.369592e-01	8.318503e-01	8.270178e-01	8.224563e-01	8.180660e-01	8.136644e-01	8.092261e-01	8.050372e-01	8.015564e-01	7.989405e-01	7.967875e-01	7.942036e-01	7.901844e-01	7.840882e-01	7.761283e-01	7.675067e-01	7.598672e-01	7.543418e-01	7.511615e-01	7.499420e-01	7.501282e-01	7.513048e-01	7.532347e-01	7.558408e-01	7.590323e-01	7.626855e-01	7.666691e-01	7.709984e-01	7.759012e-01	7.816947e-01	7.884848e-01	7.961619e-01	8.045644e-01	8.137525e-01	8.239706e-01	8.353416e-01	8.479317e-01	8.618746e-01	8.772882e-01	8.943861e-01	9.133678e-01	9.345318e-01	9.583149e-01	9.851032e-01	1.015434e+00	1.050072e+00	1.089611e+00	1.134885e+00	1.186691e+00	1.245066e+00	1.309375e+00	1.377181e+00	1.443416e+00	1.495269e+00	1.523658e+00	1.507273e+00	1.462215e+00	1.420651e+00	1.321090e+00	1.149936e+00	1.012995e+00	9.079477e-01	8.317584e-01	7.800390e-01	7.460693e-01	7.233632e-01	7.080819e-01	6.978373e-01	6.910876e-01	6.869787e-01	6.845392e-01	6.832757e-01	6.831464e-01	6.840165e-01	6.855803e-01	6.873991e-01	6.890640e-01	6.905865e-01	6.923754e-01	6.947829e-01	6.976453e-01	7.004285e-01	7.028326e-01	7.049650e-01	7.070252e-01	7.091391e-01	7.114050e-01	7.138874e-01	7.165729e-01	7.193633e-01	7.221356e-01	7.248279e-01	7.274121e-01	7.298712e-01	7.321573e-01	7.342782e-01	7.363838e-01	7.387437e-01	7.415756e-01	7.449417e-01	7.487909e-01	7.531161e-01	7.579849e-01	7.634402e-01	7.694441e-01	7.758151e-01	7.822909e-01	7.886158e-01	7.948450e-01	8.013605e-01	8.086178e-01	8.167096e-01	8.253408e-01	8.342109e-01	8.433373e-01	8.529354e-01	8.630811e-01	8.737033e-01	8.846922e-01	8.959814e-01	9.075575e-01	9.193831e-01	9.314404e-01	9.436654e-01	9.560232e-01	9.684383e-01	9.808832e-01	9.932525e-01	1.005441e+00	1.017341e+00	1.028836e+00	1.039853e+00	1.050361e+00	1.060427e+00	1.070303e+00	1.080378e+00	1.091202e+00	1.103225e+00	1.116575e+00	1.130696e+00	1.144300e+00	1.155524e+00	1.162391e+00	1.163331e+00	1.157881e+00	1.147239e+00	1.134594e+00	1.124446e+00	1.121061e+00	1.127015e+00	1.141996e+00	1.163403e+00	1.188657e+00	1.216114e+00	1.246308e+00	1.281864e+00	1.279255e+00	
SCALARS Temperature float 1
LOOKUP_TABLE default
1.075611e+00	1.069907e+00	1.065882e+00	1.063272e+00	1.061512e+00	1.059768e+00	1.057341e+00	1.053499e+00	1.047735e+00	1.039914e+00	1.030355e+00	1.020027e+00	1.010603e+00	1.003747e+00	1.000161e+00	9.992798e-01	9.998050e-01	1.000500e+00	1.000606e+00	9.998742e-01	9.983840e-01	9.963657e-01	9.940665e-01	9.916817e-01	9.893319e-01	9.870631e-01	9.848741e-01	9.827400e-01	9.806404e-01	9.785583e-01	9.764798e-01	9.743944e-01	9.722868e-01	9.701626e-01	9.680439e-01	9.659520e-01	9.638905e-01	9.618689e-01	9.598901e-01	9.579571e-01	9.560787e-01	9.542493e-01	9.524733e-01	9.507468e-01	9.490899e-01	9.475123e-01	9.460211e-01	9.445730e-01	9.431183e-01	9.416380e-01	9.402435e-01	9.390847e-01	9.382249e-01	9.375172e-01	9.366527e-01	9.352727e-01	9.331577e-01	9.303743e-01	9.273609e-01	9.246930e-01	9.227689e-01	9.216773e-01	9.212691e-01	9.213575e-01	9.217827e-01	9.224769e-01	9.233986e-01	9.245282e-01	9.258085e-01	9.272037e-01	9.287087e-01	9.304116e-01	9.324112e-01	9.347482e-01	9.373654e-01	9.402232e-01	9.433099e-01	9.467009e-01	9.504573e-01	9.545906e-01	9.591065e-01	9.640447e-01	9.694453e-01	9.753598e-01	9.818591e-01	9.890532e-01	9.970282e-01	1.005867e+00	1.015718e+00	1.026689e+00	1.038856e+00	1.052274e+00	1.066856e+00	1.082232e+00	1.097745e+00	1.111996e+00	1.122791e+00	1.127884e+00	1.125221e+00	1.117669e+00	1.106201e+00	1.081884e+00	1.045908e+00	1.010990e+00	9.805189e-01	9.557393e-01	9.372146e-01	9.241648e-01	9.151195e-01	9.088958e-01	9.046443e-01	9.018511e-01	9.001146e-01	8.990568e-01	8.984812e-01	8.983408e-01	8.986105e-01	8.991669e-01	8.998117e-01	9.003948e-01	9.009118e-01	9.015155e-01	9.023595e-01	9.034034e-01	9.044211e-01	9.052926e-01	9.060512e-01	9.067831e-01	9.075301e-01	9.083359e-01	9.092178e-01	9.101764e-01	9.111698e-01	9.121581e-01	9.131126e-01	9.140278e-01	9.148942e-01	9.156965e-01	9.164350e-01	9.171643e-01	9.179751e-01	9.189564e-01	9.201268e-01	9.214670e-01	9.229706e-01	9.246578e-01	9.265457e-01	9.286109e-01	9.308032e-01	9.330146e-01	9.351596e-01	9.372492e-01	9.394187e-01	9.418214e-01	9.444925e-01	9.473295e-01	9.502186e-01	9.531750e-01	9.562569e-01	9.594919e-01	9.628495e-01	9.662954e-01	9.698041e-01	9.733700e-01	9.769804e-01	9.806276e-01	9.842939e-01	9.879598e-01	9.916225e-01	9.952517e-01	9.988257e-01	1.002323e+00	1.005703e+00	1.008938e+00	1.012013e+00	1.014921e+00	1.017691e+00	1.020392e+00	1.023143e+00	1.026085e+00	1.029344e+00	1.032931e+00	1.036684e+00	1.040237e+00	1.043095e+00	1.044762e+00	1.044881e+00	1.043378e+00	1.040587e+00	1.037317e+00	1.034758e+00	1.034038e+00	1.035801e+00	1.039806e+00	1.045425e+00	1.051894e+00	1.058892e+00	1.066464e+00	1.074745e+00	1.083080e+00	
SCALARS Pressure_Coefficient float 1
LOOKUP_TABLE default
6.485464e-01	5.897459e-01	5.543271e-01	5.322230e-01	5.168113e-01	5.017321e-01	4.792225e-01	4.436971e-01	3.912148e-01	3.220601e-01	2.404193e-01	1.550444e-01	7.982534e-02	2.709589e-02	3.284841e-04	-6.229142e-03	-2.583591e-03	2.188596e-03	2.484530e-03	-3.586768e-03	-1.534034e-02	-3.099023e-02	-4.866080e-02	-6.686102e-02	-8.470957e-02	-1.018661e-01	-1.183580e-01	-1.343467e-01	-1.500209e-01	-1.654875e-01	-1.808121e-01	-1.961125e-01	-2.114942e-01	-2.269083e-01	-2.421982e-01	-2.572166e-01	-2.719176e-01	-2.862751e-01	-3.002613e-01	-3.138379e-01	-3.269909e-01	-3.397124e-01	-3.520336e-01	-3.639303e-01	-3.753342e-01	-3.861210e-01	-3.963030e-01	-4.061026e-01	-4.159277e-01	-4.258345e-01	-4.351848e-01	-4.429545e-01	-4.487936e-01	-4.535993e-01	-4.593670e-01	-4.683385e-01	-4.819460e-01	-4.997136e-01	-5.189583e-01	-5.360106e-01	-5.483442e-01	-5.554430e-01	-5.581653e-01	-5.577496e-01	-5.551232e-01	-5.508154e-01	-5.449982e-01	-5.378744e-01	-5.297199e-01	-5.208280e-01	-5.111642e-01	-5.002206e-01	-4.872887e-01	-4.721321e-01	-4.549957e-01	-4.362403e-01	-4.157311e-01	-3.929229e-01	-3.675411e-01	-3.394382e-01	-3.083157e-01	-2.739102e-01	-2.357454e-01	-1.933755e-01	-1.461343e-01	-9.304715e-02	-3.325178e-02	3.445112e-02	1.117674e-01	2.000254e-01	3.010815e-01	4.167208e-01	5.470225e-01	6.905701e-01	8.419217e-01	9.897684e-01	1.105511e+00	1.168879e+00	1.132306e+00	1.031731e+00	9.389535e-01	7.167179e-01	3.346794e-01	2.900736e-02	-2.054739e-01	-3.755393e-01	-4.909844e-01	-5.668096e-01	-6.174929e-01	-6.516029e-01	-6.744703e-01	-6.895365e-01	-6.987082e-01	-7.041535e-01	-7.069738e-01	-7.072625e-01	-7.053204e-01	-7.018297e-01	-6.977700e-01	-6.940535e-01	-6.906551e-01	-6.866621e-01	-6.812881e-01	-6.748988e-01	-6.686864e-01	-6.633201e-01	-6.585602e-01	-6.539616e-01	-6.492432e-01	-6.441853e-01	-6.386441e-01	-6.326497e-01	-6.264213e-01	-6.202331e-01	-6.142235e-01	-6.084552e-01	-6.029660e-01	-5.978632e-01	-5.931289e-01	-5.884290e-01	-5.831615e-01	-5.768402e-01	-5.693266e-01	-5.607346e-01	-5.510801e-01	-5.402124e-01	-5.280352e-01	-5.146338e-01	-5.004127e-01	-4.859578e-01	-4.718397e-01	-4.579353e-01	-4.433918e-01	-4.271924e-01	-4.091303e-01	-3.898644e-01	-3.700650e-01	-3.496936e-01	-3.282692e-01	-3.056226e-01	-2.819122e-01	-2.573834e-01	-2.321844e-01	-2.063448e-01	-1.799485e-01	-1.530348e-01	-1.257468e-01	-9.816256e-02	-7.045016e-02	-4.267133e-02	-1.506149e-02	1.214549e-02	3.870841e-02	6.436586e-02	8.895867e-02	1.124122e-01	1.348826e-01	1.569272e-01	1.794154e-01	2.035764e-01	2.304135e-01	2.602117e-01	2.917328e-01	3.220989e-01	3.471515e-01	3.624793e-01	3.645783e-01	3.524136e-01	3.286575e-01	3.004331e-01	2.777823e-01	2.702246e-01	2.835164e-01	3.169548e-01	3.647379e-01	4.211105e-01	4.823984e-01	5.497952e-01	6.291603e-01	6.233379e-01	
SCALARS Mach float 1
LOOKUP_TABLE default
4.935184e-01	5.210705e-01	5.398363e-01	5.517325e-01	5.596470e-01	5.674059e-01	5.780707e-01	5.946576e-01	6.189245e-01	6.508124e-01	6.883845e-01	7.275289e-01	7.621410e-01	7.867494e-01	7.994525e-01	8.025558e-01	8.007064e-01	7.982549e-01	7.978832e-01	8.004625e-01	8.057045e-01	8.127748e-01	8.207896e-01	8.290597e-01	8.371667e-01	8.449568e-01	8.524387e-01	8.597020e-01	8.668191e-01	8.738492e-01	8.808409e-01	8.878300e-01	8.948684e-01	9.019369e-01	9.089630e-01	9.158775e-01	9.226696e-01	9.293100e-01	9.357909e-01	9.421044e-01	9.482237e-01	9.541687e-01	9.599262e-01	9.655110e-01	9.708592e-01	9.759417e-01	9.807368e-01	9.853855e-01	9.900476e-01	9.947842e-01	9.992394e-01	1.002936e+00	1.005676e+00	1.007930e+00	1.010680e+00	1.015067e+00	1.021777e+00	1.030587e+00	1.040100e+00	1.048501e+00	1.054549e+00	1.057975e+00	1.059256e+00	1.058979e+00	1.057645e+00	1.055466e+00	1.052570e+00	1.049020e+00	1.044991e+00	1.040595e+00	1.035848e+00	1.030469e+00	1.024142e+00	1.016732e+00	1.008413e+00	9.993042e-01	9.894342e-01	9.785519e-01	9.664460e-01	9.530604e-01	9.383524e-01	9.221622e-01	9.043183e-01	8.845977e-01	8.626915e-01	8.381256e-01	8.104578e-01	7.791873e-01	7.434719e-01	7.024373e-01	6.550415e-01	5.998755e-01	5.353410e-01	4.598685e-01	3.712584e-01	2.683073e-01	1.524010e-01	2.331650e-02	1.112512e-01	2.150467e-01	3.139400e-01	4.616895e-01	6.264773e-01	7.607377e-01	8.672299e-01	9.493278e-01	1.008893e+00	1.050162e+00	1.078500e+00	1.097892e+00	1.111094e+00	1.119749e+00	1.125124e+00	1.128395e+00	1.130174e+00	1.130608e+00	1.129775e+00	1.128055e+00	1.126060e+00	1.124257e+00	1.122657e+00	1.120788e+00	1.118175e+00	1.114941e+00	1.111786e+00	1.109082e+00	1.106728e+00	1.104456e+00	1.102136e+00	1.099632e+00	1.096890e+00	1.093908e+00	1.090816e+00	1.087737e+00	1.084762e+00	1.081908e+00	1.079204e+00	1.076698e+00	1.074391e+00	1.072111e+00	1.069575e+00	1.066504e+00	1.062838e+00	1.058635e+00	1.053915e+00	1.048612e+00	1.042669e+00	1.036157e+00	1.029231e+00	1.022230e+00	1.015426e+00	1.008783e+00	1.001871e+00	9.941977e-01	9.856438e-01	9.765299e-01	9.672170e-01	9.576529e-01	9.476440e-01	9.370930e-01	9.260916e-01	9.147438e-01	9.031277e-01	8.912542e-01	8.791596e-01	8.668622e-01	8.544163e-01	8.418823e-01	8.292645e-01	8.166635e-01	8.041527e-01	7.918077e-01	7.797751e-01	7.681569e-01	7.570228e-01	7.464012e-01	7.361985e-01	7.261679e-01	7.158614e-01	7.047354e-01	6.922785e-01	6.783953e-01	6.636653e-01	6.495145e-01	6.379776e-01	6.311789e-01	6.306938e-01	6.368257e-01	6.481123e-01	6.611589e-01	6.712508e-01	6.740718e-01	6.671528e-01	6.512431e-01	6.284628e-01	6.014858e-01	5.712729e-01	5.371532e-01	4.977793e-01	4.554095e-01	