# vtk DataFile Version 3.0
vtk output
ASCII
DATASET UNSTRUCTURED_GRID
POINTS 5233 float
9.997500e-01	-3.633229e-05	0.0	9.990000e-01	-1.454639e-04	0.0	9.977600e-01	-3.274154e-04	0.0	9.960200e-01	-5.894302e-04	0.0	9.937800e-01	-9.452990e-04	0.0	9.910500e-01	-1.417132e-03	0.0	9.878400e-01	-2.034228e-03	0.0	9.841300e-01	-2.831525e-03	0.0	9.799500e-01	-3.820551e-03	0.0	9.752800e-01	-4.998472e-03	0.0	9.701500e-01	-6.319846e-03	0.0	9.645400e-01	-7.728270e-03	0.0	9.584700e-01	-9.150956e-03	0.0	9.519400e-01	-1.053452e-02	0.0	9.449600e-01	-1.185203e-02	0.0	9.375400e-01	-1.310775e-02	0.0	9.296900e-01	-1.432812e-02	0.0	9.214000e-01	-1.555022e-02	0.0	9.127000e-01	-1.680040e-02	0.0	9.035800e-01	-1.809909e-02	0.0	8.940600e-01	-1.944986e-02	0.0	8.841500e-01	-2.084827e-02	0.0	8.738500e-01	-2.228641e-02	0.0	8.631800e-01	-2.375248e-02	0.0	8.521600e-01	-2.523605e-02	0.0	8.407700e-01	-2.673406e-02	0.0	8.290500e-01	-2.823735e-02	0.0	8.170100e-01	-2.974207e-02	0.0	8.046400e-01	-3.124742e-02	0.0	7.919700e-01	-3.274778e-02	0.0	7.790100e-01	-3.423993e-02	0.0	7.657800e-01	-3.571931e-02	0.0	7.522800e-01	-3.718346e-02	0.0	7.385200e-01	-3.862860e-02	0.0	7.245300e-01	-4.004895e-02	0.0	7.103200e-01	-4.144095e-02	0.0	6.958900e-01	-4.280209e-02	0.0	6.812700e-01	-4.412720e-02	0.0	6.664700e-01	-4.541330e-02	0.0	6.515000e-01	-4.665759e-02	0.0	6.363800e-01	-4.785671e-02	0.0	6.211300e-01	-4.900768e-02	0.0	6.057600e-01	-5.010852e-02	0.0	5.902800e-01	-5.115748e-02	0.0	5.747100e-01	-5.215234e-02	0.0	5.590600e-01	-5.309177e-02	0.0	5.433600e-01	-5.397343e-02	0.0	5.276100e-01	-5.479695e-02	0.0	5.118400e-01	-5.556042e-02	0.0	4.960500e-01	-5.626356e-02	0.0	4.802700e-01	-5.690476e-02	0.0	4.645100e-01	-5.748338e-02	0.0	4.487800e-01	-5.799872e-02	0.0	4.331100e-01	-5.844944e-02	0.0	4.175000e-01	-5.883511e-02	0.0	4.019700e-01	-5.915461e-02	0.0	3.865400e-01	-5.940689e-02	0.0	3.712300e-01	-5.959088e-02	0.0	3.560400e-01	-5.970565e-02	0.0	3.409900e-01	-5.974995e-02	0.0	3.261100e-01	-5.972258e-02	0.0	3.114000e-01	-5.962235e-02	0.0	2.968700e-01	-5.944787e-02	0.0	2.825500e-01	-5.919808e-02	0.0	2.684500e-01	-5.887171e-02	0.0	2.545700e-01	-5.846717e-02	0.0	2.409400e-01	-5.798370e-02	0.0	2.275700e-01	-5.742016e-02	0.0	2.144700e-01	-5.677540e-02	0.0	2.016600e-01	-5.604894e-02	0.0	1.891400e-01	-5.523929e-02	0.0	1.769300e-01	-5.434626e-02	0.0	1.650400e-01	-5.336927e-02	0.0	1.534900e-01	-5.230880e-02	0.0	1.422900e-01	-5.116486e-02	0.0	1.314400e-01	-4.993645e-02	0.0	1.209500e-01	-4.862362e-02	0.0	1.108500e-01	-4.722949e-02	0.0	1.011300e-01	-4.575215e-02	0.0	9.181000e-02	-4.419404e-02	0.0	8.290000e-02	-4.255658e-02	0.0	7.440000e-02	-4.083942e-02	0.0	6.633000e-02	-3.904641e-02	0.0	5.869000e-02	-3.717750e-02	0.0	5.149000e-02	-3.523498e-02	0.0	4.474000e-02	-3.322163e-02	0.0	3.844000e-02	-3.113736e-02	0.0	3.260000e-02	-2.898519e-02	0.0	2.723000e-02	-2.676897e-02	0.0	2.232000e-02	-2.448381e-02	0.0	1.790000e-02	-2.214369e-02	0.0	1.395000e-02	-1.973785e-02	0.0	1.049000e-02	-1.727738e-02	0.0	7.520000e-03	-1.476296e-02	0.0	5.040000e-03	-1.219435e-02	0.0	3.050000e-03	-9.569420e-03	0.0	1.560000e-03	-6.902152e-03	0.0	5.600000e-04	-4.169825e-03	0.0	6.000000e-05	-1.375787e-03	0.0	0.000000e+00	0.000000e+00	0.0	6.000000e-05	1.262832e-03	0.0	5.600000e-04	3.623023e-03	0.0	1.560000e-03	5.787563e-03	0.0	3.050000e-03	7.807963e-03	0.0	5.040000e-03	9.728782e-03	0.0	7.520000e-03	1.155720e-02	0.0	1.049000e-02	1.330764e-02	0.0	1.395000e-02	1.499004e-02	0.0	1.790000e-02	1.661177e-02	0.0	2.232000e-02	1.817194e-02	0.0	2.723000e-02	1.968324e-02	0.0	3.260000e-02	2.114114e-02	0.0	3.844000e-02	2.255300e-02	0.0	4.474000e-02	2.391990e-02	0.0	5.149000e-02	2.524302e-02	0.0	5.869000e-02	2.652525e-02	0.0	6.633000e-02	2.776724e-02	0.0	7.440000e-02	2.896970e-02	0.0	8.290000e-02	3.013459e-02	0.0	9.181000e-02	3.126102e-02	0.0	1.011300e-01	3.235070e-02	0.0	1.108500e-01	3.340390e-02	0.0	1.209500e-01	3.441989e-02	0.0	1.314400e-01	3.540087e-02	0.0	1.422900e-01	3.634511e-02	0.0	1.534900e-01	3.725285e-02	0.0	1.650400e-01	3.812497e-02	0.0	1.769300e-01	3.896139e-02	0.0	1.891400e-01	3.976125e-02	0.0	2.016600e-01	4.052440e-02	0.0	2.144700e-01	4.124998e-02	0.0	2.275700e-01	4.193815e-02	0.0	2.409400e-01	4.258781e-02	0.0	2.545700e-01	4.319827e-02	0.0	2.684500e-01	4.376866e-02	0.0	2.825500e-01	4.429714e-02	0.0	2.968700e-01	4.478295e-02	0.0	3.114000e-01	4.522463e-02	0.0	3.261100e-01	4.562001e-02	0.0	3.409900e-01	4.596737e-02	0.0	3.560400e-01	4.626492e-02	0.0	3.712300e-01	4.651010e-02	0.0	3.865400e-01	4.670047e-02	0.0	4.019700e-01	4.683369e-02	0.0	4.175000e-01	4.690702e-02	0.0	4.331100e-01	4.691769e-02	0.0	4.487800e-01	4.686296e-02	0.0	4.645100e-01	4.673998e-02	0.0	4.802700e-01	4.654607e-02	0.0	4.960500e-01	4.627856e-02	0.0	5.118400e-01	4.593479e-02	0.0	5.276100e-01	4.551282e-02	0.0	5.433600e-01	4.501022e-02	0.0	5.590600e-01	4.442582e-02	0.0	5.747100e-01	4.375778e-02	0.0	5.902800e-01	4.300599e-02	0.0	6.057600e-01	4.217008e-02	0.0	6.211300e-01	4.125082e-02	0.0	6.363800e-01	4.024911e-02	0.0	6.515000e-01	3.916650e-02	0.0	6.664700e-01	3.800601e-02	0.0	6.812700e-01	3.677165e-02	0.0	6.958900e-01	3.546747e-02	0.0	7.103200e-01	3.409828e-02	0.0	7.245300e-01	3.267173e-02	0.0	7.385200e-01	3.119338e-02	0.0	7.522800e-01	2.967043e-02	0.0	7.657800e-01	2.811310e-02	0.0	7.790100e-01	2.653014e-02	0.0	7.919700e-01	2.492956e-02	0.0	8.046400e-01	2.332228e-02	0.0	8.170100e-01	2.171829e-02	0.0	8.290500e-01	2.013028e-02	0.0	8.407700e-01	1.856531e-02	0.0	8.521600e-01	1.703210e-02	0.0	8.631800e-01	1.554175e-02	0.0	8.738500e-01	1.409502e-02	0.0	8.841500e-01	1.269546e-02	0.0	8.940600e-01	1.134464e-02	0.0	9.035800e-01	1.004119e-02	0.0	9.127000e-01	8.788006e-03	0.0	9.214000e-01	7.595895e-03	0.0	9.296900e-01	6.480827e-03	0.0	9.375400e-01	5.472810e-03	0.0	9.449600e-01	4.599792e-03	0.0	9.519400e-01	3.885777e-03	0.0	9.584700e-01	3.336726e-03	0.0	9.645400e-01	2.933388e-03	0.0	9.701500e-01	2.632778e-03	0.0	9.752800e-01	2.381537e-03	0.0	9.799500e-01	2.129421e-03	0.0	9.841300e-01	1.848048e-03	0.0	9.878400e-01	1.530620e-03	0.0	9.910500e-01	1.194917e-03	0.0	9.937800e-01	8.647277e-04	0.0	9.960200e-01	5.670984e-04	0.0	9.977600e-01	3.232757e-04	0.0	9.990000e-01	1.450863e-04	0.0	9.997500e-01	3.632631e-05	0.0	1.000000e+00	0.000000e+00	0.0	1.984229e+01	2.506660e+00	0.0	1.937166e+01	4.973800e+00	0.0	1.859553e+01	7.362490e+00	0.0	1.752613e+01	9.635070e+00	0.0	1.618034e+01	1.175571e+01	0.0	1.457937e+01	1.369094e+01	0.0	1.274848e+01	1.541027e+01	0.0	1.071654e+01	1.688656e+01	0.0	8.515590e+00	1.809654e+01	0.0	6.180340e+00	1.902113e+01	0.0	3.747630e+00	1.964575e+01	0.0	1.255810e+00	1.996053e+01	0.0	-1.255810e+00	1.996053e+01	0.0	-3.747630e+00	1.964574e+01	0.0	-6.180340e+00	1.902113e+01	0.0	-8.515590e+00	1.809654e+01	0.0	-1.071654e+01	1.688656e+01	0.0	-1.274848e+01	1.541026e+01	0.0	-1.457937e+01	1.369094e+01	0.0	-1.618034e+01	1.175570e+01	0.0	-1.752613e+01	9.635070e+00	0.0	-1.859553e+01	7.362490e+00	0.0	-1.937166e+01	4.973800e+00	0.0	-1.984229e+01	2.506660e+00	0.0	-2.000000e+01	0.000000e+00	0.0	-1.984229e+01	-2.506670e+00	0.0	-1.937166e+01	-4.973800e+00	0.0	-1.859553e+01	-7.362490e+00	0.0	-1.752613e+01	-9.635080e+00	0.0	-1.618034e+01	-1.175571e+01	0.0	-1.457937e+01	-1.369094e+01	0.0	-1.274848e+01	-1.541027e+01	0.0	-1.071653e+01	-1.688656e+01	0.0	-8.515580e+00	-1.809654e+01	0.0	-6.180340e+00	-1.902113e+01	0.0	-3.747620e+00	-1.964575e+01	0.0	-1.255810e+00	-1.996053e+01	0.0	1.255810e+00	-1.996053e+01	0.0	3.747630e+00	-1.964574e+01	0.0	6.180340e+00	-1.902113e+01	0.0	8.515590e+00	-1.809654e+01	0.0	1.071654e+01	-1.688656e+01	0.0	1.274848e+01	-1.541026e+01	0.0	1.457937e+01	-1.369094e+01	0.0	1.618034e+01	-1.175570e+01	0.0	1.752614e+01	-9.635070e+00	0.0	1.859553e+01	-7.362490e+00	0.0	1.937166e+01	-4.973790e+00	0.0	1.984229e+01	-2.506660e+00	0.0	2.000000e+01	0.000000e+00	0.0	6.074671e-02	-4.504712e-02	0.0	6.601914e-01	-5.969986e-02	0.0	4.255350e-01	6.115064e-02	0.0	6.897482e-01	4.932991e-02	0.0	3.791264e-01	-7.355069e-02	0.0	9.994671e-01	-7.273432e-04	0.0	9.985539e-01	-1.330703e-03	0.0	7.738073e-01	-4.705350e-02	0.0	6.898608e-01	-5.681067e-02	0.0	-1.119663e-03	5.516791e-03	0.0	7.467763e-01	-5.045813e-02	0.0	5.833025e-01	5.746777e-02	0.0	9.928139e-01	-3.729936e-03	0.0	9.899328e-01	-4.732521e-03	0.0	5.988795e-01	5.658420e-02	0.0	7.187631e-01	-5.371711e-02	0.0	-1.461478e-03	6.042259e-04	0.0	9.865680e-01	-5.886167e-03	0.0	9.827266e-01	-7.193461e-03	0.0	-1.287799e-03	-6.417735e-03	0.0	6.451091e-01	-6.106049e-02	0.0	8.244722e-01	-3.997185e-02	0.0	7.997342e-01	-4.355554e-02	0.0	3.484775e-01	5.991487e-02	0.0	8.478908e-01	-3.635832e-02	0.0	2.473822e-01	5.547006e-02	0.0	8.699295e-01	-3.273880e-02	0.0	1.046750e-02	1.735295e-02	0.0	8.904821e-01	-2.916855e-02	0.0	7.702252e-02	-4.943969e-02	0.0	9.094765e-01	-2.570103e-02	0.0	-1.757394e-03	-3.179933e-03	0.0	9.424676e-01	-1.898756e-02	0.0	9.268326e-01	-2.233797e-02	0.0	1.796305e-02	-2.726058e-02	0.0	4.257471e-01	-7.294591e-02	0.0	8.590917e-01	-3.454390e-02	0.0	9.563215e-01	-1.552643e-02	0.0	9.784007e-01	-8.675543e-03	0.0	9.683184e-01	-1.198729e-02	0.0	1.582556e-01	-6.343012e-02	0.0	9.001810e-01	-2.742005e-02	0.0	7.604246e-01	-4.877096e-02	0.0	9.971351e-01	-2.085674e-03	0.0	5.990566e-01	-6.477168e-02	0.0	4.414502e-01	-7.258147e-02	0.0	5.363276e-01	-6.877258e-02	0.0	4.730228e-01	-7.161684e-02	0.0	5.046844e-01	-7.034473e-02	0.0	4.888417e-01	-7.101794e-02	0.0	1.249437e-01	-5.887247e-02	0.0	2.785685e-02	-3.271345e-02	0.0	3.945730e-01	-7.343238e-02	0.0	4.622682e-02	-4.034447e-02	0.0	4.101146e-01	-7.323107e-02	0.0	3.187138e-01	-7.318124e-02	0.0	3.486138e-01	-7.354064e-02	0.0	3.351885e-02	-3.531838e-02	0.0	2.895074e-01	-7.247480e-02	0.0	9.348699e-01	-2.066877e-02	0.0	1.467974e-01	-6.200149e-02	0.0	1.946354e-01	-6.713684e-02	0.0	8.579517e-02	-5.150780e-02	0.0	1.045836e-01	-5.538085e-02	0.0	5.678299e-01	-6.691842e-02	0.0	1.700577e-01	-6.476468e-02	0.0	6.145333e-01	-6.359582e-02	0.0	8.804000e-01	-3.094494e-02	0.0	2.268219e-02	-3.002581e-02	0.0	9.952205e-01	-2.866896e-03	0.0	6.753553e-03	-1.864966e-02	0.0	1.849578e-02	2.152402e-02	0.0	9.183629e-01	-2.400972e-02	0.0	9.49625
[...]
POINT_DATA 5233

SCALARS Conservative_1 float 1
LOOKUP_TABLE default
-9.647799e-02	-1.873993e-01	-1.871941e-01	-1.873642e-01	-1.905172e-01	-1.896410e-01	-1.840953e-01	-1.717284e-01	-1.509565e-01	-1.214504e-01	-8.493818e-02	-4.541514e-02	-9.089022e-03	1.768436e-02	3.147421e-02	3.389931e-02	3.034440e-02	2.618411e-02	2.478486e-02	2.701712e-02	3.255034e-02	4.042199e-02	4.955463e-02	5.919181e-02	6.875041e-02	7.805223e-02	8.704092e-02	9.579283e-02	1.044997e-01	1.132157e-01	1.220616e-01	1.310330e-01	1.400853e-01	1.491684e-01	1.582161e-01	1.672013e-01	1.761373e-01	1.850716e-01	1.939525e-01	2.027289e-01	2.113267e-01	2.197335e-01	2.279190e-01	2.359060e-01	2.436893e-01	2.512932e-01	2.587243e-01	2.660141e-01	2.732548e-01	2.805032e-01	2.877705e-01	2.949374e-01	3.016819e-01	3.077348e-01	3.132474e-01	3.187116e-01	3.246594e-01	3.313692e-01	3.389049e-01	3.471601e-01	3.561715e-01	3.659233e-01	3.762354e-01	3.863049e-01	3.945862e-01	3.989202e-01	3.973701e-01	3.891397e-01	3.755268e-01	3.595222e-01	3.445046e-01	3.323081e-01	3.224451e-01	3.127600e-01	3.011928e-01	2.872276e-01	2.714955e-01	2.546708e-01	2.366894e-01	2.173114e-01	1.963827e-01	1.738190e-01	1.494748e-01	1.231254e-01	9.449435e-02	6.335315e-02	2.931808e-02	-7.889374e-03	-4.876096e-02	-9.354536e-02	-1.426744e-01	-1.959734e-01	-2.535067e-01	-3.129923e-01	-3.728661e-01	-4.255253e-01	-4.675095e-01	-4.947851e-01	-4.912708e-01	-4.634577e-01	-4.256317e-01	-3.398122e-01	-2.010608e-01	-5.178310e-02	8.680060e-02	2.046282e-01	2.880211e-01	3.340911e-01	3.637479e-01	4.057392e-01	4.648647e-01	5.204016e-01	5.519394e-01	5.559432e-01	5.418974e-01	5.209743e-01	4.993569e-01	4.789319e-01	4.601243e-01	4.431242e-01	4.278853e-01	4.139398e-01	4.010776e-01	3.895090e-01	3.795244e-01	3.711138e-01	3.639181e-01	3.575924e-01	3.520431e-01	3.473080e-01	3.434473e-01	3.403923e-01	3.380016e-01	3.361236e-01	3.344945e-01	3.329610e-01	3.315259e-01	3.305871e-01	3.304986e-01	3.318269e-01	3.356269e-01	3.423093e-01	3.497232e-01	3.533947e-01	3.493812e-01	3.369926e-01	3.192413e-01	3.008723e-01	2.855726e-01	2.743236e-01	2.658917e-01	2.585331e-01	2.508133e-01	2.419610e-01	2.317464e-01	2.201308e-01	2.073935e-01	1.937779e-01	1.795357e-01	1.647542e-01	1.495289e-01	1.339485e-01	1.180412e-01	1.019433e-01	8.565877e-02	6.933157e-02	5.299449e-02	3.682162e-02	2.083413e-02	5.162523e-03	-1.019181e-02	-2.508332e-02	-3.945464e-02	-5.315103e-02	-6.620089e-02	-7.843802e-02	-9.010857e-02	-1.014381e-01	-1.128687e-01	-1.249163e-01	-1.380146e-01	-1.521827e-01	-1.668842e-01	-1.808409e-01	-1.924468e-01	-2.000366e-01	-2.024524e-01	-1.994862e-01	-1.923472e-01	-1.839144e-01	-1.783320e-01	-1.796654e-01	-1.899057e-01	-2.082761e-01	-2.325959e-01	-2.621812e-01	-2.890429e-01	-3.157984e-01	-4.632702e-01	-2.916204e-01	-1.420723e-04	-1.403750e-04	-1.375538e-04	-1.349164e-04	-1.304536e-04	-1.231207e-04	-1.076524e-04	-8.609064e-05	-4.918469e-05	3.048474e-06	9.387291e-05	2.146133e-04	3.363036e-04	3.875499e-04	3.787202e-04	3.490262e-04	3.071486e-04	2.643326e-04	2.188481e-04	1.738778e-04	1.326860e-04	1.022025e-04	1.017014e-04	4.795654e-05	-3.801935e-05	1.629964e-05	2.636320e-05	-7.719999e-06	-4.369552e-05	-5.369009e-05	-6.060967e-05	-6.120091e-05	-5.573495e-05	-4.357617e-05	-2.723191e-05	-9.558617e-06	-3.530901e-07	-1.820900e-05	-5.705011e-05	-9.358436e-05	-1.243349e-04	-1.437182e-04	-1.532264e-04	-1.568474e-04	-1.562415e-04	-1.536256e-04	-1.513296e-04	-1.491296e-04	-1.449271e-04	-1.440668e-04	1.055468e-01	1.858130e-01	3.414481e-01	1.247689e-01	3.135251e-01	-1.639718e-01	-1.888033e-01	1.151208e-01	1.683217e-01	-3.080428e-01	1.329000e-01	2.227713e-01	-1.903286e-01	-1.853922e-01	2.107551e-01	1.507125e-01	-4.330022e-01	-1.759717e-01	-1.608174e-01	-4.678205e-01	1.943815e-01	8.027996e-02	9.762955e-02	3.311450e-01	6.252067e-02	3.337261e-01	4.410338e-02	1.997091e-01	2.697662e-02	1.561350e-01	1.581760e-02	-4.805124e-01	1.057583e-02	1.372583e-02	-1.483689e-01	2.967397e-01	5.333769e-02	-1.989318e-02	-1.392367e-01	-8.012094e-02	2.952227e-01	2.032313e-02	1.239730e-01	-1.907333e-01	2.189720e-01	2.910909e-01	2.491585e-01	2.778028e-01	2.634904e-01	2.706279e-01	2.545302e-01	-6.135855e-02	3.074987e-01	4.653265e-02	3.020356e-01	3.448345e-01	3.277014e-01	-2.245914e-02	3.643949e-01	1.381996e-02	2.839990e-01	3.304575e-01	1.787579e-01	2.193014e-01	2.343969e-01	3.052579e-01	2.109741e-01	3.512501e-02	-1.033105e-01	-1.918813e-01	-2.988352e-01	2.907619e-01	1.379732e-02	6.171129e-05	-1.116930e-01	-2.020731e-01	7.149188e-02	3.800113e-01	2.418487e-01	1.418410e-01	1.063443e-01	2.374695e-01	3.624462e-01	2.267734e-01	1.771023e-01	7.716160e-02	-3.505312e-01	-1.964633e-01	3.202670e-01	3.164572e-01	-1.321389e-01	3.743264e-01	1.997855e-01	3.545186e-01	3.791798e-01	2.847531e-01	1.595202e-01	-3.876587e-01	-4.372745e-01	2.515211e-01	-4.624436e-01	4.213692e-01	4.972028e-01	5.060237e-01	3.952887e-01	3.497171e-01	-2.788768e-01	2.589696e-01	2.898130e-01	-1.796080e-01	-1.871260e-01	-1.005667e-01	2.763807e-01	3.258875e-01	3.434335e-01	-1.497874e-01	-1.240730e-01	4.483134e-01	-1.759911e-01	-1.865181e-01	-1.735001e-01	4.194034e-01	4.811118e-01	3.297348e-01	3.322521e-01	3.542405e-01	3.285064e-01	3.071664e-01	3.495038e-01	3.669100e-01	3.845779e-01	1.840289e-01	3.445363e-01	3.378172e-01	1.551174e-01	2.335989e-01	6.205335e-02	9.355820e-02	8.505744e-04	3.094667e-02	-5.403713e-02	-2.770183e-02	-1.120425e-01	-7.802313e-02	-1.818564e-01	-1.367596e-01	-1.842540e-01	-6.631867e-02	-8.934900e-02	-1.366399e-02	-4.119081e-02	4.639949e-02	1.573755e-02	1.092280e-01	7.779781e-02	1.697828e-01	1.400833e-01	2.432032e-01	1.977583e-01	3.407882e-01	3.355252e-01	3.600944e-01	3.490517e-01	5.086394e-01	3.750427e-01	2.473737e-01	4.778875e-01	3.466802e-01	2.301839e-02	-4.799237e-02	8.897194e-02	3.358768e-01	2.563618e-01	-8.799670e-02	3.510664e-01	1.243271e-01	4.332022e-01	4.644544e-01	3.309179e-01	4.068767e-01	-1.765898e-01	-1.837979e-01	3.288618e-01	-1.982611e-01	-2.189937e-01	3.289603e-01	3.361666e-01	-1.624160e-01	-4.574774e-01	-3.192083e-01	-3.931375e-01	2.027786e-01	1.342164e-02	-2.457529e-01	2.666876e-01	-3.978526e-01	-2.471002e-01	1.317934e-01	2.703289e-01	3.732648e-01	4.332767e-01	-2.877497e-01	-3.562499e-01	3.516159e-01	1.526504e-01	5.841429e-03	-2.863626e-01	2.239320e-01	1.612610e-01	1.004813e-01	-1.766334e-01	3.244762e-01	4.864038e-02	6.618995e-02	1.619569e-01	-4.355795e-01	3.344042e-01	-1.962660e-01	-5.168587e-02	2.667695e-01	1.440417e-01	1.783435e-01	2.749216e-01	1.394371e-01	2.966389e-01	1.582538e-02	9.191645e-02	6.413828e-02	2.404588e-01	1.444682e-01	-4.379511e-02	3.875545e-01	1.296570e-01	3.497844e-01	-7.887208e-02	-1.906405e-01	3.273522e-01	2.587462e-01	-1.715979e-01	-8.997430e-02	-2.063283e-01	-1.746171e-01	-1.741831e-01	3.307154e-01	3.261641e-01	3.324219e-01	3.976614e-01	1.698530e-01	3.177248e-01	1.321937e-01	3.618323e-01	4.640851e-01	-1.738806e-01	-2.259548e-01	-1.010768e-01	2.779405e-01	-3.257208e-01	-2.799216e-01	-2.505641e-01	-2.334928e-02	-2.050373e-01	-3.309394e-01	-4.544111e-01	-4.355194e-01	-1.527703e-01	-2.548386e-01	8.939765e-02	-1.958683e-01	-1.897812e-01	3.428168e-01	2.329622e-01	-1.646329e-01	3.113255e-02	2.125376e-01	-1.847377e-01	-4.580574e-01	2.807440e-01	3.471674e-01	5.745738e-02	3.271344e-01	3.977940e-02	2.298980e-02	1.152919e-01	1.006442e-02	2.905069e-03	-1.433640e-02	-7.191258e-02	-3.003703e-02	-7.713729e-02	-1.483838e-01	2.379958e-01	1.178682e-01	1.091145e-01	-1.934599e-01	2.683549e-01	2.612611e-01	2.541419e-01	-1.113324e-01	2.911564e-01	2.860091e-01	3.164685e-01	-6.353707e-04	1.162493e-05	-4.862768e-03	2.535559e-01	1.829814e-01	2.256639e-01	2.028347e-01	-1.032794e-01	-1.276099e-01	1.354342e-01	1.267172e-01	2.026086e-01	2.209368e-01	2.182283e-01	2.106162e-01	3.142822e-02	6.149397e-02	-2.413223e-01	3.092287e-01	3.026663e-01	2.889800e-01	3.020170e-01	3.489537e-01	3.583916e-01	3.426590e-01	3.333339e-01	3.614215e-01	-4.051935e-01	-3.717711e-01	4.606437e-01	-1.796898e-01	2.512988e-01	2.672759e-01	2.788448e-01	2.944731e-01	-1.728654e-01	-1.750410e-01	-1.357449e-01	3.128336e-01	3.304121e-01	3.440118e-01	-1.240185e-01	-1.657251e-01	4.455580e-01	4.567409e-01	3.292935e-01	3.281177e-01	3.552719e-01	3.695588e-01	3.782257e-01	9.889044e-03	6.907056e-02	8.430509e-02	2.430777e-02	-3.112427e-02	-1.124219e-01	-6.757780e-02	-5.587736e-02	-1.788694e-02	-4.173797e-03	3.899219e-02	5.393975e-02	9.950350e-02	1.146571e-01	1.589897e-01	1.731851e-01	2.343790e-01	2.434937e-01	1.869683e-01	2.001427e-01	3.346265e-01	3.374527e-01	3.409787e-01	3.451126e-01	1.842110e-01	4.359886e-01	3.835067e-01	8.337478e-02	7.482302e-02	2.471499e-01	2.401187e-01	-1.157495e-01	3.113741e-01	4.087854e-01	4.207931e-01	3.260798e-01	3.264572e-01	3.371429e-01	3.308779e-01	-1.573376e-01	-1.470697e-01	1.948572e-01	1.866928e-01	-3.495549e-02	-4.069524e-01	3.585445e-01	-4.304220e-01	2.814421e-01	3.303719e-01	8.857553e-02	2.257770e-01	-2.421677e-03	-1.977177e-01	-1.856748e-01	-1.676038e-01	-1.340252e-01	-2.120918e-01	-3.213007e-01	-3.351998e-01	-1.958891e-01	-2.739546e-01	-1.558256e-01	-3.880007e-01	1.448189e-01	-7.325497e-03	-1.751127e-01	2.226861e-01	-1.931572e-01	-3.142725e-01	1.395422e-01	-3.816577e-01	1.311649e-01	-1.949676e-01	2.979708e-02	-2.753200e-01	3.057940e-01	3.814095e-02	1.478956e-01	-1.828090e-01	-2.353131e-01	-1.726847e-01	2.487080e-01	-1.602511e-01	1.455900e-01	-2.326681e-01	2.568727e-01	3.229639e-01	3.229668e-01	3.437524e-01	4.119488e-01	-3.410033e-01	-4.063340e-01	-2.771470e-01	1.366247e-01	-3.364898e-01	-7.316681e-02	1.225668e-01	-4.238034e-01	2.492492e-01	2.604397e-01	-1.175366e-01	1.835228e-02	-3.707898e-02	1.510682e-02	1.311631e-01	-1.774571e-01	-1.648384e-01	-9.348889e-02	-8.268469e-02	3.223288e-01	3.224749e-01	3.262541e-01	3.767377e-01	1.646631e-01	1.563481e-01	3.049436e-01	8.079503e-02	3.489759e-01	-1.703010e-01	-2.534214e-01	-5.592625e-02	-2.087476e-01	-3.502301e-01	-4.359597e-01	-8.073354e-02	-2.067572e-01	-1.976233e-01	-9.485038e-02	-1.647200e-01	2.115530e-01	2.662153e-01	3.395644e-01	5.525843e-02	4.666293e-02	2.184696e-02	1.450268e-02	7.354869e-02	9.882991e-02	7.988844e-03	2.540122e-03	-3.551165e-02	-5.280921e-02	-1.515758e-01	1.057019e-01	9.712402e-02	-1.900035e-01	2.538580e-01	2.466813e-01	2.763354e-01	2.714085e-01	-4.621324e-02	-1.340694e-02	-2.239924e-02	2.207660e-01	2.361256e-01	2.187392e-01	2.114964e-01	-1.159661e-01	-1.352747e-01	1.230018e-01	1.144334e-01	1.658047e-01	1.855725e-01	2.039285e-01	2.041547e-01	1.965857e-01	-1.367894e-02	1.735273e-02	4.655626e-02	2.989074e-01	2.926769e-01	2.869225e-01	2.610184e-01	2.736304e-01	2.883823e-01	3.209997e-01	3.335777e-01	3.219327e-01	3.135611e-01	3.405554e-01	4.124153e-01	2.670508e-01	2.809141e-01	-1.690755e-01	2.978121e-01	3.156438e-01	3.307433e-01	3.407066e-01	-1.256406e-01	4.181390e-01	4.199991e-01	3.237610e-01	3.249040e-01	3.551553e-01	3.619654e-01	3.690205e-01	7.250628e-02	-1.150009e-01	-1.042193e-01	-7.176782e-02	-6.055098e-02	-4.907773e-02	-2.461186e-02	-1.153645e-02	1.720530e-03	2.916050e-02	4.330371e-02	5.790547e-02	8.731713e-02	1.019523e-01	1.166919e-01	1.596365e-01	2.327909e-01	2.410925e-01	1.734538e-01	1.867109e-01	1.995096e-01	3.279230e-01	3.299658e-01	3.326002e-01	3.357604e-01	3.393575e-01	3.877153e-01	3.392606e-01	8.032417e-02	7.198838e-02	6.367099e-02	2.396804e-01	2.327380e-01	2.707356e-01	1.986561e-01	3.853709e-01	3.946637e-01	4.038356e-01	3.223018e-01	3.361516e-01	3.298793e-01	3.251728e-01	-1.537413e-01	-1.455036e-01	-1.360305e-01	1.889050e-01	1.809763e-01	1.729347e-01	3.415310e-01	3.374781e-01	-3.986270e-01	1.279142e-01	-2.325905e-01	-1.749292e-01	2.145090e-01	-3.584687e-01	-1.992224e-01	-1.182189e-02	-1.899497e-02	-8.811418e-02	-2.031226e-01	2.528300e-01	-3.774951e-01	4.333621e-02	-2.966847e-01	-1.604489e-01	-2.171446e-01	-2.618330e-01	1.453383e-01	-2.042971e-01	-2.870269e-01	-2.475509e-01	7.936130e-02	2.322331e-01	-1.567753e-01	2.679020e-01	1.060310e-01	2.531697e-01	3.105712e-01	-1.817648e-01	2.193495e-01	-1.563163e-01	-1.509506e-01	1.765381e-02	3.359071e-01	3.167610e-01	-1.652211e-01	3.807868e-01	2.974619e-02	-2.669469e-01	-1.911096e-01	-1.906333e-01	-1.072776e-01	-1.919387e-01	1.373557e-01	-3.281344e-01	1.282445e-01	1.212346e-01	-2.272821e-01	-1.749722e-01	-2.629063e-01	-3.241857e-02	2.455171e-01	3.166402e-01	-3.134090e-01	-1.409617e-02	1.299760e-01	-8.765635e-02	3.171592e-01	3.164110e-01	3.163841e-01	1.539976e-01	1.447757e-01	-1.700151e-01	-7.687404e-02	-1.418156e-01	-3.559926e-01	-4.138168e-01	-1.214629e-01	-8.906031e-02	-1.538430e-01	2.074232e-01	4.632101e-02	3.789714e-02	2.169016e-02	1.421074e-02	5.820810e-02	8.279586e-02	7.125606e-03	9.781216e-04	-5.075195e-03	-5.398208e-02	-7.090092e-02	9.638311e-02	8.703945e-02	-1.830825e-01	2.476937e-01	2.411096e-01	2.631175e-01	2.582173e-01	-2.791010e-02	-3.943540e-02	2.032615e-01	2.189265e-01	2.063902e-01	-1.246822e-01	-1.404479e-01	1.131216e-01	1.037331e-01	1.487711e-01	1.687208e-01	1.868277e-01	2.003509e-01	1.919774e-01	-5.643765e-02	-2.553758e-02	4.438294e-03	3.220736e-02	2.893758e-01	2.835834e-01	2.782498e-01	2.731400e-01	2.450611e-01	2.593404e-01	2.752321e-01	2.917174e-01	3.064426e-01	2.959296e-01	3.030751e-01	3.168621e-01	2.656522e-01	-1.665517e-01	-1.636700e-01	2.808118e-01	2.976753e-01	3.137668e-01	3.259632e-01	3.318156e-01	3.769797e-01	3.635216e-01	3.175225e-01	3.186564e-01	3.406875e-01	3.460470e-01	3.509640e-01	3.563816e-01	-1.178478e-01	-1.079589e-01	-9.794388e-02	-7.726346e-02	-6.648139e-02	-5.558242e-02	-4.374259e-02	-2.101234e-02	-6.960758e-03	5.165149e-03	3.203244e-02	4.521389e-02	6.023692e-02	7.343480e-02	8.871855e-02	1.017521e-01	1.172232e-01	2.358297e-01	2.295321e-01	1.574727e-01	1.724288e-01	1.838634e-01	1.980886e-01	3.199578e-01	3.215191e-01	3.234338e-01	3.259469e-01	3.284945e-01	3.319201e-01	3.359978e-01	2.901907e-01	7.106124e-02	6.246535e-02	5.456291e-02	2.336976e-01	2.283527e-01	2.203010e-01	2.273540e-01	1.589152e-01	9.803557e-02	3.625662e-01	3.693483e-01	3.755248e-01	3.795303e-01	3.311091e-01	3.268022e-01	3.216786e-01	3.185529e-01	-1.273692e-01	-1.441221e-01	-1.362979e-01	1.855718e-01	1.769129e-01	1.701219e-01	1.611673e-01	3.218756e-01	3.215830e-01	3.171674e-01	-2.190145e-01	-2.215653e-01	-1.015797e-01	-3.229608e-01	-2.503034e-01	1.149757e-01	1.119930e-01	-2.800305e-01	-1.704960e-01	-3.324667e-01	-1.243509e-01	2.163042e-01	3.259784e-01	-3.854617e-02	-1.983283e-01	-3.344501e-01	-4.064828e-01	-4.164382e-01	-3.863739e-01	-3.523426e-01	-1.861483e-01	3.090542e-01	-1.168056e-01	-1.665147e-01	-3.218229e-02	7.422716e-02	2.550340e-01	-2.045069e-01	-1.201588e-01	-1.420287e-01	2.181913e-01	2.336205e-01	1.347299e-01	2.653039e-02	2.481941e-01	2.057619e-01	3.114643e-01	-1.943186e-01	9.067797e-02	-2.986050e-01	-1.769869e-01	-4.038153e-01	-2.239179e-01	-2.091885e-01	-2.253711e-02	-9.484470e-02	-3.697546e-01	1.315017e-02	-3.074906e-01	-1.528559e-01	-2.474096e-01	-2.815192e-01	-2.563705e-01	-1.883270e-01	2.879591e-01	2.924813e-01	-1.847592e-01	2.021252e-01	-1.480105e-01	-1.560078e-01	1.299598e-01	-2.927890e-01	3.098930e-01	3.081958e-01	3.096079e-01	1.463328e-01	-9.228575e-02	-1.458319e-01	-3.869542e-01	-1.561581e-01	3.689677e-02	3.002939e-02	2.120277e-02	1.393910e-02	6.791790e-02	4.375664e-02	5.655638e-03	-4.661490e-04	-7.224362e-03	-1.581615e-02	-7.050963e-02	-8.593515e-02	8.959232e-02	-1.753535e-01	2.422037e-01	2.355940e-01	2.519661e-01	2.456199e-01	-4.350601e-02	-5.606444e-02	1.879330e-01	2.058974e-01	-1.312248e-01	-1.444014e-01	1.021377e-01	1.343369e-01	1.566097e-01	1.697213e-01	1.917559e-01	-6.555719e-02	-3.604117e-02	-7.772909e-03	1.863594e-02	2.801327e-01	2.762261e-01	2.697553e-01	2.666321e-01	2.605851e-01	2.333232e-01	2.459174e-01	2.654395e-01	2.782642e-01	2.946916e-01	-1.653509e-01	-1.610973e-01	-1.571178e-01	2.638011e-01	2.777518e-01	2.958883e-01	3.079745e-01	3.202722e-01	3.342659e-01	3.147400e-01	3.086035e-01	3.108637e-01	3.319635e-01	3.328290e-01	3.360425e-01	-1.106722e-01	-1.016468e-01	-9.173987e-02	-8.206192e-02	-7.175827e-02	-6.136566e-02	-5.046142e-02	-3.406331e-02	-1.672682e-02	2.158636e-03	5.346872e-02	8.056812e-02	1.077461e-01	1.611023e-01	1.853279e-01	3.104680e-01	3.132585e-01	3.132911e-01	3.168037e-01	3.168651e-01	3.192986e-01	3.226081e-01	2.835310e-01	2.393783e-01	6.105188e-02	5.387046e-02	4.592730e-02	2.280274e-01	2.188519e-01	1.834701e-01	1.213945e-01	6.382850e-02	3.399178e-01	3.440628e-01	3.472356e-01	3.469519e-01	3.432217e-01	3.217839e-01	3.223785e-01	3.167781e-01	3.122440e-01	-1.353018e-01	-1.275368e-01	1.772799e-01	1.621875e-01	2.999120e-01	3.065865e-01	3.024943e-01	3.007087e-01	-2.011591e-01	-2.880358e-01	-2.638215e-01	-3.598356e-01	-2.410130e-01	-1.239383e-01	-1.861903e-01	-2.721917e-01	-1.500944e-01	-1.902284e-01	-1.475631e-01	-3.582055e-01	-1.265044e-01	-2.376521e-01	3.014932e-01	-2.891637e-01	-1.033683e-01	-2.332048e-01	-2.108246e-01	-1.110677e-01	2.019798e-01	-1.778492e-01	2.741572e-01	-4.604788e-02	-3.117318e-02	1.603051e-01	9.891490e-02	2.107565e-01	-3.283546e-01	2.406010e-01	5.415296e-02	7.573096e-02	3.150863e-01	-1.646592e-01	-1.157596e-01	-3.090707e-01	-5.706140e-02	-9.762333e-02	-3.054776e-01	-1.706785e-01	-4.023193e-01	-3.428734e-01	-1.583965e-01	1.007880e-01	2.288186e-01	2.523885e-01	-1.952632e-01	-2.617446e-01	-2.268296e-01	-3.892853e-01	-2.192504e-01	-1.000113e-01	-3.098732e-01	-2.878537e-01	1.979111e-01	-1.542381e-01	-1.452902e-01	-1.396264e-01	2.128220e-01	2.994430e-01	2.990515e-01	1.139763e-01	-1.480775e-01	-1.917744e-01	-1.836001e-01	2.367972e-02	8.284379e-03	3.055089e-02	-6.085452e-03	-1.856941e-02	-8.404169e-02	-1.682874e-01	2.319188e-01	-5.819620e-02	-7.066121e-02	1.821774e-01	-1.360865e-01	8.824279e-02	7.444715e-02	1.313352e-01	1.547542e-01	1.887888e-01	-7.249033e-02	-4.359378e-02	-1.545160e-02	5.576607e-03	2.640975e-01	2.557107e-01	2.470907e-01	2.425289e-01	2.712153e-01	-1.594893e-01	-1.547668e-01	2.815008e-01	3.048388e-01	2.687522e-01	2.999931e-01	3.150099e-01	-1.048345e-02	-9.930808e-02	-8.075885e-02	-6.152563e-02	-4.378813e-02	-2.735037e-02	9.509431e-03	3.363507e-02	5.925566e-02	8.496867e-02	1.107461e-01	1.363868e-01	1.607986e-01	1.813400e-01	3.020753e-01	3.045718e-01	3.054121e-01	3.102238e-01	3.104999e-01	2.330048e-01	1.906227e-01	6.025448e-02	4.775500e-02	3.561662e-02	2.224552e-01	2.132756e-01	1.415033e-01	8.787769e-02	3.499426e-02	-1.164376e-02	3.163897e-01	3.177094e-01	3.176657e-01	3.138542e-01	3.039132e-01	2.992009e-01	3.106106e-01	3.047875e-01	-1.343760e-01	-1.269102e-01	1.747916e-01	1.451254e-01	1.292368e-01	2.854339e-01	2.837204e-01	-2.021176e-01	-2.076763e-01	-2.029290e-01	-2.366548e-01	-3.698023e-02	-1.877982e-01	-2.679904e-01	-1.854622e-01	-2.694722e-01	-2.025555e-01	-1.945924e-01	-1.750822e-01	-1.491083e-01	-2.852250e-01	-3.304991e-01	-1.529853e-01	8.686108e-02	2.916492e-01	-2.173214e-01	-1.899862e-02	-1.513994e-01	2.396826e-01	-1.110216e-01	-2.483969e-01	2.316913e-01	-5.921145e-02	1.438978e-01	1.857395e-01	-1.180010e-01	-1.293720e-01	-1.275285e-01	-1.030558e-01	-2.907568e-01	-1.707274e-01	-1.783876e-01	-1.429641e-01	2.864612e-01	1.779806e-01	1.134653e-01	2.131376e-02	-2.729553e-01	-2.822819e-01	-3.756474e-01	-1.062566e-01	-1.479908e-01	-2.470390e-01	-1.401833e-01	-2.533603e-01	-2.255750e-01	1.977363e-01	-3.184481e-01	3.915848e-02	6.192077e-02	-1.640959e-01	-3.332993e-01	-9.438380e-02	-1.510177e-01	9.953000e-02	-3.657726e-01	-2.253292e-01	-5.028433e-03	-3.053131e-01	-2.885091e-01	2.093818e-01	-1.776558e-01	-1.373649e-01	1.938152e-01	2.881207e-01	1.596552e-01	-1.856534e-01	-2.202980e-01	9.482754e-03	-5.370263e-03	-3.229863e-02	-4.636204e-02	-1.619869e-01	2.242059e-01	-7.064723e-02	-8.243044e-02	2.392207e-01	4.666658e-02	3.489650e-02	7.401922e-02	8.913272e-02	1.173206e-01	1.423209e-01	-7.544226e-02	2.540479e-01	2.464614e-01	1.698299e-01	2.005347e-01	1.286693e-01	-1.582655e-01	2.283837e-01	2.532948e-01	2.931915e-01	-1.043072e-01	-8.822540e-02	-2.143959e-02	-7.068528e-02	-5.345766e-02	-3.722933e-02	-4.094072e-03	1.664764e-02	4.011014e-02	6.452228e-02	8.907097e-02	1.137209e-01	1.378656e-01	2.862505e-01	2.871575e-01	2.885114e-01	2.899279e-01	2.937017e-01	2.934530e-01	1.880607e-01	1.457042e-01	6.017813e-02	2.318172e-02	2.164783e-01	2.078968e-01	1.032151e-01	5.846890e-02	1.198755e-02	-3.114354e-02	-7.109582e-02	2.910807e-01	2.891096e-01	2.857122