# vtk DataFile Version 3.0
vtk output
ASCII
DATASET UNSTRUCTURED_GRID
POINTS 200 float
9.997500e-01	-3.633229e-05	0.0	9.990000e-01	-1.454639e-04	0.0	9.977600e-01	-3.274154e-04	0.0	9.960200e-01	-5.894302e-04	0.0	9.937800e-01	-9.452990e-04	0.0	9.910500e-01	-1.417132e-03	0.0	9.878400e-01	-2.034228e-03	0.0	9.841300e-01	-2.831525e-03	0.0	9.799500e-01	-3.820551e-03	0.0	9.752800e-01	-4.998472e-03	0.0	9.701500e-01	-6.319846e-03	0.0	9.645400e-01	-7.728270e-03	0.0	9.584700e-01	-9.150956e-03	0.0	9.519400e-01	-1.053452e-02	0.0	9.449600e-01	-1.185203e-02	0.0	9.375400e-01	-1.310775e-02	0.0	9.296900e-01	-1.432812e-02	0.0	9.214000e-01	-1.555022e-02	0.0	9.127000e-01	-1.680040e-02	0.0	9.035800e-01	-1.809909e-02	0.0	8.940600e-01	-1.944986e-02	0.0	8.841500e-01	-2.084827e-02	0.0	8.738500e-01	-2.228641e-02	0.0	8.631800e-01	-2.375248e-02	0.0	8.521600e-01	-2.523605e-02	0.0	8.407700e-01	-2.673406e-02	0.0	8.290500e-01	-2.823735e-02	0.0	8.170100e-01	-2.974207e-02	0.0	8.046400e-01	-3.124742e-02	0.0	7.919700e-01	-3.274778e-02	0.0	7.790100e-01	-3.423993e-02	0.0	7.657800e-01	-3.571931e-02	0.0	7.522800e-01	-3.718346e-02	0.0	7.385200e-01	-3.862860e-02	0.0	7.245300e-01	-4.004895e-02	0.0	7.103200e-01	-4.144095e-02	0.0	6.958900e-01	-4.280209e-02	0.0	6.812700e-01	-4.412720e-02	0.0	6.664700e-01	-4.541330e-02	0.0	6.515000e-01	-4.665759e-02	0.0	6.363800e-01	-4.785671e-02	0.0	6.211300e-01	-4.900768e-02	0.0	6.057600e-01	-5.010852e-02	0.0	5.902800e-01	-5.115748e-02	0.0	5.747100e-01	-5.215234e-02	0.0	5.590600e-01	-5.309177e-02	0.0	5.433600e-01	-5.397343e-02	0.0	5.276100e-01	-5.479695e-02	0.0	5.118400e-01	-5.556042e-02	0.0	4.960500e-01	-5.626356e-02	0.0	4.802700e-01	-5.690476e-02	0.0	4.645100e-01	-5.748338e-02	0.0	4.487800e-01	-5.799872e-02	0.0	4.331100e-01	-5.844944e-02	0.0	4.175000e-01	-5.883511e-02	0.0	4.019700e-01	-5.915461e-02	0.0	3.865400e-01	-5.940689e-02	0.0	3.712300e-01	-5.959088e-02	0.0	3.560400e-01	-5.970565e-02	0.0	3.409900e-01	-5.974995e-02	0.0	3.261100e-01	-5.972258e-02	0.0	3.114000e-01	-5.962235e-02	0.0	2.968700e-01	-5.944787e-02	0.0	2.825500e-01	-5.919808e-02	0.0	2.684500e-01	-5.887171e-02	0.0	2.545700e-01	-5.846717e-02	0.0	2.409400e-01	-5.798370e-02	0.0	2.275700e-01	-5.742016e-02	0.0	2.144700e-01	-5.677540e-02	0.0	2.016600e-01	-5.604894e-02	0.0	1.891400e-01	-5.523929e-02	0.0	1.769300e-01	-5.434626e-02	0.0	1.650400e-01	-5.336927e-02	0.0	1.534900e-01	-5.230880e-02	0.0	1.422900e-01	-5.116486e-02	0.0	1.314400e-01	-4.993645e-02	0.0	1.209500e-01	-4.862362e-02	0.0	1.108500e-01	-4.722949e-02	0.0	1.011300e-01	-4.575215e-02	0.0	9.181000e-02	-4.419404e-02	0.0	8.290000e-02	-4.255658e-02	0.0	7.440000e-02	-4.083942e-02	0.0	6.633000e-02	-3.904641e-02	0.0	5.869000e-02	-3.717750e-02	0.0	5.149000e-02	-3.523498e-02	0.0	4.474000e-02	-3.322163e-02	0.0	3.844000e-02	-3.113736e-02	0.0	3.260000e-02	-2.898519e-02	0.0	2.723000e-02	-2.676897e-02	0.0	2.232000e-02	-2.448381e-02	0.0	1.790000e-02	-2.214369e-02	0.0	1.395000e-02	-1.973785e-02	0.0	1.049000e-02	-1.727738e-02	0.0	7.520000e-03	-1.476296e-02	0.0	5.040000e-03	-1.219435e-02	0.0	3.050000e-03	-9.569420e-03	0.0	1.560000e-03	-6.902152e-03	0.0	5.600000e-04	-4.169825e-03	0.0	6.000000e-05	-1.375787e-03	0.0	0.000000e+00	0.000000e+00	0.0	6.000000e-05	1.262832e-03	0.0	5.600000e-04	3.623023e-03	0.0	1.560000e-03	5.787563e-03	0.0	3.050000e-03	7.807963e-03	0.0	5.040000e-03	9.728782e-03	0.0	7.520000e-03	1.155720e-02	0.0	1.049000e-02	1.330764e-02	0.0	1.395000e-02	1.499004e-02	0.0	1.790000e-02	1.661177e-02	0.0	2.232000e-02	1.817194e-02	0.0	2.723000e-02	1.968324e-02	0.0	3.260000e-02	2.114114e-02	0.0	3.844000e-02	2.255300e-02	0.0	4.474000e-02	2.391990e-02	0.0	5.149000e-02	2.524302e-02	0.0	5.869000e-02	2.652525e-02	0.0	6.633000e-02	2.776724e-02	0.0	7.440000e-02	2.896970e-02	0.0	8.290000e-02	3.013459e-02	0.0	9.181000e-02	3.126102e-02	0.0	1.011300e-01	3.235070e-02	0.0	1.108500e-01	3.340390e-02	0.0	1.209500e-01	3.441989e-02	0.0	1.314400e-01	3.540087e-02	0.0	1.422900e-01	3.634511e-02	0.0	1.534900e-01	3.725285e-02	0.0	1.650400e-01	3.812497e-02	0.0	1.769300e-01	3.896139e-02	0.0	1.891400e-01	3.976125e-02	0.0	2.016600e-01	4.052440e-02	0.0	2.144700e-01	4.124998e-02	0.0	2.275700e-01	4.193815e-02	0.0	2.409400e-01	4.258781e-02	0.0	2.545700e-01	4.319827e-02	0.0	2.684500e-01	4.376866e-02	0.0	2.825500e-01	4.429714e-02	0.0	2.968700e-01	4.478295e-02	0.0	3.114000e-01	4.522463e-02	0.0	3.261100e-01	4.562001e-02	0.0	3.409900e-01	4.596737e-02	0.0	3.560400e-01	4.626492e-02	0.0	3.712300e-01	4.651010e-02	0.0	3.865400e-01	4.670047e-02	0.0	4.019700e-01	4.683369e-02	0.0	4.175000e-01	4.690702e-02	0.0	4.331100e-01	4.691769e-02	0.0	4.487800e-01	4.686296e-02	0.0	4.645100e-01	4.673998e-02	0.0	4.802700e-01	4.654607e-02	0.0	4.960500e-01	4.627856e-02	0.0	5.118400e-01	4.593479e-02	0.0	5.276100e-01	4.551282e-02	0.0	5.433600e-01	4.501022e-02	0.0	5.590600e-01	4.442582e-02	0.0	5.747100e-01	4.375778e-02	0.0	5.902800e-01	4.300599e-02	0.0	6.057600e-01	4.217008e-02	0.0	6.211300e-01	4.125082e-02	0.0	6.363800e-01	4.024911e-02	0.0	6.515000e-01	3.916650e-02	0.0	6.664700e-01	3.800601e-02	0.0	6.812700e-01	3.677165e-02	0.0	6.958900e-01	3.546747e-02	0.0	7.103200e-01	3.409828e-02	0.0	7.245300e-01	3.267173e-02	0.0	7.385200e-01	3.119338e-02	0.0	7.522800e-01	2.967043e-02	0.0	7.657800e-01	2.811310e-02	0.0	7.790100e-01	2.653014e-02	0.0	7.919700e-01	2.492956e-02	0.0	8.046400e-01	2.332228e-02	0.0	8.170100e-01	2.171829e-02	0.0	8.290500e-01	2.013028e-02	0.0	8.407700e-01	1.856531e-02	0.0	8.521600e-01	1.703210e-02	0.0	8.631800e-01	1.554175e-02	0.0	8.738500e-01	1.409502e-02	0.0	8.841500e-01	1.269546e-02	0.0	8.940600e-01	1.134464e-02	0.0	9.035800e-01	1.004119e-02	0.0	9.127000e-01	8.788006e-03	0.0	9.214000e-01	7.595895e-03	0.0	9.296900e-01	6.480827e-03	0.0	9.375400e-01	5.472810e-03	0.0	9.449600e-01	4.599792e-03	0.0	9.519400e-01	3.885777e-03	0.0	9.584700e-01	3.336726e-03	0.0	9.645400e-01	2.933388e-03	0.0	9.701500e-01	2.632778e-03	0.0	9.752800e-01	2.381537e-03	0.0	9.799500e-01	2.129421e-03	0.0	9.841300e-01	1.848048e-03	0.0	9.878400e-01	1.530620e-03	0.0	9.910500e-01	1.194917e-03	0.0	9.937800e-01	8.647277e-04	0.0	9.960200e-01	5.670984e-04	0.0	9.977600e-01	3.232757e-04	0.0	9.990000e-01	1.450863e-04	0.0	9.997500e-01	3.632631e-05	0.0	1.000000e+00	0.000000e+00	0.0	
CELLS 200	600
2	199	0	2	0	1	2	1	2	2	2	3	2	3	4	2	4	5	2	5	6	2	6	7	2	7	8	2	8	9	2	9	10	2	10	11	2	11	12	2	12	13	2	13	14	2	14	15	2	15	16	2	16	17	2	17	18	2	18	19	2	19	20	2	20	21	2	21	22	2	22	23	2	23	24	2	24	25	2	25	26	2	26	27	2	27	28	2	28	29	2	29	30	2	30	31	2	31	32	2	32	33	2	33	34	2	34	35	2	35	36	2	36	37	2	37	38	2	38	39	2	39	40	2	40	41	2	41	42	2	42	43	2	43	44	2	44	45	2	45	46	2	46	47	2	47	48	2	48	49	2	49	50	2	50	51	2	51	52	2	52	53	2	53	54	2	54	55	2	55	56	2	56	57	2	57	58	2	58	59	2	59	60	2	60	61	2	61	62	2	62	63	2	63	64	2	64	65	2	65	66	2	66	67	2	67	68	2	68	69	2	69	70	2	70	71	2	71	72	2	72	73	2	73	74	2	74	75	2	75	76	2	76	77	2	77	78	2	78	79	2	79	80	2	80	81	2	81	82	2	82	83	2	83	84	2	84	85	2	85	86	2	86	87	2	87	88	2	88	89	2	89	90	2	90	91	2	91	92	2	92	93	2	93	94	2	94	95	2	95	96	2	96	97	2	97	98	2	98	99	2	99	100	2	100	101	2	101	102	2	102	103	2	103	104	2	104	105	2	105	106	2	106	107	2	107	108	2	108	109	2	109	110	2	110	111	2	111	112	2	112	113	2	113	114	2	114	115	2	115	116	2	116	117	2	117	118	2	118	119	2	119	120	2	120	121	2	121	122	2	122	123	2	123	124	2	124	125	2	125	126	2	126	127	2	127	128	2	128	129	2	129	130	2	130	131	2	131	132	2	132	133	2	133	134	2	134	135	2	135	136	2	136	137	2	137	138	2	138	139	2	139	140	2	140	141	2	141	142	2	142	143	2	143	144	2	144	145	2	145	146	2	146	147	2	147	148	2	148	149	2	149	150	2	150	151	2	151	152	2	152	153	2	153	154	2	154	155	2	155	156	2	156	157	2	157	158	2	158	159	2	159	160	2	160	161	2	161	162	2	162	163	2	163	164	2	164	165	2	165	166	2	166	167	2	167	168	2	168	169	2	169	170	2	170	171	2	171	172	2	172	173	2	173	174	2	174	175	2	175	176	2	176	177	2	177	178	2	178	179	2	179	180	2	180	181	2	181	182	2	182	183	2	183	184	2	184	185	2	185	186	2	186	187	2	187	188	2	188	189	2	189	190	2	190	191	2	191	192	2	192	193	2	193	194	2	194	195	2	195	196	2	196	197	2	197	198	2	198	199	
CELL_TYPES 200
3	3	3	3	3	3	3	3	3	3	3	3	3	3	3	3	3	3	3	3	3	3	3	3	3	3	3	3	3	3	3	3	3	3	3	3	3	3	3	3	3	3	3	3	3	3	3	3	3	3	3	3	3	3	3	3	3	3	3	3	3	3	3	3	3	3	3	3	3	3	3	3	3	3	3	3	3	3	3	3	3	3	3	3	3	3	3	3	3	3	3	3	3	3	3	3	3	3	3	3	3	3	3	3	3	3	3	3	3	3	3	3	3	3	3	3	3	3	3	3	3	3	3	3	3	3	3	3	3	3	3	3	3	3	3	3	3	3	3	3	3	3	3	3	3	3	3	3	3	3	3	3	3	3	3	3	3	3	3	3	3	3	3	3	3	3	3	3	3	3	3	3	3	3	3	3	3	3	3	3	3	3	3	3	3	3	3	3	3	3	3	3	3	3	3	3	3	3	3	3	
POINT_DATA 200

SCALARS Conservative_1 float 1
LOOKUP_TABLE default
-9.647799e-02	-1.873993e-01	-1.871941e-01	-1.873642e-01	-1.905172e-01	-1.896410e-01	-1.840953e-01	-1.717284e-01	-1.509565e-01	-1.214504e-01	-8.493818e-02	-4.541514e-02	-9.089022e-03	1.768436e-02	3.147421e-02	3.389931e-02	3.034440e-02	2.618411e-02	2.478486e-02	2.701712e-02	3.255034e-02	4.042199e-02	4.955463e-02	5.919181e-02	6.875041e-02	7.805223e-02	8.704092e-02	9.579283e-02	1.044997e-01	1.132157e-01	1.220616e-01	1.310330e-01	1.400853e-01	1.491684e-01	1.582161e-01	1.672013e-01	1.761373e-01	1.850716e-01	1.939525e-01	2.027289e-01	2.113267e-01	2.197335e-01	2.279190e-01	2.359060e-01	2.436893e-01	2.512932e-01	2.587243e-01	2.660141e-01	2.732548e-01	2.805032e-01	2.877705e-01	2.949374e-01	3.016819e-01	3.077348e-01	3.132474e-01	3.187116e-01	3.246594e-01	3.313692e-01	3.389049e-01	3.471601e-01	3.561715e-01	3.659233e-01	3.762354e-01	3.863049e-01	3.945862e-01	3.989202e-01	3.973701e-01	3.891397e-01	3.755268e-01	3.595222e-01	3.445046e-01	3.323081e-01	3.224451e-01	3.127600e-01	3.011928e-01	2.872276e-01	2.714955e-01	2.546708e-01	2.366894e-01	2.173114e-01	1.963827e-01	1.738190e-01	1.494748e-01	1.231254e-01	9.449435e-02	6.335315e-02	2.931808e-02	-7.889374e-03	-4.876096e-02	-9.354536e-02	-1.426744e-01	-1.959734e-01	-2.535067e-01	-3.129923e-01	-3.728661e-01	-4.255253e-01	-4.675095e-01	-4.947851e-01	-4.912708e-01	-4.634577e-01	-4.256317e-01	-3.398122e-01	-2.010608e-01	-5.178310e-02	8.680060e-02	2.046282e-01	2.880211e-01	3.340911e-01	3.637479e-01	4.057392e-01	4.648647e-01	5.204016e-01	5.519394e-01	5.559432e-01	5.418974e-01	5.209743e-01	4.993569e-01	4.789319e-01	4.601243e-01	4.431242e-01	4.278853e-01	4.139398e-01	4.010776e-01	3.895090e-01	3.795244e-01	3.711138e-01	3.639181e-01	3.575924e-01	3.520431e-01	3.473080e-01	3.434473e-01	3.403923e-01	3.380016e-01	3.361236e-01	3.344945e-01	3.329610e-01	3.315259e-01	3.305871e-01	3.304986e-01	3.318269e-01	3.356269e-01	3.423093e-01	3.497232e-01	3.533947e-01	3.493812e-01	3.369926e-01	3.192413e-01	3.008723e-01	2.855726e-01	2.743236e-01	2.658917e-01	2.585331e-01	2.508133e-01	2.419610e-01	2.317464e-01	2.201308e-01	2.073935e-01	1.937779e-01	1.795357e-01	1.647542e-01	1.495289e-01	1.339485e-01	1.180412e-01	1.019433e-01	8.565877e-02	6.933157e-02	5.299449e-02	3.682162e-02	2.083413e-02	5.162523e-03	-1.019181e-02	-2.508332e-02	-3.945464e-02	-5.315103e-02	-6.620089e-02	-7.843802e-02	-9.010857e-02	-1.014381e-01	-1.128687e-01	-1.249163e-01	-1.380146e-01	-1.521827e-01	-1.668842e-01	-1.808409e-01	-1.924468e-01	-2.000366e-01	-2.024524e-01	-1.994862e-01	-1.923472e-01	-1.839144e-01	-1.783320e-01	-1.796654e-01	-1.899057e-01	-2.082761e-01	-2.325959e-01	-2.621812e-01	-2.890429e-01	-3.157984e-01	-4.632702e-01	-2.916204e-01	
SCALARS Conservative_2 float 1
LOOKUP_TABLE default
-5.082442e-02	1.562576e-01	1.863224e-01	2.019713e-01	2.171001e-01	2.237518e-01	2.226086e-01	2.111212e-01	1.874639e-01	1.513732e-01	1.054640e-01	5.520485e-02	8.586250e-03	-2.640959e-02	-4.540051e-02	-5.004695e-02	-4.663399e-02	-4.175642e-02	-3.969066e-02	-4.174466e-02	-4.767957e-02	-5.641864e-02	-6.671346e-02	-7.763733e-02	-8.849911e-02	-9.905536e-02	-1.092332e-01	-1.191140e-01	-1.288998e-01	-1.386654e-01	-1.485337e-01	-1.585041e-01	-1.685314e-01	-1.785632e-01	-1.885216e-01	-1.983766e-01	-2.081414e-01	-2.178668e-01	-2.274986e-01	-2.369801e-01	-2.462368e-01	-2.552542e-01	-2.640034e-01	-2.725073e-01	-2.807650e-01	-2.887994e-01	-2.966235e-01	-3.042702e-01	-3.118303e-01	-3.193642e-01	-3.268897e-01	-3.342826e-01	-3.412199e-01	-3.474351e-01	-3.530776e-01	-3.586427e-01	-3.646569e-01	-3.713864e-01	-3.788715e-01	-3.870077e-01	-3.958223e-01	-4.053118e-01	-4.152929e-01	-4.249861e-01	-4.328619e-01	-4.368050e-01	-4.348963e-01	-4.263506e-01	-4.124038e-01	-3.959847e-01	-3.803793e-01	-3.673870e-01	-3.564960e-01	-3.455555e-01	-3.324906e-01	-3.167248e-01	-2.988308e-01	-2.794050e-01	-2.583101e-01	-2.352093e-01	-2.098291e-01	-1.819445e-01	-1.512300e-01	-1.172383e-01	-7.942454e-02	-3.720027e-02	1.026353e-02	6.378972e-02	1.245816e-01	1.937438e-01	2.727812e-01	3.624596e-01	4.643839e-01	5.758763e-01	6.955153e-01	8.126659e-01	9.154932e-01	9.828288e-01	1.008445e+00	9.926803e-01	9.364035e-01	8.147801e-01	5.926428e-01	3.609974e-01	1.471893e-01	-2.714740e-02	-1.525340e-01	-2.316233e-01	-2.857435e-01	-3.429061e-01	-4.103826e-01	-4.718118e-01	-5.096066e-01	-5.205613e-01	-5.132968e-01	-4.982928e-01	-4.815981e-01	-4.652574e-01	-4.498508e-01	-4.357059e-01	-4.228708e-01	-4.109930e-01	-3.999173e-01	-3.898725e-01	-3.811648e-01	-3.738176e-01	-3.675258e-01	-3.619810e-01	-3.571005e-01	-3.529338e-01	-3.495457e-01	-3.468777e-01	-3.448111e-01	-3.432006e-01	-3.418095e-01	-3.404787e-01	-3.392117e-01	-3.383874e-01	-3.383788e-01	-3.397768e-01	-3.436726e-01	-3.504626e-01	-3.579277e-01	-3.615816e-01	-3.575399e-01	-3.451846e-01	-3.275326e-01	-3.092754e-01	-2.940201e-01	-2.826963e-01	-2.740788e-01	-2.664308e-01	-2.583202e-01	-2.489498e-01	-2.380947e-01	-2.257171e-01	-2.120860e-01	-1.974465e-01	-1.820141e-01	-1.658924e-01	-1.491454e-01	-1.318763e-01	-1.140974e-01	-9.595731e-02	-7.745112e-02	-5.873978e-02	-3.985478e-02	-2.099531e-02	-2.188179e-03	1.640987e-02	3.478918e-02	5.276986e-02	7.027382e-02	8.712134e-02	1.033021e-01	1.186671e-01	1.334858e-01	1.480666e-01	1.629724e-01	1.788660e-01	1.962897e-01	2.152447e-01	2.349810e-01	2.537693e-01	2.694157e-01	2.796750e-01	2.830287e-01	2.793384e-01	2.704764e-01	2.605593e-01	2.552723e-01	2.599959e-01	2.771895e-01	3.059576e-01	3.435839e-01	3.898166e-01	4.324637e-01	4.775725e-01	7.187402e-01	2.909180e-01	
SCALARS Conservative_3 float 1
LOOKUP_TABLE default
-1.322800e-01	-1.006648e-01	-1.057849e-01	-1.052231e-01	-1.107248e-01	-1.219969e-01	-1.382001e-01	-1.578443e-01	-1.782729e-01	-1.959636e-01	-2.071711e-01	-2.089590e-01	-2.005487e-01	-1.844070e-01	-1.654276e-01	-1.485520e-01	-1.366508e-01	-1.299205e-01	-1.271318e-01	-1.265370e-01	-1.267170e-01	-1.267519e-01	-1.261754e-01	-1.249626e-01	-1.231946e-01	-1.210845e-01	-1.187685e-01	-1.163272e-01	-1.138336e-01	-1.112582e-01	-1.086148e-01	-1.058734e-01	-1.030036e-01	-9.998939e-02	-9.681261e-02	-9.347624e-02	-8.998734e-02	-8.635707e-02	-8.258734e-02	-7.869206e-02	-7.467114e-02	-7.054182e-02	-6.630707e-02	-6.198199e-02	-5.756915e-02	-5.307905e-02	-4.851631e-02	-4.387472e-02	-3.917291e-02	-3.440363e-02	-2.954524e-02	-2.456383e-02	-1.944840e-02	-1.420001e-02	-8.831777e-03	-3.324617e-03	2.344547e-03	8.230435e-03	1.437632e-02	2.084135e-02	2.765010e-02	3.486133e-02	4.254410e-02	5.074138e-02	5.945920e-02	6.857847e-02	7.792152e-02	8.730541e-02	9.669465e-02	1.063087e-01	1.164914e-01	1.275462e-01	1.395149e-01	1.521548e-01	1.651966e-01	1.785661e-01	1.924324e-01	2.069889e-01	2.222282e-01	2.381147e-01	2.546615e-01	2.718713e-01	2.897690e-01	3.082784e-01	3.272999e-01	3.466953e-01	3.661824e-01	3.853078e-01	4.033164e-01	4.190616e-01	4.307998e-01	4.356071e-01	4.295927e-01	4.073236e-01	3.616471e-01	2.851415e-01	1.737561e-01	4.225269e-02	-1.010916e-01	-1.978204e-01	-2.893328e-01	-4.572926e-01	-6.094020e-01	-6.726802e-01	-6.750638e-01	-6.425140e-01	-5.874912e-01	-5.214258e-01	-4.607515e-01	-4.160769e-01	-3.845355e-01	-3.561028e-01	-3.250103e-01	-2.919985e-01	-2.603776e-01	-2.322568e-01	-2.079232e-01	-1.868139e-01	-1.684016e-01	-1.522400e-01	-1.379426e-01	-1.251559e-01	-1.136324e-01	-1.032671e-01	-9.393639e-02	-8.548200e-02	-7.773207e-02	-7.054004e-02	-6.383840e-02	-5.758752e-02	-5.172070e-02	-4.619313e-02	-4.092950e-02	-3.585087e-02	-3.086689e-02	-2.591782e-02	-2.108845e-02	-1.645376e-02	-1.184022e-02	-7.039005e-03	-2.206067e-03	2.493558e-03	7.141377e-03	1.203802e-02	1.741499e-02	2.323576e-02	2.924766e-02	3.520964e-02	4.103911e-02	4.684821e-02	5.277009e-02	5.886767e-02	6.512792e-02	7.151569e-02	7.794292e-02	8.433848e-02	9.066661e-02	9.685507e-02	1.028775e-01	1.086786e-01	1.142139e-01	1.194601e-01	1.243203e-01	1.288010e-01	1.328032e-01	1.363442e-01	1.393305e-01	1.418028e-01	1.436665e-01	1.449691e-01	1.456311e-01	1.457181e-01	1.452060e-01	1.442100e-01	1.427744e-01	1.411299e-01	1.393763e-01	1.376879e-01	1.360987e-01	1.344119e-01	1.321268e-01	1.284695e-01	1.225752e-01	1.138632e-01	1.023770e-01	8.905280e-02	7.569290e-02	6.470294e-02	5.855815e-02	5.895928e-02	6.597196e-02	7.751288e-02	8.996728e-02	1.000938e-01	1.066022e-01	1.093588e-01	1.091719e-01	1.274621e-01	1.105969e-01	-4.917055e-01	
SCALARS Conservative_4 float 1
LOOKUP_TABLE default
2.441131e-02	-3.706870e-02	-4.088894e-02	-4.250784e-02	-4.483966e-02	-4.540138e-02	-4.452911e-02	-4.179220e-02	-3.683114e-02	-2.957529e-02	-2.045574e-02	-1.049077e-02	-1.250769e-03	5.575743e-03	9.054152e-03	9.576195e-03	8.524792e-03	7.342448e-03	6.877111e-03	7.380339e-03	8.738225e-03	1.070463e-02	1.300621e-02	1.542473e-02	1.783163e-02	2.016285e-02	2.242192e-02	2.462782e-02	2.681176e-02	2.901035e-02	3.122859e-02	3.348149e-02	3.575968e-02	3.805178e-02	4.033840e-02	4.260638e-02	4.486401e-02	4.711563e-02	4.935790e-02	5.156929e-02	5.374073e-02	5.585999e-02	5.792824e-02	5.994235e-02	6.190967e-02	6.382831e-02	6.570725e-02	6.755048e-02	6.937722e-02	7.120283e-02	7.304141e-02	7.485371e-02	7.655965e-02	7.809491e-02	7.949333e-02	8.088398e-02	8.239727e-02	8.410861e-02	8.602219e-02	8.812268e-02	9.040270e-02	9.287004e-02	9.545704e-02	9.796907e-02	9.999757e-02	1.010203e-01	1.005490e-01	9.842696e-02	9.497396e-02	9.096270e-02	8.719864e-02	8.413632e-02	8.162749e-02	7.914170e-02	7.618221e-02	7.261868e-02	6.863147e-02	6.436495e-02	5.980826e-02	5.489897e-02	4.960602e-02	4.390458e-02	3.776710e-02	3.113528e-02	2.395428e-02	1.615650e-02	7.672328e-03	-1.568179e-03	-1.165150e-02	-2.267484e-02	-3.460133e-02	-4.754863e-02	-6.122839e-02	-7.536884e-02	-8.909645e-02	-1.015358e-01	-1.102136e-01	-1.115159e-01	-1.080629e-01	-1.043618e-01	-9.762640e-02	-7.387105e-02	-3.924017e-02	-4.264114e-03	2.804258e-02	5.509175e-02	7.427192e-02	8.483095e-02	9.187191e-02	1.018997e-01	1.163582e-01	1.302298e-01	1.384382e-01	1.398375e-01	1.365934e-01	1.314536e-01	1.260389e-01	1.208837e-01	1.161178e-01	1.118153e-01	1.079494e-01	1.044241e-01	1.011688e-01	9.823696e-02	9.570060e-02	9.356003e-02	9.173474e-02	9.013784e-02	8.873115e-02	8.753079e-02	8.654850e-02	8.576675e-02	8.516138e-02	8.468228e-02	8.427769e-02	8.388690e-02	8.352356e-02	8.328753e-02	8.327202e-02	8.359185e-02	8.451594e-02	8.615030e-02	8.797033e-02	8.889378e-02	8.793184e-02	8.489035e-02	8.047789e-02	7.585963e-02	7.196830e-02	6.906901e-02	6.689805e-02	6.500677e-02	6.303442e-02	6.078620e-02	5.819194e-02	5.526735e-02	5.205475e-02	4.862109e-02	4.501306e-02	4.127668e-02	3.742493e-02	3.348103e-02	2.945821e-02	2.538110e-02	2.126302e-02	1.712731e-02	1.299592e-02	8.899996e-03	4.852532e-03	8.762073e-04	-3.016098e-03	-6.797885e-03	-1.043770e-02	-1.392513e-02	-1.721543e-02	-2.033340e-02	-2.329284e-02	-2.617335e-02	-2.908039e-02	-3.216064e-02	-3.551472e-02	-3.916212e-02	-4.294371e-02	-4.654542e-02	-4.954111e-02	-5.151479e-02	-5.217273e-02	-5.146976e-02	-4.973284e-02	-4.771846e-02	-4.651480e-02	-4.717241e-02	-5.014331e-02	-5.522790e-02	-6.192012e-02	-7.076512e-02	-7.835927e-02	-8.752117e-02	-1.693509e-01	-7.795767e-02	
SCALARS Surface_Sensitivity float 1
LOOKUP_TABLE default
-8.437720e+02	2.264271e+02	1.067191e+01	6.993814e+00	5.423408e+00	2.855083e+00	2.014545e+00	1.487220e+00	1.067018e+00	7.198963e-01	4.800142e-01	2.128408e-01	-1.121660e-01	-2.185696e-01	-1.525782e-02	2.635595e-01	3.763190e-01	3.320273e-01	2.361735e-01	1.563553e-01	9.675993e-02	5.942877e-02	4.353671e-02	3.688007e-02	3.970967e-02	4.441394e-02	4.902641e-02	5.100850e-02	4.350077e-02	3.214991e-02	2.107179e-02	1.966950e-02	2.773915e-02	3.575311e-02	3.914596e-02	3.687326e-02	2.818426e-02	1.706289e-02	1.086936e-02	8.944761e-03	1.229676e-02	1.818564e-02	2.636199e-02	2.842934e-02	2.072933e-02	3.554870e-03	-6.339536e-03	5.808458e-03	3.264039e-02	2.141411e-02	-7.575495e-02	-2.249248e-01	-3.068289e-01	-2.081462e-01	1.109430e-01	5.796727e-01	1.010463e+00	1.151478e+00	8.689617e-01	2.769802e-01	-3.980413e-01	-9.667506e-01	-1.335445e+00	-1.447994e+00	-1.267164e+00	-7.939615e-01	-1.207568e-01	5.641976e-01	1.009589e+00	1.048603e+00	6.963584e-01	1.719545e-01	-2.267859e-01	-3.113938e-01	-1.495163e-01	2.641989e-02	6.530759e-02	1.625932e-02	-1.914062e-02	-2.833646e-02	-3.154878e-02	-3.616427e-02	-3.328091e-02	-4.815789e-03	2.576392e-02	6.608831e-02	1.459461e-01	2.606594e-01	4.386331e-01	7.494082e-01	1.224740e+00	1.921654e+00	3.006274e+00	4.104901e+00	4.541833e+00	5.043695e+00	4.421587e+00	1.192835e+01	7.618337e+00	-7.471930e+00	3.006612e+01	3.195089e+01	2.223479e+01	1.807760e+01	1.040408e+01	4.816869e+00	-1.648968e+00	-5.073626e+00	-1.590664e-01	8.804687e+00	1.309645e+01	9.928355e+00	3.236957e+00	-2.273836e+00	-4.741724e+00	-4.939612e+00	-4.296098e+00	-3.602552e+00	-3.072528e+00	-2.665202e+00	-2.268339e+00	-1.815732e+00	-1.346526e+00	-9.664268e-01	-7.210285e-01	-5.554587e-01	-4.242934e-01	-2.940158e-01	-1.311237e-01	8.067589e-02	2.986399e-01	4.302130e-01	4.112571e-01	3.757500e-01	7.897206e-01	2.199850e+00	4.393776e+00	5.622330e+00	4.411837e+00	1.918131e+00	-8.578817e-03	-8.939432e-01	-1.259194e+00	-1.706894e+00	-2.361374e+00	-2.916678e+00	-2.992381e+00	-2.396004e+00	-1.206317e+00	2.296962e-01	1.374947e+00	1.729125e+00	1.255756e+00	4.849036e-01	-7.173299e-02	-2.741317e-01	-2.332188e-01	-1.087657e-01	-2.024804e-02	5.898052e-03	-2.150069e-03	-1.230514e-02	-1.467398e-02	-1.914045e-02	-2.543650e-02	-3.179899e-02	-3.228190e-02	-3.275521e-02	-2.935603e-02	-3.201353e-02	-3.570945e-02	-4.189088e-02	-4.826105e-02	-5.327989e-02	-5.189170e-02	-5.667378e-02	-6.263178e-02	-7.695866e-02	-1.024269e-01	-1.400525e-01	-1.822890e-01	-2.201861e-01	-2.344754e-01	-2.194458e-01	-1.702219e-01	-1.011916e-01	-3.770829e-02	-2.371571e-02	-1.206966e-01	-4.258276e-01	-1.040696e+00	-1.880062e+00	-2.791990e+00	-4.029727e+00	-7.494154e+00	-9.662730e+00	-1.569496e+01	-3.131538e+02	6.622656e+02	4.159796e+02	