# vtk DataFile Version 3.0
vtk output
ASCII
DATASET UNSTRUCTURED_GRID
POINTS 5233 float
9.997500e-01	-3.633255e-05	0.0	9.990000e-01	-1.454797e-04	0.0	9.977600e-01	-3.275883e-04	0.0	9.960200e-01	-5.903629e-04	0.0	9.937800e-01	-9.486624e-04	0.0	9.910500e-01	-1.426401e-03	0.0	9.878400e-01	-2.055213e-03	0.0	9.841300e-01	-2.872446e-03	0.0	9.799500e-01	-3.890777e-03	0.0	9.752800e-01	-5.106851e-03	0.0	9.701500e-01	-6.471998e-03	0.0	9.645400e-01	-7.925203e-03	0.0	9.584700e-01	-9.388288e-03	0.0	9.519400e-01	-1.080379e-02	0.0	9.449600e-01	-1.214286e-02	0.0	9.375400e-01	-1.341036e-02	0.0	9.296900e-01	-1.463498e-02	0.0	9.214000e-01	-1.585675e-02	0.0	9.127000e-01	-1.710458e-02	0.0	9.035800e-01	-1.840062e-02	0.0	8.940600e-01	-1.974913e-02	0.0	8.841500e-01	-2.114574e-02	0.0	8.738500e-01	-2.258219e-02	0.0	8.631800e-01	-2.404637e-02	0.0	8.521600e-01	-2.552766e-02	0.0	8.407700e-01	-2.702306e-02	0.0	8.290500e-01	-2.852375e-02	0.0	8.170100e-01	-3.002640e-02	0.0	8.046400e-01	-3.153086e-02	0.0	7.919700e-01	-3.303226e-02	0.0	7.790100e-01	-3.452817e-02	0.0	7.657800e-01	-3.601485e-02	0.0	7.522800e-01	-3.749059e-02	0.0	7.385200e-01	-3.895237e-02	0.0	7.245300e-01	-4.039503e-02	0.0	7.103200e-01	-4.181559e-02	0.0	6.958900e-01	-4.321201e-02	0.0	6.812700e-01	-4.457940e-02	0.0	6.664700e-01	-4.591493e-02	0.0	6.515000e-01	-4.721585e-02	0.0	6.363800e-01	-4.847861e-02	0.0	6.211300e-01	-4.969986e-02	0.0	6.057600e-01	-5.087718e-02	0.0	5.902800e-01	-5.200821e-02	0.0	5.747100e-01	-5.308992e-02	0.0	5.590600e-01	-5.412012e-02	0.0	5.433600e-01	-5.509542e-02	0.0	5.276100e-01	-5.601445e-02	0.0	5.118400e-01	-5.687409e-02	0.0	4.960500e-01	-5.767300e-02	0.0	4.802700e-01	-5.840832e-02	0.0	4.645100e-01	-5.907830e-02	0.0	4.487800e-01	-5.968115e-02	0.0	4.331100e-01	-6.021439e-02	0.0	4.175000e-01	-6.067669e-02	0.0	4.019700e-01	-6.106601e-02	0.0	3.865400e-01	-6.138046e-02	0.0	3.712300e-01	-6.161827e-02	0.0	3.560400e-01	-6.177801e-02	0.0	3.409900e-01	-6.185793e-02	0.0	3.261100e-01	-6.185649e-02	0.0	3.114000e-01	-6.177232e-02	0.0	2.968700e-01	-6.160396e-02	0.0	2.825500e-01	-6.135034e-02	0.0	2.684500e-01	-6.101040e-02	0.0	2.545700e-01	-6.058274e-02	0.0	2.409400e-01	-6.006698e-02	0.0	2.275700e-01	-5.946242e-02	0.0	2.144700e-01	-5.876843e-02	0.0	2.016600e-01	-5.798512e-02	0.0	1.891400e-01	-5.711158e-02	0.0	1.769300e-01	-5.614837e-02	0.0	1.650400e-01	-5.509558e-02	0.0	1.534900e-01	-5.395453e-02	0.0	1.422900e-01	-5.272597e-02	0.0	1.314400e-01	-5.140961e-02	0.0	1.209500e-01	-5.000626e-02	0.0	1.108500e-01	-4.851998e-02	0.0	1.011300e-01	-4.694944e-02	0.0	9.181000e-02	-4.529793e-02	0.0	8.290000e-02	-4.356757e-02	0.0	7.440000e-02	-4.175861e-02	0.0	6.633000e-02	-3.987566e-02	0.0	5.869000e-02	-3.791922e-02	0.0	5.149000e-02	-3.589216e-02	0.0	4.474000e-02	-3.379782e-02	0.0	3.844000e-02	-3.163651e-02	0.0	3.260000e-02	-2.941175e-02	0.0	2.723000e-02	-2.712782e-02	0.0	2.232000e-02	-2.477998e-02	0.0	1.790000e-02	-2.238285e-02	0.0	1.395000e-02	-1.992560e-02	0.0	1.049000e-02	-1.741974e-02	0.0	7.520000e-03	-1.486605e-02	0.0	5.040000e-03	-1.226441e-02	0.0	3.050000e-03	-9.612702e-03	0.0	1.560000e-03	-6.925073e-03	0.0	5.600000e-04	-4.178658e-03	0.0	6.000000e-05	-1.376982e-03	0.0	0.000000e+00	0.000000e+00	0.0	6.000000e-05	1.269878e-03	0.0	5.600000e-04	3.619860e-03	0.0	1.560000e-03	5.723976e-03	0.0	3.050000e-03	7.628883e-03	0.0	5.040000e-03	9.376876e-03	0.0	7.520000e-03	1.097640e-02	0.0	1.049000e-02	1.244359e-02	0.0	1.395000e-02	1.379097e-02	0.0	1.790000e-02	1.502920e-02	0.0	2.232000e-02	1.616316e-02	0.0	2.723000e-02	1.720793e-02	0.0	3.260000e-02	1.816651e-02	0.0	3.844000e-02	1.905024e-02	0.0	4.474000e-02	1.986633e-02	0.0	5.149000e-02	2.062220e-02	0.0	5.869000e-02	2.132620e-02	0.0	6.633000e-02	2.198542e-02	0.0	7.440000e-02	2.260687e-02	0.0	8.290000e-02	2.319814e-02	0.0	9.181000e-02	2.376518e-02	0.0	1.011300e-01	2.431507e-02	0.0	1.108500e-01	2.485391e-02	0.0	1.209500e-01	2.538699e-02	0.0	1.314400e-01	2.592084e-02	0.0	1.422900e-01	2.645945e-02	0.0	1.534900e-01	2.700747e-02	0.0	1.650400e-01	2.756947e-02	0.0	1.769300e-01	2.814899e-02	0.0	1.891400e-01	2.874851e-02	0.0	2.016600e-01	2.937033e-02	0.0	2.144700e-01	3.001559e-02	0.0	2.275700e-01	3.068571e-02	0.0	2.409400e-01	3.138035e-02	0.0	2.545700e-01	3.209888e-02	0.0	2.684500e-01	3.283989e-02	0.0	2.825500e-01	3.360008e-02	0.0	2.968700e-01	3.437689e-02	0.0	3.114000e-01	3.516644e-02	0.0	3.261100e-01	3.596293e-02	0.0	3.409900e-01	3.676087e-02	0.0	3.560400e-01	3.755451e-02	0.0	3.712300e-01	3.833582e-02	0.0	3.865400e-01	3.909669e-02	0.0	4.019700e-01	3.982941e-02	0.0	4.175000e-01	4.052477e-02	0.0	4.331100e-01	4.117326e-02	0.0	4.487800e-01	4.176512e-02	0.0	4.645100e-01	4.229124e-02	0.0	4.802700e-01	4.274139e-02	0.0	4.960500e-01	4.310626e-02	0.0	5.118400e-01	4.337672e-02	0.0	5.276100e-01	4.354387e-02	0.0	5.433600e-01	4.359987e-02	0.0	5.590600e-01	4.353752e-02	0.0	5.747100e-01	4.335064e-02	0.0	5.902800e-01	4.303446e-02	0.0	6.057600e-01	4.258541e-02	0.0	6.211300e-01	4.200167e-02	0.0	6.363800e-01	4.128269e-02	0.0	6.515000e-01	4.042948e-02	0.0	6.664700e-01	3.944534e-02	0.0	6.812700e-01	3.833559e-02	0.0	6.958900e-01	3.710667e-02	0.0	7.103200e-01	3.576660e-02	0.0	7.245300e-01	3.432704e-02	0.0	7.385200e-01	3.279829e-02	0.0	7.522800e-01	3.119277e-02	0.0	7.657800e-01	2.952647e-02	0.0	7.790100e-01	2.781405e-02	0.0	7.919700e-01	2.606935e-02	0.0	8.046400e-01	2.430916e-02	0.0	8.170100e-01	2.254893e-02	0.0	8.290500e-01	2.080659e-02	0.0	8.407700e-01	1.909328e-02	0.0	8.521600e-01	1.742126e-02	0.0	8.631800e-01	1.580464e-02	0.0	8.738500e-01	1.424545e-02	0.0	8.841500e-01	1.274808e-02	0.0	8.940600e-01	1.131402e-02	0.0	9.035800e-01	9.941070e-03	0.0	9.127000e-01	8.631202e-03	0.0	9.214000e-01	7.394681e-03	0.0	9.296900e-01	6.247445e-03	0.0	9.375400e-01	5.220396e-03	0.0	9.449600e-01	4.342583e-03	0.0	9.519400e-01	3.638681e-03	0.0	9.584700e-01	3.113800e-03	0.0	9.645400e-01	2.745669e-03	0.0	9.701500e-01	2.486386e-03	0.0	9.752800e-01	2.276638e-03	0.0	9.799500e-01	2.061186e-03	0.0	9.841300e-01	1.808186e-03	0.0	9.878400e-01	1.510144e-03	0.0	9.910500e-01	1.185862e-03	0.0	9.937800e-01	8.614396e-04	0.0	9.960200e-01	5.661861e-04	0.0	9.977600e-01	3.231065e-04	0.0	9.990000e-01	1.450708e-04	0.0	9.997500e-01	3.632607e-05	0.0	1.000000e+00	0.000000e+00	0.0	1.984229e+01	2.506660e+00	0.0	1.937166e+01	4.973800e+00	0.0	1.859553e+01	7.362490e+00	0.0	1.752613e+01	9.635070e+00	0.0	1.618034e+01	1.175571e+01	0.0	1.457937e+01	1.369094e+01	0.0	1.274848e+01	1.541027e+01	0.0	1.071654e+01	1.688656e+01	0.0	8.515590e+00	1.809654e+01	0.0	6.180340e+00	1.902113e+01	0.0	3.747630e+00	1.964575e+01	0.0	1.255810e+00	1.996053e+01	0.0	-1.255810e+00	1.996053e+01	0.0	-3.747630e+00	1.964574e+01	0.0	-6.180340e+00	1.902113e+01	0.0	-8.515590e+00	1.809654e+01	0.0	-1.071654e+01	1.688656e+01	0.0	-1.274848e+01	1.541026e+01	0.0	-1.457937e+01	1.369094e+01	0.0	-1.618034e+01	1.175570e+01	0.0	-1.752613e+01	9.635070e+00	0.0	-1.859553e+01	7.362490e+00	0.0	-1.937166e+01	4.973800e+00	0.0	-1.984229e+01	2.506660e+00	0.0	-2.000000e+01	0.000000e+00	0.0	-1.984229e+01	-2.506670e+00	0.0	-1.937166e+01	-4.973800e+00	0.0	-1.859553e+01	-7.362490e+00	0.0	-1.752613e+01	-9.635080e+00	0.0	-1.618034e+01	-1.175571e+01	0.0	-1.457937e+01	-1.369094e+01	0.0	-1.274848e+01	-1.541027e+01	0.0	-1.071653e+01	-1.688656e+01	0.0	-8.515580e+00	-1.809654e+01	0.0	-6.180340e+00	-1.902113e+01	0.0	-3.747620e+00	-1.964575e+01	0.0	-1.255810e+00	-1.996053e+01	0.0	1.255810e+00	-1.996053e+01	0.0	3.747630e+00	-1.964574e+01	0.0	6.180340e+00	-1.902113e+01	0.0	8.515590e+00	-1.809654e+01	0.0	1.071654e+01	-1.688656e+01	0.0	1.274848e+01	-1.541026e+01	0.0	1.457937e+01	-1.369094e+01	0.0	1.618034e+01	-1.175570e+01	0.0	1.752614e+01	-9.635070e+00	0.0	1.859553e+01	-7.362490e+00	0.0	1.937166e+01	-4.973790e+00	0.0	1.984229e+01	-2.506660e+00	0.0	2.000000e+01	0.000000e+00	0.0	6.066873e-02	-4.580249e-02	0.0	6.602281e-01	-6.025063e-02	0.0	4.252029e-01	5.508237e-02	0.0	6.896619e-01	5.078200e-02	0.0	3.791408e-01	-7.552803e-02	0.0	9.994678e-01	-7.278284e-04	0.0	9.985549e-01	-1.332046e-03	0.0	7.738222e-01	-4.736051e-02	0.0	6.898911e-01	-5.726281e-02	0.0	-1.042090e-03	5.434544e-03	0.0	7.467952e-01	-5.079176e-02	0.0	5.830324e-01	5.712343e-02	0.0	9.928176e-01	-3.741284e-03	0.0	9.899383e-01	-4.753512e-03	0.0	5.986324e-01	5.664521e-02	0.0	7.187872e-01	-5.409767e-02	0.0	-1.437040e-03	5.961630e-04	0.0	9.865759e-01	-5.922632e-03	0.0	9.827374e-01	-7.252245e-03	0.0	-1.266878e-03	-6.415529e-03	0.0	6.451489e-01	-6.167080e-02	0.0	8.244835e-01	-4.026504e-02	0.0	7.997466e-01	-4.385103e-02	0.0	3.482483e-01	5.104171e-02	0.0	8.479020e-01	-3.665309e-02	0.0	2.474092e-01	4.447389e-02	0.0	8.699415e-01	-3.303544e-02	0.0	1.067359e-02	1.626742e-02	0.0	8.904956e-01	-2.946610e-02	0.0	7.693879e-02	-5.037481e-02	0.0	9.094921e-01	-2.599849e-02	0.0	-1.730363e-03	-3.168979e-03	0.0	9.424883e-01	-1.926238e-02	0.0	9.268507e-01	-2.263124e-02	0.0	1.792347e-02	-2.749779e-02	0.0	4.257760e-01	-7.473377e-02	0.0	8.591032e-01	-3.483970e-02	0.0	9.563430e-01	-1.575648e-02	0.0	9.784146e-01	-8.763706e-03	0.0	9.683375e-01	-1.214789e-02	0.0	1.581747e-01	-6.508727e-02	0.0	9.001955e-01	-2.771774e-02	0.0	7.604414e-01	-4.908904e-02	0.0	9.971366e-01	-2.088606e-03	0.0	5.991037e-01	-6.559808e-02	0.0	4.414831e-01	-7.429305e-02	0.0	5.363766e-01	-6.995064e-02	0.0	4.730628e-01	-7.316113e-02	0.0	5.047300e-01	-7.170853e-02	0.0	4.888847e-01	-7.247323e-02	0.0	1.248568e-01	-6.027085e-02	0.0	2.780328e-02	-3.307523e-02	0.0	3.945925e-01	-7.535386e-02	0.0	4.615668e-02	-4.093065e-02	0.0	4.101390e-01	-7.508916e-02	0.0	3.187037e-01	-7.529507e-02	0.0	3.486166e-01	-7.560454e-02	0.0	3.345932e-02	-3.575040e-02	0.0	2.894837e-01	-7.460005e-02	0.0	9.348894e-01	-2.095547e-02	0.0	1.467138e-01	-6.357578e-02	0.0	1.945672e-01	-6.901258e-02	0.0	8.570946e-02	-5.253530e-02	0.0	1.044959e-01	-5.659500e-02	0.0	5.678794e-01	-6.791440e-02	0.0	1.699804e-01	-6.650023e-02	0.0	6.145784e-01	-6.434437e-02	0.0	8.804128e-01	-3.124217e-02	0.0	2.263535e-02	-3.032266e-02	0.0	9.952229e-01	-2.872750e-03	0.0	6.738380e-03	-1.874503e-02	0.0	1.875454e-02	1.970004e-02	0.0	9.183797e-01	-2.430606e-02	0.0	9.49647
[...]
POINT_DATA 5233

SCALARS Conservative_1 float 1
LOOKUP_TABLE default
1.033403e+00	2.250802e-01	1.688566e-01	1.246738e-01	6.791279e-02	3.754521e-02	2.175336e-02	2.120450e-02	3.666756e-02	6.695071e-02	1.086217e-01	1.552030e-01	1.972240e-01	2.253443e-01	2.346985e-01	2.282060e-01	2.141387e-01	2.002519e-01	1.913191e-01	1.880123e-01	1.897169e-01	1.948303e-01	2.017937e-01	2.095360e-01	2.172033e-01	2.245785e-01	2.315861e-01	2.382972e-01	2.449885e-01	2.517317e-01	2.586697e-01	2.658748e-01	2.732091e-01	2.807766e-01	2.884182e-01	2.962291e-01	3.040947e-01	3.121859e-01	3.203696e-01	3.287459e-01	3.371583e-01	3.456940e-01	3.541753e-01	3.626536e-01	3.710144e-01	3.792537e-01	3.869555e-01	3.934283e-01	3.979499e-01	4.009240e-01	4.047440e-01	4.127888e-01	4.263959e-01	4.420004e-01	4.544022e-01	4.625148e-01	4.694961e-01	4.787014e-01	4.920230e-01	5.098554e-01	5.324442e-01	5.601662e-01	5.941440e-01	6.356870e-01	6.845344e-01	7.353616e-01	7.746769e-01	7.832208e-01	7.462113e-01	6.667160e-01	5.699092e-01	4.903950e-01	4.500311e-01	4.442386e-01	4.498335e-01	4.459317e-01	4.274842e-01	4.016345e-01	3.754529e-01	3.505110e-01	3.248501e-01	2.970597e-01	2.670391e-01	2.349333e-01	2.004914e-01	1.633515e-01	1.231034e-01	7.936869e-02	3.168181e-02	-2.028894e-02	-7.694514e-02	-1.380848e-01	-2.036274e-01	-2.710696e-01	-3.380074e-01	-3.966455e-01	-4.416952e-01	-4.626350e-01	-4.484185e-01	-4.217641e-01	-3.901116e-01	-3.080967e-01	-1.716039e-01	-6.764848e-02	1.106944e-01	5.171792e-01	8.544671e-01	8.153810e-01	5.515630e-01	3.261815e-01	1.995541e-01	1.229055e-01	6.502114e-02	1.881885e-02	-1.780947e-02	-4.613697e-02	-6.672621e-02	-7.961732e-02	-8.552593e-02	-8.521345e-02	-7.840597e-02	-6.569071e-02	-5.177689e-02	-4.322972e-02	-4.194264e-02	-4.427055e-02	-4.674817e-02	-4.824675e-02	-4.885685e-02	-4.882862e-02	-4.803487e-02	-4.643458e-02	-4.396914e-02	-4.065709e-02	-3.650402e-02	-3.148914e-02	-2.562393e-02	-1.886214e-02	-1.123393e-02	-2.900625e-03	6.125276e-03	1.652051e-02	2.922013e-02	4.318129e-02	5.456793e-02	6.167243e-02	7.436786e-02	1.143092e-01	1.955007e-01	3.001865e-01	3.797951e-01	3.883975e-01	3.195608e-01	2.118773e-01	1.141439e-01	4.909074e-02	1.274166e-02	-5.740352e-03	-1.218558e-02	-1.141669e-02	-1.159227e-02	-1.835382e-02	-3.200844e-02	-4.896779e-02	-6.706551e-02	-8.495411e-02	-1.031911e-01	-1.211611e-01	-1.390378e-01	-1.561873e-01	-1.729820e-01	-1.889488e-01	-2.044419e-01	-2.189699e-01	-2.329707e-01	-2.461680e-01	-2.588466e-01	-2.712941e-01	-2.838127e-01	-2.967680e-01	-3.105480e-01	-3.249992e-01	-3.399643e-01	-3.544845e-01	-3.679823e-01	-3.796937e-01	-3.896917e-01	-3.985782e-01	-4.080458e-01	-4.204871e-01	-4.388241e-01	-4.648167e-01	-4.991389e-01	-5.407580e-01	-5.890695e-01	-6.577699e-01	-7.095638e-01	-7.510181e-01	-1.530267e+00	-2.705381e-01	-5.934403e-04	-6.098555e-04	-6.263158e-04	-6.471137e-04	-6.764755e-04	-7.044271e-04	-7.391281e-04	-7.522125e-04	-7.302220e-04	-7.377377e-04	-7.730554e-04	-7.865681e-04	-7.842154e-04	-6.884711e-04	-5.777609e-04	-5.149353e-04	-4.452491e-04	-4.015574e-04	-3.478811e-04	-2.591291e-04	-1.746501e-04	-1.004623e-04	4.255509e-04	1.274517e-04	-9.180688e-04	2.726187e-04	9.355459e-04	7.814215e-04	5.658864e-04	6.806843e-04	7.846686e-04	9.025868e-04	1.006577e-03	1.076636e-03	1.109635e-03	1.050095e-03	8.331644e-04	5.294227e-04	1.643086e-04	-4.077263e-05	-1.812688e-04	-3.111731e-04	-3.966700e-04	-4.616681e-04	-5.006687e-04	-5.265540e-04	-5.455193e-04	-5.607645e-04	-5.667322e-04	-5.829554e-04	2.053328e-01	2.747908e-01	9.288718e-02	1.534769e-02	4.143285e-01	5.389118e-01	2.398916e-01	2.127297e-01	2.584743e-01	-2.784502e-01	2.274483e-01	1.240245e-01	3.220356e-02	9.774990e-03	7.834688e-02	2.427387e-01	-3.956003e-01	4.540859e-04	4.032448e-03	-4.378737e-01	2.830984e-01	1.849826e-01	1.986387e-01	3.217645e-02	1.709708e-01	-1.625470e-02	1.563568e-01	7.000872e-01	1.438572e-01	2.644662e-01	1.399896e-01	-4.439789e-01	1.614004e-01	1.499020e-01	-8.363568e-02	3.860594e-01	1.636498e-01	1.381957e-01	1.926134e-02	7.635300e-02	3.952108e-01	1.403825e-01	2.199903e-01	1.421088e-01	3.084266e-01	3.748002e-01	3.405985e-01	3.597415e-01	3.520644e-01	3.558111e-01	3.889682e-01	1.471533e-02	4.052133e-01	1.374402e-01	3.964670e-01	4.895262e-01	4.427163e-01	5.882627e-02	5.592415e-01	1.575230e-01	3.996988e-01	5.592998e-01	2.906563e-01	3.395777e-01	3.250533e-01	4.127126e-01	2.999642e-01	1.494994e-01	-3.276425e-02	7.343334e-02	-2.529692e-01	3.861851e-01	1.433569e-01	1.559939e-01	4.446281e-02	-1.828432e-01	1.780696e-01	7.025392e-01	3.330651e-01	2.350331e-01	2.056057e-01	3.654954e-01	7.125298e-01	3.167968e-01	2.665542e-01	1.725603e-01	-3.107629e-01	-1.378690e-01	4.263916e-01	4.697915e-01	8.433419e-01	7.275335e-01	3.150386e-01	5.209841e-01	6.559749e-01	3.656742e-01	2.505210e-01	-3.572369e-01	-4.068564e-01	4.003469e-01	-4.214331e-01	1.478013e-01	-1.784946e-02	4.418470e-02	-3.107401e-02	8.284698e-02	-6.497083e-01	4.290425e-01	1.823825e-01	-3.512282e-01	-3.368901e-01	-2.303967e-01	2.788753e-01	1.010717e-01	5.429611e-02	-2.823334e-01	-2.554086e-01	-5.791446e-02	-3.623941e-01	-3.292783e-01	-3.086461e-01	-5.214570e-02	-3.789582e-02	-5.781089e-04	-1.187416e-02	-2.623989e-02	1.422579e-02	1.236675e-01	6.861754e-02	-2.465367e-02	-2.596609e-02	4.353082e-02	-2.575508e-02	-2.257493e-02	3.247988e-02	2.034888e-01	-5.062577e-02	-1.544165e-02	-1.197212e-01	-8.590576e-02	-1.799547e-01	-1.512421e-01	-2.427030e-01	-2.059835e-01	-3.199295e-01	-2.687107e-01	-3.436260e-01	-1.932763e-01	-2.182695e-01	-1.358564e-01	-1.660141e-01	-6.841522e-02	-1.031066e-01	1.079172e-03	-3.296338e-02	3.735615e-02	2.572073e-02	3.089456e-01	5.512992e-02	-2.454861e-02	-1.981415e-02	-2.560559e-02	-2.630584e-02	9.069805e-03	-2.425781e-02	6.036127e-01	8.960835e-02	6.512000e-01	7.056352e-02	1.097291e-01	1.918101e-01	4.636970e-01	3.470983e-01	-1.220422e-01	2.331477e-01	4.623752e-01	-5.823615e-02	-5.120937e-02	-6.655146e-03	-4.127780e-02	-3.800406e-01	-4.062435e-01	6.377745e-03	-4.429999e-01	-4.905053e-01	2.288528e-02	4.232038e-02	-2.959342e-01	-1.439681e+00	-7.765834e-01	-1.101024e+00	2.915187e-01	9.965022e-02	-5.557390e-01	3.785661e-01	-3.633695e-01	-1.948539e-01	2.359394e-01	4.016172e-01	6.050721e-01	-2.897420e-02	-2.678273e-01	-3.328119e-01	5.287158e-01	2.111969e-01	1.011878e-01	-2.376369e-01	1.941181e-01	2.189584e-01	1.670386e-01	-1.073054e-02	4.225332e-01	1.264108e-01	1.399979e-01	2.565873e-01	-4.018781e-01	6.285531e-01	-1.380726e-01	7.267944e-02	3.487352e-01	2.035502e-01	2.349196e-01	3.190787e-01	2.319282e-01	3.533088e-01	1.033532e-01	1.601476e-01	3.848482e-01	2.880267e-01	6.160102e-02	-1.377176e-01	-9.640844e-03	5.183038e-02	-5.774558e-03	-1.764635e-01	-3.750566e-01	5.560014e-02	4.384996e-01	-2.829492e-01	-1.886468e-01	-4.123113e-01	-2.905907e-01	-3.262664e-01	6.515910e-03	4.610918e-02	2.765630e-03	-1.604304e-02	2.269054e-01	5.508872e-01	5.278582e-01	-6.575062e-03	9.415037e-03	-3.039492e-01	-4.592384e-01	-2.007271e-01	3.526292e-01	-5.661949e-01	-5.984785e-01	-5.203086e-01	6.858667e-02	-1.990051e-01	-2.870108e-01	-4.181310e-01	-3.985673e-01	-9.011190e-02	-6.114283e-02	1.763397e-01	1.068383e-01	2.300016e-02	1.179535e-01	2.915320e-01	-1.325987e-02	1.132129e-01	1.367068e-01	8.545118e-04	-4.250358e-01	3.238842e-01	1.054836e-01	1.331971e-01	2.245735e-02	1.196063e-01	1.075998e-01	2.051475e-01	1.011782e-01	1.034358e-01	1.030836e-01	-1.179341e-03	9.138017e-02	4.974186e-02	-7.043926e-03	3.472912e-01	1.812590e-01	1.740385e-01	5.703215e-02	3.166628e-01	3.142818e-01	3.106988e-01	-4.455692e-02	3.424356e-01	3.321233e-01	3.989631e-01	7.708510e-02	1.062819e-01	1.073083e-01	3.529644e-01	2.802370e-01	2.837577e-01	2.594951e-01	2.663855e-02	6.784620e-03	1.960631e-01	1.886189e-01	3.046302e-01	3.290019e-01	2.758308e-01	2.676984e-01	1.123085e-01	1.454587e-01	-1.878076e-01	3.801046e-01	3.653537e-01	3.873417e-01	4.596155e-01	6.670936e-01	6.618365e-01	4.866183e-01	4.515367e-01	6.257381e-01	-3.734975e-01	-3.319476e-01	3.510484e-02	-3.462514e-01	4.475287e-01	3.631459e-01	2.621687e-01	1.822095e-01	-3.127738e-01	-2.972125e-01	-2.383849e-01	1.413833e-01	1.267571e-01	9.072027e-02	-2.255841e-01	-2.736625e-01	-2.219161e-02	-9.314585e-03	1.100079e-02	1.630883e-02	-6.183529e-03	-7.007222e-03	-7.446619e-03	-7.717301e-02	-8.834213e-03	8.584592e-03	-6.054154e-02	-1.235465e-01	-2.130733e-01	-1.640218e-01	-1.511352e-01	-1.087928e-01	-9.316620e-02	-4.361989e-02	-2.622691e-02	2.509598e-02	3.996647e-02	7.083645e-02	8.090874e-02	2.855861e-01	3.857680e-01	9.206219e-02	1.076683e-01	-2.444326e-04	-2.516358e-03	-4.139671e-03	-5.141548e-03	4.365461e-01	7.058237e-02	1.186661e-01	1.533860e-01	1.467211e-01	3.055232e-01	2.989327e-01	-1.345191e-01	1.848191e-01	-2.435353e-02	-2.952683e-02	3.736820e-02	2.947548e-02	7.724736e-02	6.580358e-02	-2.629402e-01	-2.509236e-01	2.512398e-01	2.430599e-01	3.939343e-02	-3.706701e-01	5.769335e-01	-3.946092e-01	3.022022e-01	4.627863e-01	1.391392e-01	2.629386e-01	8.095620e-02	-3.715739e-01	-3.442704e-01	-2.782804e-01	-1.184798e-01	-4.021286e-01	-7.453853e-01	-7.450454e-01	3.025943e-02	-2.903614e-01	-9.618072e-02	-3.633265e-01	2.227231e-01	8.122888e-02	-1.657595e-02	2.475386e-01	2.197845e-01	-2.674179e-01	1.803643e-01	-3.406789e-01	1.732908e-01	-1.381776e-01	9.563572e-02	-2.250476e-01	3.672459e-01	1.015119e-01	1.875501e-01	-8.888982e-03	-1.816866e-01	-3.070226e-01	4.507148e-01	-2.619080e-01	7.764223e-02	-4.460960e-01	4.171912e-01	3.956086e-02	7.112454e-02	1.132759e-02	2.294949e-04	-7.928779e-01	-3.670770e-01	-2.673984e-01	3.197385e-01	-3.215536e-01	3.857023e-02	1.992843e-01	-3.920230e-01	3.068857e-01	2.827082e-01	-5.529494e-02	2.769846e-01	-1.179993e-01	-5.773943e-02	6.712873e-02	-3.229960e-01	-2.704749e-01	-1.819412e-01	-1.697272e-01	6.202575e-02	4.620563e-02	2.441838e-02	1.120598e-02	2.023982e-01	1.949390e-01	5.345604e-01	3.688012e-01	1.009852e-02	-2.950932e-01	-4.945115e-01	5.945268e-02	-2.032154e-01	-3.065716e-01	-4.049155e-01	-1.602077e-02	1.726403e-01	2.435310e-01	2.095449e-02	-1.947498e-02	1.764066e-01	2.821346e-01	1.315954e-01	1.140604e-01	1.076228e-01	9.037814e-02	8.607448e-02	1.473928e-01	1.742346e-01	8.296523e-02	8.156199e-02	6.820197e-02	5.501952e-02	-1.672730e-02	1.525698e-01	1.457689e-01	7.427969e-03	2.827335e-01	2.804978e-01	2.912218e-01	2.842342e-01	2.056031e-02	8.051214e-02	7.659173e-02	3.036542e-01	3.062072e-01	2.556937e-01	2.482331e-01	4.625405e-03	-8.452126e-03	1.664660e-01	1.595562e-01	2.459258e-01	2.695933e-01	2.908454e-01	2.407052e-01	2.329974e-01	5.496541e-02	8.779844e-02	1.187983e-01	3.465516e-01	3.297029e-01	3.152803e-01	3.243390e-01	3.741740e-01	4.523673e-01	5.927332e-01	6.109320e-01	4.247799e-01	3.931506e-01	5.927108e-01	3.594808e-02	3.336816e-01	2.439126e-01	-2.861035e-01	1.830274e-01	1.546896e-01	1.425040e-01	1.178872e-01	-2.182090e-01	6.409796e-03	1.800043e-02	3.372964e-02	2.873491e-02	9.114159e-03	9.169512e-03	1.042837e-02	9.861036e-03	-2.061858e-01	-1.939515e-01	-1.574427e-01	-1.447768e-01	-1.317148e-01	-1.039577e-01	-8.880051e-02	-7.328226e-02	-4.114335e-02	-2.445132e-02	-7.158530e-03	2.671481e-02	4.217166e-02	5.579382e-02	8.909480e-02	3.421239e-01	4.207582e-01	1.016227e-01	1.163996e-01	1.370490e-01	2.080331e-02	1.785344e-02	1.551744e-02	1.378202e-02	1.244497e-02	6.332373e-02	1.034854e-01	1.327603e-01	1.264828e-01	1.203071e-01	2.760624e-01	2.699346e-01	1.582112e-01	2.309521e-01	8.399916e-03	3.002724e-03	-6.568986e-04	5.369983e-02	1.040421e-01	9.175673e-02	8.096681e-02	-2.523755e-01	-2.416923e-01	-2.303493e-01	2.253144e-01	2.175958e-01	2.099885e-01	5.529949e-01	5.064910e-01	-3.565447e-01	1.913323e-01	-4.214188e-01	-3.072647e-01	2.423500e-01	-3.437062e-01	4.347237e-02	6.784764e-02	6.553148e-02	-2.962176e-02	-3.663803e-01	3.797831e-01	-3.330059e-01	2.528083e-01	-2.476744e-01	-2.671338e-01	-3.912522e-01	-2.541320e-01	7.816797e-02	-1.892447e-01	-4.221961e-01	-1.370988e-01	1.256030e-01	2.789718e-01	-1.006011e-01	2.669069e-01	1.688096e-01	2.609988e-01	4.118822e-01	-3.230976e-01	2.855184e-01	-2.590084e-01	-2.504713e-01	-5.375089e-02	2.361495e-02	4.896754e-02	-2.786301e-02	2.640323e-02	8.935555e-02	-5.232435e-01	-3.427551e-01	-1.643354e-02	2.011242e-03	-1.371566e-01	1.713193e-01	-2.812944e-01	1.638881e-01	1.581358e-01	-1.741934e-01	-2.637098e-02	-2.118414e-01	-1.118088e-01	4.332744e-01	6.886983e-02	-3.059510e-01	1.802501e-01	6.516304e-02	-1.748428e-01	7.705551e-02	6.144260e-02	5.481551e-02	1.853804e-01	1.776229e-01	-2.942726e-01	3.222804e-02	-1.042339e-01	-3.110634e-01	-3.846458e-01	-6.403123e-02	1.601254e-02	-2.585325e-02	1.980278e-01	1.011644e-01	9.494844e-02	8.386806e-02	7.923518e-02	1.199462e-01	1.450945e-01	7.532662e-02	7.280489e-02	7.054919e-02	4.342968e-02	3.030445e-02	1.385712e-01	1.313511e-01	-2.362115e-02	2.627193e-01	2.623449e-01	2.603036e-01	2.590037e-01	6.122523e-02	5.390567e-02	2.639666e-01	2.687745e-01	2.344807e-01	-1.037179e-02	-1.992567e-02	1.517164e-01	1.443614e-01	2.138658e-01	2.363319e-01	2.543874e-01	2.283976e-01	2.203759e-01	2.727518e-03	3.425194e-02	6.495029e-02	9.340960e-02	3.279670e-01	3.094769e-01	2.933447e-01	2.787538e-01	3.094836e-01	3.678899e-01	4.430754e-01	5.098769e-01	5.496798e-01	3.505064e-01	3.781902e-01	5.535420e-01	2.943358e-01	-2.839042e-01	-2.752037e-01	2.194621e-01	1.745217e-01	1.535293e-01	1.421732e-01	1.304376e-01	3.144333e-02	4.290987e-02	4.389332e-02	3.950591e-02	2.217757e-02	2.183318e-02	2.315482e-02	2.634035e-02	-2.090771e-01	-1.978441e-01	-1.864330e-01	-1.630382e-01	-1.508690e-01	-1.384099e-01	-1.248613e-01	-9.905560e-02	-8.247938e-02	-6.800594e-02	-3.628967e-02	-2.115229e-02	-2.847966e-03	1.166990e-02	2.943616e-02	4.152810e-02	5.661668e-02	4.170929e-01	3.706773e-01	8.727656e-02	1.036874e-01	1.200048e-01	1.502091e-01	3.573582e-02	3.260255e-02	2.999238e-02	2.798030e-02	2.633842e-02	2.499148e-02	6.392377e-02	9.708611e-02	1.192450e-01	1.129268e-01	1.072841e-01	2.590597e-01	2.554986e-01	2.479867e-01	1.416512e-01	1.924561e-01	2.402877e-01	2.992412e-02	3.036725e-02	2.804045e-02	2.590529e-02	1.179513e-01	1.061931e-01	9.542910e-02	8.585202e-02	-2.202909e-01	-2.409425e-01	-2.310923e-01	2.140183e-01	2.060307e-01	1.996259e-01	1.917737e-01	5.297956e-01	4.920309e-01	4.501848e-01	-1.673014e-01	-3.867108e-01	-3.695845e-03	-6.393965e-01	-1.993987e-01	1.510334e-01	1.647687e-01	-2.299655e-01	-2.898252e-01	-2.845994e-01	-7.190635e-02	2.623683e-01	3.100521e-02	1.060096e-01	-1.752978e-01	-3.283482e-01	-3.795261e-01	-3.878658e-01	-3.666468e-01	-3.046450e-01	-3.546534e-02	7.612912e-02	-1.482957e-02	-4.135763e-02	4.767050e-02	1.187444e-01	2.472581e-01	-3.504181e-01	-2.106398e-01	-2.372948e-01	3.343143e-01	3.885725e-01	6.314290e-02	-4.389623e-02	3.275403e-01	2.321539e-01	8.416932e-02	-3.339002e-01	1.429221e-01	-5.969956e-01	-3.025311e-01	-3.826435e-01	7.525616e-02	7.681018e-02	5.418511e-02	-4.250921e-02	-3.210668e-01	1.675865e-01	-2.585557e-01	-2.537793e-01	-2.376480e-01	-3.759899e-01	-1.957938e-01	-1.362194e-01	3.467934e-01	3.752250e-01	-3.167162e-01	2.200969e-01	-2.459211e-01	-3.828980e-02	1.633755e-01	-2.885079e-01	6.906560e-02	6.250722e-02	5.685112e-02	1.772590e-01	2.994137e-03	-9.817919e-02	-3.507903e-01	-1.038523e-01	8.999710e-02	8.559784e-02	7.868601e-02	7.436549e-02	1.199072e-01	9.562868e-02	6.835853e-02	6.590116e-02	6.159869e-02	5.647008e-02	2.014240e-02	8.260354e-03	1.307380e-01	-4.378165e-02	2.512753e-01	2.508806e-01	2.466030e-01	2.478015e-01	4.008275e-02	3.106760e-02	2.328142e-01	2.444576e-01	-2.459951e-02	-3.245180e-02	1.404267e-01	1.887658e-01	2.132974e-01	2.232735e-01	2.188138e-01	-1.356052e-02	1.576725e-02	4.401194e-02	7.054129e-02	3.217167e-01	3.022860e-01	2.835755e-01	2.689319e-01	2.553181e-01	3.055019e-01	3.650773e-01	4.379673e-01	4.825988e-01	5.156309e-01	-2.790820e-01	-2.698955e-01	-2.616855e-01	2.520217e-01	1.921668e-01	1.563420e-01	1.403378e-01	1.318363e-01	4.503030e-02	5.069748e-02	5.193649e-02	4.760623e-02	2.994566e-02	3.118808e-02	3.399039e-02	-1.992624e-01	-1.895768e-01	-1.779837e-01	-1.676882e-01	-1.556462e-01	-1.445236e-01	-1.317076e-01	-1.134991e-01	-9.364497e-02	-7.199303e-02	-1.286177e-02	1.684232e-02	4.229745e-02	8.854066e-02	1.371811e-01	4.406542e-02	4.078237e-02	3.843042e-02	3.611553e-02	3.486104e-02	3.340308e-02	3.222698e-02	6.625756e-02	9.289141e-02	1.081888e-01	1.034249e-01	9.702297e-02	2.490140e-01	2.437004e-01	1.266540e-01	1.585078e-01	1.778573e-01	3.952947e-02	4.580856e-02	4.909902e-02	4.819626e-02	4.548622e-02	1.214652e-01	1.124018e-01	1.023461e-01	9.180790e-02	-2.284021e-01	-2.191109e-01	2.050558e-01	1.912061e-01	5.026533e-01	4.835731e-01	4.446486e-01	4.104138e-01	9.097358e-02	-5.920731e-01	-2.136716e-01	-3.492156e-01	-1.053014e-01	-3.035105e-02	-3.065367e-01	-2.684573e-01	-2.470960e-01	-4.310473e-02	-4.654439e-02	-3.108757e-01	-7.880164e-02	-1.877039e-01	8.284860e-02	-4.566666e-01	-2.224914e-02	-2.202596e-01	-1.611349e-01	-2.085460e-02	2.268749e-01	-2.933374e-01	3.371391e-01	2.852402e-02	3.937730e-02	1.876471e-01	1.461667e-01	2.801952e-01	-2.787399e-01	2.381580e-01	9.955679e-02	1.215144e-01	3.481603e-02	-2.719045e-01	-2.020817e-01	-3.085340e-01	5.159818e-02	-1.061744e-02	-5.875905e-01	-2.819178e-01	-3.768294e-01	-2.902012e-01	-5.280817e-02	1.360590e-01	3.386684e-01	2.483959e-01	-3.207407e-01	-2.783225e-01	-3.886970e-01	-3.704561e-01	4.849264e-02	-5.312614e-02	-2.600276e-01	-2.378517e-01	2.509668e-01	-1.058978e-01	-2.395694e-01	-2.315095e-01	3.372891e-01	6.914195e-02	5.773057e-02	1.470560e-01	-9.679112e-02	-1.626365e-01	-1.345524e-01	7.574631e-02	6.472109e-02	7.570052e-02	5.539747e-02	4.667007e-02	-2.081970e-04	-5.767571e-02	2.409339e-01	1.946084e-02	1.009261e-02	2.199935e-01	-3.892629e-02	1.257670e-01	1.147039e-01	1.813574e-01	1.991194e-01	2.146518e-01	-2.640258e-02	1.752207e-03	3.022161e-02	5.082488e-02	2.916897e-01	2.583847e-01	2.396867e-01	3.893759e-01	4.627938e-01	-2.630015e-01	-2.548782e-01	1.572768e-01	1.241340e-01	5.508310e-02	4.928041e-02	3.687020e-02	-8.332221e-02	-1.831095e-01	-1.623093e-01	-1.408384e-01	-1.206440e-01	-1.023184e-01	-6.076510e-02	-3.349955e-02	-5.119000e-03	2.070324e-02	4.202675e-02	6.252976e-02	9.486442e-02	1.557164e-01	4.316834e-02	3.913992e-02	3.725367e-02	3.621874e-02	3.538334e-02	6.573018e-02	8.611374e-02	1.034195e-01	9.424926e-02	8.439441e-02	2.397771e-01	2.355450e-01	1.094068e-01	1.253565e-01	1.254664e-01	1.033547e-01	4.156843e-02	4.993844e-02	5.839512e-02	6.148792e-02	5.806163e-02	5.421508e-02	1.098699e-01	9.606037e-02	-2.246114e-01	-2.149715e-01	2.012498e-01	1.739062e-01	1.600143e-01	4.517227e-01	3.952223e-01	-3.293575e-01	3.745871e-02	3.688029e-02	-4.137524e-01	4.517817e-03	-2.984749e-01	-3.505123e-01	-5.477287e-02	-2.193289e-01	-1.553400e-01	-3.236846e-02	-6.262956e-02	-9.857322e-02	-2.873333e-01	-2.749678e-01	-2.471268e-01	1.212014e-01	8.890883e-02	-3.627030e-01	3.994995e-02	-1.067442e-01	5.605204e-02	-4.246241e-02	-1.990302e-01	2.270419e-01	1.032036e-02	1.702816e-01	2.094946e-01	-3.652432e-02	-4.535914e-02	-8.384865e-02	-6.025778e-02	-5.112079e-01	-2.729111e-01	-2.833037e-01	-2.327868e-01	6.315401e-02	1.825029e-01	1.435877e-01	6.288690e-02	-5.262609e-01	-5.415981e-01	-3.618212e-01	-2.723864e-02	-2.399407e-01	-1.953449e-01	-5.320895e-02	-2.480934e-01	-1.772904e-01	2.198074e-01	-2.640599e-01	8.091745e-02	1.045908e-01	-2.631977e-01	-3.323912e-01	-1.769324e-02	-6.156529e-02	1.317737e-01	-3.446824e-01	-2.928212e-02	3.616845e-02	-2.542480e-01	-2.374765e-01	3.146956e-01	-1.318191e-01	-2.252539e-01	2.674946e-01	7.543868e-02	1.122013e-01	-1.525425e-01	-2.032033e-01	6.024922e-02	4.959702e-02	3.041806e-02	2.024480e-02	-6.704631e-02	2.278462e-01	1.315718e-03	-8.098963e-03	2.360436e-01	8.878399e-02	7.961263e-02	1.106788e-01	1.347732e-01	1.632364e-01	1.800723e-01	-3.370529e-02	3.008953e-01	2.613481e-01	2.134023e-01	2.935348e-01	1.567420e-01	-2.547892e-01	2.813402e-01	1.969483e-01	3.696284e-02	-1.849167e-01	-1.666385e-01	-9.210089e-02	-1.469918e-01	-1.277481e-01	-1.096682e-01	-7.275523e-02	-4.959348e-02	-2.355615e-02	2.225272e-03	2.500990e-02	4.544340e-02	7.038029e-02	5.354093e-02	4.651731e-02	4.162897e-02	3.872209e-02	3.700028e-02	3.627171e-02	5.970274e-02	7.433137e-02	9.949719e-02	7.047014e-02	2.289013e-01	2.263173e-01	8.842670e-02	9.255473e-02	8.130077e-02	5.440358e-02	1.180476e-02	3.999506e-02	4.746102e-02	5.764544e-02	6