# vtk DataFile Version 3.0
vtk output
ASCII
DATASET UNSTRUCTURED_GRID
POINTS 200 float
9.997500e-01	-3.633255e-05	0.0	9.990000e-01	-1.454797e-04	0.0	9.977600e-01	-3.275883e-04	0.0	9.960200e-01	-5.903629e-04	0.0	9.937800e-01	-9.486624e-04	0.0	9.910500e-01	-1.426401e-03	0.0	9.878400e-01	-2.055213e-03	0.0	9.841300e-01	-2.872446e-03	0.0	9.799500e-01	-3.890777e-03	0.0	9.752800e-01	-5.106851e-03	0.0	9.701500e-01	-6.471998e-03	0.0	9.645400e-01	-7.925203e-03	0.0	9.584700e-01	-9.388288e-03	0.0	9.519400e-01	-1.080379e-02	0.0	9.449600e-01	-1.214286e-02	0.0	9.375400e-01	-1.341036e-02	0.0	9.296900e-01	-1.463498e-02	0.0	9.214000e-01	-1.585675e-02	0.0	9.127000e-01	-1.710458e-02	0.0	9.035800e-01	-1.840062e-02	0.0	8.940600e-01	-1.974913e-02	0.0	8.841500e-01	-2.114574e-02	0.0	8.738500e-01	-2.258219e-02	0.0	8.631800e-01	-2.404637e-02	0.0	8.521600e-01	-2.552766e-02	0.0	8.407700e-01	-2.702306e-02	0.0	8.290500e-01	-2.852375e-02	0.0	8.170100e-01	-3.002640e-02	0.0	8.046400e-01	-3.153086e-02	0.0	7.919700e-01	-3.303226e-02	0.0	7.790100e-01	-3.452817e-02	0.0	7.657800e-01	-3.601485e-02	0.0	7.522800e-01	-3.749059e-02	0.0	7.385200e-01	-3.895237e-02	0.0	7.245300e-01	-4.039503e-02	0.0	7.103200e-01	-4.181559e-02	0.0	6.958900e-01	-4.321201e-02	0.0	6.812700e-01	-4.457940e-02	0.0	6.664700e-01	-4.591493e-02	0.0	6.515000e-01	-4.721585e-02	0.0	6.363800e-01	-4.847861e-02	0.0	6.211300e-01	-4.969986e-02	0.0	6.057600e-01	-5.087718e-02	0.0	5.902800e-01	-5.200821e-02	0.0	5.747100e-01	-5.308992e-02	0.0	5.590600e-01	-5.412012e-02	0.0	5.433600e-01	-5.509542e-02	0.0	5.276100e-01	-5.601445e-02	0.0	5.118400e-01	-5.687409e-02	0.0	4.960500e-01	-5.767300e-02	0.0	4.802700e-01	-5.840832e-02	0.0	4.645100e-01	-5.907830e-02	0.0	4.487800e-01	-5.968115e-02	0.0	4.331100e-01	-6.021439e-02	0.0	4.175000e-01	-6.067669e-02	0.0	4.019700e-01	-6.106601e-02	0.0	3.865400e-01	-6.138046e-02	0.0	3.712300e-01	-6.161827e-02	0.0	3.560400e-01	-6.177801e-02	0.0	3.409900e-01	-6.185793e-02	0.0	3.261100e-01	-6.185649e-02	0.0	3.114000e-01	-6.177232e-02	0.0	2.968700e-01	-6.160396e-02	0.0	2.825500e-01	-6.135034e-02	0.0	2.684500e-01	-6.101040e-02	0.0	2.545700e-01	-6.058274e-02	0.0	2.409400e-01	-6.006698e-02	0.0	2.275700e-01	-5.946242e-02	0.0	2.144700e-01	-5.876843e-02	0.0	2.016600e-01	-5.798512e-02	0.0	1.891400e-01	-5.711158e-02	0.0	1.769300e-01	-5.614837e-02	0.0	1.650400e-01	-5.509558e-02	0.0	1.534900e-01	-5.395453e-02	0.0	1.422900e-01	-5.272597e-02	0.0	1.314400e-01	-5.140961e-02	0.0	1.209500e-01	-5.000626e-02	0.0	1.108500e-01	-4.851998e-02	0.0	1.011300e-01	-4.694944e-02	0.0	9.181000e-02	-4.529793e-02	0.0	8.290000e-02	-4.356757e-02	0.0	7.440000e-02	-4.175861e-02	0.0	6.633000e-02	-3.987566e-02	0.0	5.869000e-02	-3.791922e-02	0.0	5.149000e-02	-3.589216e-02	0.0	4.474000e-02	-3.379782e-02	0.0	3.844000e-02	-3.163651e-02	0.0	3.260000e-02	-2.941175e-02	0.0	2.723000e-02	-2.712782e-02	0.0	2.232000e-02	-2.477998e-02	0.0	1.790000e-02	-2.238285e-02	0.0	1.395000e-02	-1.992560e-02	0.0	1.049000e-02	-1.741974e-02	0.0	7.520000e-03	-1.486605e-02	0.0	5.040000e-03	-1.226441e-02	0.0	3.050000e-03	-9.612702e-03	0.0	1.560000e-03	-6.925073e-03	0.0	5.600000e-04	-4.178658e-03	0.0	6.000000e-05	-1.376982e-03	0.0	0.000000e+00	0.000000e+00	0.0	6.000000e-05	1.269878e-03	0.0	5.600000e-04	3.619860e-03	0.0	1.560000e-03	5.723976e-03	0.0	3.050000e-03	7.628883e-03	0.0	5.040000e-03	9.376876e-03	0.0	7.520000e-03	1.097640e-02	0.0	1.049000e-02	1.244359e-02	0.0	1.395000e-02	1.379097e-02	0.0	1.790000e-02	1.502920e-02	0.0	2.232000e-02	1.616316e-02	0.0	2.723000e-02	1.720793e-02	0.0	3.260000e-02	1.816651e-02	0.0	3.844000e-02	1.905024e-02	0.0	4.474000e-02	1.986633e-02	0.0	5.149000e-02	2.062220e-02	0.0	5.869000e-02	2.132620e-02	0.0	6.633000e-02	2.198542e-02	0.0	7.440000e-02	2.260687e-02	0.0	8.290000e-02	2.319814e-02	0.0	9.181000e-02	2.376518e-02	0.0	1.011300e-01	2.431507e-02	0.0	1.108500e-01	2.485391e-02	0.0	1.209500e-01	2.538699e-02	0.0	1.314400e-01	2.592084e-02	0.0	1.422900e-01	2.645945e-02	0.0	1.534900e-01	2.700747e-02	0.0	1.650400e-01	2.756947e-02	0.0	1.769300e-01	2.814899e-02	0.0	1.891400e-01	2.874851e-02	0.0	2.016600e-01	2.937033e-02	0.0	2.144700e-01	3.001559e-02	0.0	2.275700e-01	3.068571e-02	0.0	2.409400e-01	3.138035e-02	0.0	2.545700e-01	3.209888e-02	0.0	2.684500e-01	3.283989e-02	0.0	2.825500e-01	3.360008e-02	0.0	2.968700e-01	3.437689e-02	0.0	3.114000e-01	3.516644e-02	0.0	3.261100e-01	3.596293e-02	0.0	3.409900e-01	3.676087e-02	0.0	3.560400e-01	3.755451e-02	0.0	3.712300e-01	3.833582e-02	0.0	3.865400e-01	3.909669e-02	0.0	4.019700e-01	3.982941e-02	0.0	4.175000e-01	4.052477e-02	0.0	4.331100e-01	4.117326e-02	0.0	4.487800e-01	4.176512e-02	0.0	4.645100e-01	4.229124e-02	0.0	4.802700e-01	4.274139e-02	0.0	4.960500e-01	4.310626e-02	0.0	5.118400e-01	4.337672e-02	0.0	5.276100e-01	4.354387e-02	0.0	5.433600e-01	4.359987e-02	0.0	5.590600e-01	4.353752e-02	0.0	5.747100e-01	4.335064e-02	0.0	5.902800e-01	4.303446e-02	0.0	6.057600e-01	4.258541e-02	0.0	6.211300e-01	4.200167e-02	0.0	6.363800e-01	4.128269e-02	0.0	6.515000e-01	4.042948e-02	0.0	6.664700e-01	3.944534e-02	0.0	6.812700e-01	3.833559e-02	0.0	6.958900e-01	3.710667e-02	0.0	7.103200e-01	3.576660e-02	0.0	7.245300e-01	3.432704e-02	0.0	7.385200e-01	3.279829e-02	0.0	7.522800e-01	3.119277e-02	0.0	7.657800e-01	2.952647e-02	0.0	7.790100e-01	2.781405e-02	0.0	7.919700e-01	2.606935e-02	0.0	8.046400e-01	2.430916e-02	0.0	8.170100e-01	2.254893e-02	0.0	8.290500e-01	2.080659e-02	0.0	8.407700e-01	1.909328e-02	0.0	8.521600e-01	1.742126e-02	0.0	8.631800e-01	1.580464e-02	0.0	8.738500e-01	1.424545e-02	0.0	8.841500e-01	1.274808e-02	0.0	8.940600e-01	1.131402e-02	0.0	9.035800e-01	9.941070e-03	0.0	9.127000e-01	8.631202e-03	0.0	9.214000e-01	7.394681e-03	0.0	9.296900e-01	6.247445e-03	0.0	9.375400e-01	5.220396e-03	0.0	9.449600e-01	4.342583e-03	0.0	9.519400e-01	3.638681e-03	0.0	9.584700e-01	3.113800e-03	0.0	9.645400e-01	2.745669e-03	0.0	9.701500e-01	2.486386e-03	0.0	9.752800e-01	2.276638e-03	0.0	9.799500e-01	2.061186e-03	0.0	9.841300e-01	1.808186e-03	0.0	9.878400e-01	1.510144e-03	0.0	9.910500e-01	1.185862e-03	0.0	9.937800e-01	8.614396e-04	0.0	9.960200e-01	5.661861e-04	0.0	9.977600e-01	3.231065e-04	0.0	9.990000e-01	1.450708e-04	0.0	9.997500e-01	3.632607e-05	0.0	1.000000e+00	0.000000e+00	0.0	
CELLS 200	600
2	199	0	2	0	1	2	1	2	2	2	3	2	3	4	2	4	5	2	5	6	2	6	7	2	7	8	2	8	9	2	9	10	2	10	11	2	11	12	2	12	13	2	13	14	2	14	15	2	15	16	2	16	17	2	17	18	2	18	19	2	19	20	2	20	21	2	21	22	2	22	23	2	23	24	2	24	25	2	25	26	2	26	27	2	27	28	2	28	29	2	29	30	2	30	31	2	31	32	2	32	33	2	33	34	2	34	35	2	35	36	2	36	37	2	37	38	2	38	39	2	39	40	2	40	41	2	41	42	2	42	43	2	43	44	2	44	45	2	45	46	2	46	47	2	47	48	2	48	49	2	49	50	2	50	51	2	51	52	2	52	53	2	53	54	2	54	55	2	55	56	2	56	57	2	57	58	2	58	59	2	59	60	2	60	61	2	61	62	2	62	63	2	63	64	2	64	65	2	65	66	2	66	67	2	67	68	2	68	69	2	69	70	2	70	71	2	71	72	2	72	73	2	73	74	2	74	75	2	75	76	2	76	77	2	77	78	2	78	79	2	79	80	2	80	81	2	81	82	2	82	83	2	83	84	2	84	85	2	85	86	2	86	87	2	87	88	2	88	89	2	89	90	2	90	91	2	91	92	2	92	93	2	93	94	2	94	95	2	95	96	2	96	97	2	97	98	2	98	99	2	99	100	2	100	101	2	101	102	2	102	103	2	103	104	2	104	105	2	105	106	2	106	107	2	107	108	2	108	109	2	109	110	2	110	111	2	111	112	2	112	113	2	113	114	2	114	115	2	115	116	2	116	117	2	117	118	2	118	119	2	119	120	2	120	121	2	121	122	2	122	123	2	123	124	2	124	125	2	125	126	2	126	127	2	127	128	2	128	129	2	129	130	2	130	131	2	131	132	2	132	133	2	133	134	2	134	135	2	135	136	2	136	137	2	137	138	2	138	139	2	139	140	2	140	141	2	141	142	2	142	143	2	143	144	2	144	145	2	145	146	2	146	147	2	147	148	2	148	149	2	149	150	2	150	151	2	151	152	2	152	153	2	153	154	2	154	155	2	155	156	2	156	157	2	157	158	2	158	159	2	159	160	2	160	161	2	161	162	2	162	163	2	163	164	2	164	165	2	165	166	2	166	167	2	167	168	2	168	169	2	169	170	2	170	171	2	171	172	2	172	173	2	173	174	2	174	175	2	175	176	2	176	177	2	177	178	2	178	179	2	179	180	2	180	181	2	181	182	2	182	183	2	183	184	2	184	185	2	185	186	2	186	187	2	187	188	2	188	189	2	189	190	2	190	191	2	191	192	2	192	193	2	193	194	2	194	195	2	195	196	2	196	197	2	197	198	2	198	199	
CELL_TYPES 200
3	3	3	3	3	3	3	3	3	3	3	3	3	3	3	3	3	3	3	3	3	3	3	3	3	3	3	3	3	3	3	3	3	3	3	3	3	3	3	3	3	3	3	3	3	3	3	3	3	3	3	3	3	3	3	3	3	3	3	3	3	3	3	3	3	3	3	3	3	3	3	3	3	3	3	3	3	3	3	3	3	3	3	3	3	3	3	3	3	3	3	3	3	3	3	3	3	3	3	3	3	3	3	3	3	3	3	3	3	3	3	3	3	3	3	3	3	3	3	3	3	3	3	3	3	3	3	3	3	3	3	3	3	3	3	3	3	3	3	3	3	3	3	3	3	3	3	3	3	3	3	3	3	3	3	3	3	3	3	3	3	3	3	3	3	3	3	3	3	3	3	3	3	3	3	3	3	3	3	3	3	3	3	3	3	3	3	3	3	3	3	3	3	3	3	3	3	3	3	3	
POINT_DATA 200

SCALARS Conservative_1 float 1
LOOKUP_TABLE default
1.033403e+00	2.250802e-01	1.688566e-01	1.246738e-01	6.791279e-02	3.754521e-02	2.175336e-02	2.120450e-02	3.666756e-02	6.695071e-02	1.086217e-01	1.552030e-01	1.972240e-01	2.253443e-01	2.346985e-01	2.282060e-01	2.141387e-01	2.002519e-01	1.913191e-01	1.880123e-01	1.897169e-01	1.948303e-01	2.017937e-01	2.095360e-01	2.172033e-01	2.245785e-01	2.315861e-01	2.382972e-01	2.449885e-01	2.517317e-01	2.586697e-01	2.658748e-01	2.732091e-01	2.807766e-01	2.884182e-01	2.962291e-01	3.040947e-01	3.121859e-01	3.203696e-01	3.287459e-01	3.371583e-01	3.456940e-01	3.541753e-01	3.626536e-01	3.710144e-01	3.792537e-01	3.869555e-01	3.934283e-01	3.979499e-01	4.009240e-01	4.047440e-01	4.127888e-01	4.263959e-01	4.420004e-01	4.544022e-01	4.625148e-01	4.694961e-01	4.787014e-01	4.920230e-01	5.098554e-01	5.324442e-01	5.601662e-01	5.941440e-01	6.356870e-01	6.845344e-01	7.353616e-01	7.746769e-01	7.832208e-01	7.462113e-01	6.667160e-01	5.699092e-01	4.903950e-01	4.500311e-01	4.442386e-01	4.498335e-01	4.459317e-01	4.274842e-01	4.016345e-01	3.754529e-01	3.505110e-01	3.248501e-01	2.970597e-01	2.670391e-01	2.349333e-01	2.004914e-01	1.633515e-01	1.231034e-01	7.936869e-02	3.168181e-02	-2.028894e-02	-7.694514e-02	-1.380848e-01	-2.036274e-01	-2.710696e-01	-3.380074e-01	-3.966455e-01	-4.416952e-01	-4.626350e-01	-4.484185e-01	-4.217641e-01	-3.901116e-01	-3.080967e-01	-1.716039e-01	-6.764848e-02	1.106944e-01	5.171792e-01	8.544671e-01	8.153810e-01	5.515630e-01	3.261815e-01	1.995541e-01	1.229055e-01	6.502114e-02	1.881885e-02	-1.780947e-02	-4.613697e-02	-6.672621e-02	-7.961732e-02	-8.552593e-02	-8.521345e-02	-7.840597e-02	-6.569071e-02	-5.177689e-02	-4.322972e-02	-4.194264e-02	-4.427055e-02	-4.674817e-02	-4.824675e-02	-4.885685e-02	-4.882862e-02	-4.803487e-02	-4.643458e-02	-4.396914e-02	-4.065709e-02	-3.650402e-02	-3.148914e-02	-2.562393e-02	-1.886214e-02	-1.123393e-02	-2.900625e-03	6.125276e-03	1.652051e-02	2.922013e-02	4.318129e-02	5.456793e-02	6.167243e-02	7.436786e-02	1.143092e-01	1.955007e-01	3.001865e-01	3.797951e-01	3.883975e-01	3.195608e-01	2.118773e-01	1.141439e-01	4.909074e-02	1.274166e-02	-5.740352e-03	-1.218558e-02	-1.141669e-02	-1.159227e-02	-1.835382e-02	-3.200844e-02	-4.896779e-02	-6.706551e-02	-8.495411e-02	-1.031911e-01	-1.211611e-01	-1.390378e-01	-1.561873e-01	-1.729820e-01	-1.889488e-01	-2.044419e-01	-2.189699e-01	-2.329707e-01	-2.461680e-01	-2.588466e-01	-2.712941e-01	-2.838127e-01	-2.967680e-01	-3.105480e-01	-3.249992e-01	-3.399643e-01	-3.544845e-01	-3.679823e-01	-3.796937e-01	-3.896917e-01	-3.985782e-01	-4.080458e-01	-4.204871e-01	-4.388241e-01	-4.648167e-01	-4.991389e-01	-5.407580e-01	-5.890695e-01	-6.577699e-01	-7.095638e-01	-7.510181e-01	-1.530267e+00	-2.705381e-01	
SCALARS Conservative_2 float 1
LOOKUP_TABLE default
-2.367589e+00	-8.088942e-01	-5.932900e-01	-4.616798e-01	-3.302349e-01	-2.522925e-01	-2.031434e-01	-1.812234e-01	-1.855507e-01	-2.134497e-01	-2.591011e-01	-3.130801e-01	-3.628554e-01	-3.964257e-01	-4.074035e-01	-3.987091e-01	-3.798552e-01	-3.604017e-01	-3.463861e-01	-3.390192e-01	-3.377765e-01	-3.408292e-01	-3.463569e-01	-3.530232e-01	-3.598018e-01	-3.663761e-01	-3.726227e-01	-3.786102e-01	-3.846227e-01	-3.907404e-01	-3.971349e-01	-4.038425e-01	-4.107529e-01	-4.179665e-01	-4.252923e-01	-4.328246e-01	-4.404373e-01	-4.483173e-01	-4.563148e-01	-4.645298e-01	-4.727997e-01	-4.812110e-01	-4.895662e-01	-4.979194e-01	-5.061546e-01	-5.142730e-01	-5.218730e-01	-5.282429e-01	-5.325705e-01	-5.352170e-01	-5.387224e-01	-5.466463e-01	-5.600452e-01	-5.750134e-01	-5.866114e-01	-5.940108e-01	-6.003685e-01	-6.089364e-01	-6.214579e-01	-6.383002e-01	-6.596871e-01	-6.860115e-01	-7.183696e-01	-7.580319e-01	-8.047221e-01	-8.532447e-01	-8.904972e-01	-8.977496e-01	-8.605248e-01	-7.817035e-01	-6.856922e-01	-6.062699e-01	-5.648844e-01	-5.572016e-01	-5.605444e-01	-5.542059e-01	-5.329883e-01	-5.037917e-01	-4.735612e-01	-4.438107e-01	-4.124672e-01	-3.779330e-01	-3.398884e-01	-2.982016e-01	-2.523312e-01	-2.014716e-01	-1.447072e-01	-8.099251e-02	-9.050195e-03	7.246617e-02	1.652124e-01	2.700864e-01	3.887919e-01	5.185439e-01	6.567417e-01	7.919647e-01	9.114723e-01	9.878633e-01	1.010874e+00	9.954140e-01	9.479943e-01	8.438189e-01	6.431491e-01	4.553016e-01	2.141614e-01	-1.788608e-01	-5.005658e-01	-5.119490e-01	-3.209811e-01	-1.431056e-01	-4.043781e-02	2.186011e-02	6.913872e-02	1.073209e-01	1.379268e-01	1.618070e-01	1.792761e-01	1.902169e-01	1.951908e-01	1.948405e-01	1.888595e-01	1.774561e-01	1.642584e-01	1.548923e-01	1.535128e-01	1.563028e-01	1.592241e-01	1.609825e-01	1.617940e-01	1.619327e-01	1.612427e-01	1.596688e-01	1.571604e-01	1.537421e-01	1.494303e-01	1.441972e-01	1.380741e-01	1.310172e-01	1.230707e-01	1.144138e-01	1.050822e-01	9.437404e-02	8.130991e-02	6.701369e-02	5.552033e-02	4.855264e-02	3.589267e-02	-4.479553e-03	-8.633379e-02	-1.911658e-01	-2.701245e-01	-2.779868e-01	-2.094623e-01	-1.032170e-01	-7.151198e-03	5.695110e-02	9.321278e-02	1.122491e-01	1.198881e-01	1.206584e-01	1.227416e-01	1.322150e-01	1.491964e-01	1.696877e-01	1.914974e-01	2.134177e-01	2.361007e-01	2.588400e-01	2.817600e-01	3.041782e-01	3.265006e-01	3.481947e-01	3.696391e-01	3.903178e-01	4.106063e-01	4.303442e-01	4.498377e-01	4.694833e-01	4.897108e-01	5.110191e-01	5.339523e-01	5.583592e-01	5.840502e-01	6.098411e-01	6.350021e-01	6.587430e-01	6.814075e-01	7.041843e-01	7.297749e-01	7.617640e-01	8.044338e-01	8.606226e-01	9.315124e-01	1.017905e+00	1.121380e+00	1.268090e+00	1.408260e+00	1.586407e+00	3.071199e+00	2.774455e-01	
SCALARS Conservative_3 float 1
LOOKUP_TABLE default
-3.499165e-01	-1.495779e-01	-2.219836e-01	-2.065028e-01	-2.059324e-01	-2.159636e-01	-2.329943e-01	-2.557206e-01	-2.799080e-01	-3.003915e-01	-3.117498e-01	-3.098607e-01	-2.935309e-01	-2.663859e-01	-2.355821e-01	-2.084054e-01	-1.889904e-01	-1.773529e-01	-1.717130e-01	-1.693653e-01	-1.683278e-01	-1.672355e-01	-1.654245e-01	-1.628812e-01	-1.596844e-01	-1.561439e-01	-1.524695e-01	-1.487433e-01	-1.450959e-01	-1.414805e-01	-1.379042e-01	-1.343710e-01	-1.307640e-01	-1.271471e-01	-1.234099e-01	-1.196259e-01	-1.157016e-01	-1.117191e-01	-1.075927e-01	-1.033990e-01	-9.905205e-02	-9.461646e-02	-9.001217e-02	-8.529296e-02	-8.041650e-02	-7.540934e-02	-7.018374e-02	-6.466451e-02	-5.881404e-02	-5.275887e-02	-4.675821e-02	-4.127350e-02	-3.617520e-02	-2.951951e-02	-2.180552e-02	-1.431510e-02	-7.234979e-03	1.116827e-04	8.064242e-03	1.666079e-02	2.576112e-02	3.545084e-02	4.592155e-02	5.749087e-02	7.070422e-02	8.580912e-02	1.023503e-01	1.184059e-01	1.314131e-01	1.399740e-01	1.456376e-01	1.526068e-01	1.646624e-01	1.822247e-01	2.021027e-01	2.207289e-01	2.372513e-01	2.532753e-01	2.704374e-01	2.889968e-01	3.083929e-01	3.282118e-01	3.485376e-01	3.694391e-01	3.907972e-01	4.124145e-01	4.339098e-01	4.547594e-01	4.740465e-01	4.904171e-01	5.018015e-01	5.047819e-01	4.948088e-01	4.653989e-01	4.089103e-01	3.150837e-01	1.741520e-01	2.538529e-02	-8.911427e-02	-1.562427e-01	-2.277994e-01	-3.734699e-01	-5.111936e-01	-5.080975e-01	-5.286668e-01	-6.501505e-01	-6.623065e-01	-5.070809e-01	-3.334246e-01	-2.278744e-01	-1.713391e-01	-1.338863e-01	-1.051786e-01	-8.325977e-02	-6.657149e-02	-5.369938e-02	-4.387402e-02	-3.634599e-02	-3.048553e-02	-2.638138e-02	-2.454218e-02	-2.405612e-02	-2.219945e-02	-2.044894e-02	-1.991419e-02	-1.930647e-02	-1.904636e-02	-1.911910e-02	-1.945181e-02	-1.998396e-02	-2.063538e-02	-2.138947e-02	-2.218265e-02	-2.297786e-02	-2.373314e-02	-2.438823e-02	-2.492218e-02	-2.528503e-02	-2.543833e-02	-2.529343e-02	-2.476383e-02	-2.390665e-02	-2.292564e-02	-2.176980e-02	-1.964502e-02	-1.567182e-02	-1.037589e-02	-6.154102e-03	-4.907075e-03	-5.209788e-03	-2.641307e-03	5.872640e-03	1.865782e-02	3.097082e-02	4.007205e-02	4.680272e-02	5.313709e-02	5.954269e-02	6.645858e-02	7.443578e-02	8.253161e-02	8.982985e-02	9.612374e-02	1.016893e-01	1.062381e-01	1.100933e-01	1.128843e-01	1.149823e-01	1.160638e-01	1.164969e-01	1.159646e-01	1.148569e-01	1.129213e-01	1.105861e-01	1.076503e-01	1.045109e-01	1.012101e-01	9.785627e-02	9.455499e-02	9.118068e-02	8.739700e-02	8.285885e-02	7.697475e-02	6.963793e-02	6.082231e-02	5.128961e-02	4.194738e-02	3.407837e-02	2.852183e-02	2.551485e-02	2.426780e-02	2.285306e-02	1.916505e-02	1.150084e-02	2.011916e-03	-1.041003e-02	-2.897956e-02	5.602853e-02	-6.405539e-02	-3.583977e+00	
SCALARS Conservative_4 float 1
LOOKUP_TABLE default
6.120616e-01	1.185434e-01	8.239954e-02	6.312951e-02	3.840355e-02	2.606892e-02	1.893393e-02	1.650886e-02	1.877025e-02	2.524936e-02	3.498530e-02	4.626546e-02	5.663579e-02	6.352386e-02	6.556493e-02	6.344158e-02	5.930353e-02	5.528933e-02	5.256975e-02	5.141671e-02	5.157847e-02	5.267714e-02	5.428588e-02	5.609766e-02	5.791960e-02	5.966074e-02	6.132258e-02	6.292720e-02	6.451948e-02	6.614170e-02	6.781397e-02	6.954688e-02	7.134221e-02	7.318962e-02	7.508117e-02	7.699801e-02	7.895377e-02	8.094618e-02	8.298733e-02	8.505784e-02	8.716314e-02	8.928134e-02	9.140713e-02	9.351439e-02	9.560894e-02	9.765930e-02	9.959082e-02	1.012051e-01	1.023209e-01	1.030315e-01	1.039591e-01	1.059673e-01	1.094752e-01	1.135743e-01	1.167224e-01	1.187011e-01	1.204303e-01	1.228205e-01	1.262654e-01	1.308519e-01	1.366105e-01	1.436833e-01	1.523357e-01	1.628842e-01	1.751785e-01	1.877867e-01	1.972702e-01	1.988913e-01	1.891538e-01	1.690837e-01	1.450257e-01	1.254855e-01	1.156440e-01	1.141963e-01	1.154030e-01	1.141892e-01	1.094409e-01	1.029076e-01	9.633067e-02	9.004405e-02	8.357690e-02	7.656555e-02	6.901044e-02	6.094249e-02	5.231639e-02	4.303091e-02	3.300027e-02	2.215205e-02	1.038231e-02	-2.403159e-03	-1.616803e-02	-3.101731e-02	-4.661631e-02	-6.259883e-02	-7.795947e-02	-9.146120e-02	-1.002533e-01	-1.017319e-01	-9.981416e-02	-9.611115e-02	-9.021147e-02	-6.627843e-02	-3.102296e-02	-9.863760e-03	3.700179e-02	1.358991e-01	2.133119e-01	2.043912e-01	1.417274e-01	8.491579e-02	5.142752e-02	3.107666e-02	1.601030e-02	4.065561e-03	-5.349929e-03	-1.264175e-02	-1.795007e-02	-2.130982e-02	-2.294561e-02	-2.307738e-02	-2.154004e-02	-1.822997e-02	-1.447174e-02	-1.228885e-02	-1.206560e-02	-1.262512e-02	-1.324979e-02	-1.361332e-02	-1.377793e-02	-1.377599e-02	-1.359048e-02	-1.319391e-02	-1.258481e-02	-1.176281e-02	-1.072809e-02	-9.479760e-03	-8.017517e-03	-6.330945e-03	-4.427944e-03	-2.348765e-03	-1.064118e-04	2.468316e-03	5.607323e-03	9.091036e-03	1.197146e-02	1.379323e-02	1.693202e-02	2.664988e-02	4.648783e-02	7.226974e-02	9.227839e-02	9.498696e-02	7.850966e-02	5.199907e-02	2.743311e-02	1.071787e-02	1.146728e-03	-3.792050e-03	-5.447469e-03	-5.226437e-03	-5.315835e-03	-7.214457e-03	-1.067007e-02	-1.497871e-02	-1.949884e-02	-2.408214e-02	-2.869612e-02	-3.332192e-02	-3.785538e-02	-4.228792e-02	-4.657238e-02	-5.072435e-02	-5.469654e-02	-5.851505e-02	-6.213346e-02	-6.560938e-02	-6.896125e-02	-7.226557e-02	-7.559200e-02	-7.906364e-02	-8.272364e-02	-8.661220e-02	-9.061400e-02	-9.459901e-02	-9.837141e-02	-1.018448e-01	-1.050244e-01	-1.081364e-01	-1.116107e-01	-1.161001e-01	-1.223397e-01	-1.308476e-01	-1.419316e-01	-1.555097e-01	-1.722919e-01	-1.999487e-01	-2.220209e-01	-2.534275e-01	-7.467635e-01	-7.834155e-02	
SCALARS Surface_Sensitivity float 1
LOOKUP_TABLE default
-5.496809e+03	1.853728e+03	9.055508e+01	5.505228e+01	4.042485e+01	1.949358e+01	1.281101e+01	8.957758e+00	6.556162e+00	5.045036e+00	4.057411e+00	3.215746e+00	2.308714e+00	1.678751e+00	1.533468e+00	1.569760e+00	1.451222e+00	1.197434e+00	9.320327e-01	7.444837e-01	6.037795e-01	5.050557e-01	4.412627e-01	3.912450e-01	3.589631e-01	3.331874e-01	3.107677e-01	2.897965e-01	2.606208e-01	2.305485e-01	2.034892e-01	1.874964e-01	1.858381e-01	1.798724e-01	1.705424e-01	1.541716e-01	1.386413e-01	1.242671e-01	1.254706e-01	1.269671e-01	1.108981e-01	6.033229e-02	2.216834e-02	5.719595e-02	1.319118e-01	-1.599487e-02	-7.023056e-01	-1.847598e+00	-2.391468e+00	-4.610999e-01	4.922877e+00	1.053840e+01	9.518757e+00	3.121227e+00	-1.151624e+00	-2.109906e+00	-1.847198e+00	-1.838652e+00	-2.326443e+00	-3.053989e+00	-3.855671e+00	-4.732495e+00	-5.763482e+00	-6.892073e+00	-7.700281e+00	-7.333946e+00	-4.799518e+00	1.441184e-01	6.124581e+00	1.037687e+01	1.046780e+01	6.322261e+00	6.504894e-01	-3.070000e+00	-3.356109e+00	-1.526905e+00	1.058220e-01	4.754780e-01	7.007715e-02	-2.902271e-01	-3.350947e-01	-2.657995e-01	-2.539260e-01	-2.713644e-01	-2.842255e-01	-2.812489e-01	-2.457669e-01	-1.803849e-01	-5.798576e-02	1.934955e-01	5.996255e-01	1.219885e+00	2.199536e+00	3.205592e+00	3.660386e+00	4.287892e+00	4.464787e+00	1.226093e+01	8.775328e+00	-3.029868e+00	3.687296e+01	4.166225e+01	1.248557e+01	2.153957e+00	9.103524e+01	1.431047e+02	4.046740e+01	-7.794997e+01	-9.929413e+01	-6.418764e+01	-3.385460e+01	-1.968871e+01	-1.304328e+01	-8.929504e+00	-6.016979e+00	-3.785880e+00	-1.829697e+00	1.319456e-01	1.574323e+00	1.731159e+00	3.483056e+00	1.476563e+01	3.296722e+01	2.177021e+01	2.005402e+00	-3.230496e+00	-1.893965e+00	-4.193810e-01	-1.969323e-01	-2.779840e-01	-2.142079e-01	-7.588576e-02	1.889117e-02	7.491530e-02	1.100681e-01	1.398498e-01	1.647343e-01	1.838864e-01	1.862575e-01	1.685640e-01	1.907234e-01	3.135594e-01	4.479525e-01	2.955265e-01	-2.172504e-01	-3.145683e-01	1.368679e+00	5.095782e+00	8.643572e+00	8.465802e+00	3.033056e+00	-5.263515e+00	-1.171342e+01	-1.331395e+01	-1.104741e+01	-7.774213e+00	-4.757929e+00	-9.047387e-01	4.893684e+00	9.313987e+00	6.913341e+00	1.608903e+00	-9.171860e-01	-7.968911e-01	-5.805709e-02	1.482065e-01	-5.466313e-03	-1.159291e-01	-1.034738e-01	-1.051202e-01	-1.237536e-01	-1.629366e-01	-1.887935e-01	-2.243909e-01	-2.516505e-01	-2.891941e-01	-3.364382e-01	-3.935480e-01	-4.708256e-01	-5.694559e-01	-6.761051e-01	-7.937247e-01	-8.894993e-01	-9.800118e-01	-1.059756e+00	-1.177000e+00	-1.383565e+00	-1.788217e+00	-2.532074e+00	-3.892661e+00	-6.082297e+00	-9.488523e+00	-1.432601e+01	-2.169302e+01	-4.324431e+01	-5.857279e+01	-8.096442e+01	-1.825002e+03	4.790672e+03	2.622187e+02	