# vtk DataFile Version 3.0
vtk output
ASCII
DATASET UNSTRUCTURED_GRID
POINTS 5233 float
9.997500e-01	-3.633248e-05	0.0	9.990000e-01	-1.454755e-04	0.0	9.977600e-01	-3.275418e-04	0.0	9.960200e-01	-5.901118e-04	0.0	9.937800e-01	-9.477569e-04	0.0	9.910500e-01	-1.423905e-03	0.0	9.878400e-01	-2.049562e-03	0.0	9.841300e-01	-2.861425e-03	0.0	9.799500e-01	-3.871861e-03	0.0	9.752800e-01	-5.077651e-03	0.0	9.701500e-01	-6.430996e-03	0.0	9.645400e-01	-7.872121e-03	0.0	9.584700e-01	-9.324307e-03	0.0	9.519400e-01	-1.073120e-02	0.0	9.449600e-01	-1.206449e-02	0.0	9.375400e-01	-1.332890e-02	0.0	9.296900e-01	-1.455255e-02	0.0	9.214000e-01	-1.577471e-02	0.0	9.127000e-01	-1.702361e-02	0.0	9.035800e-01	-1.832096e-02	0.0	8.940600e-01	-1.967088e-02	0.0	8.841500e-01	-2.106893e-02	0.0	8.738500e-01	-2.250696e-02	0.0	8.631800e-01	-2.397291e-02	0.0	8.521600e-01	-2.545617e-02	0.0	8.407700e-01	-2.695368e-02	0.0	8.290500e-01	-2.845646e-02	0.0	8.170100e-01	-2.996098e-02	0.0	8.046400e-01	-3.146685e-02	0.0	7.919700e-01	-3.296891e-02	0.0	7.790100e-01	-3.446446e-02	0.0	7.657800e-01	-3.594945e-02	0.0	7.522800e-01	-3.742190e-02	0.0	7.385200e-01	-3.887854e-02	0.0	7.245300e-01	-4.031399e-02	0.0	7.103200e-01	-4.172505e-02	0.0	6.958900e-01	-4.310954e-02	0.0	6.812700e-01	-4.446248e-02	0.0	6.664700e-01	-4.578100e-02	0.0	6.515000e-01	-4.706234e-02	0.0	6.363800e-01	-4.830303e-02	0.0	6.211300e-01	-4.949987e-02	0.0	6.057600e-01	-5.065061e-02	0.0	5.902800e-01	-5.175311e-02	0.0	5.747100e-01	-5.280465e-02	0.0	5.590600e-01	-5.380333e-02	0.0	5.433600e-01	-5.474615e-02	0.0	5.276100e-01	-5.563208e-02	0.0	5.118400e-01	-5.645844e-02	0.0	4.960500e-01	-5.722424e-02	0.0	4.802700e-01	-5.792707e-02	0.0	4.645100e-01	-5.856555e-02	0.0	4.487800e-01	-5.913825e-02	0.0	4.331100e-01	-5.964309e-02	0.0	4.175000e-01	-6.007904e-02	0.0	4.019700e-01	-6.044436e-02	0.0	3.865400e-01	-6.073743e-02	0.0	3.712300e-01	-6.095672e-02	0.0	3.560400e-01	-6.110094e-02	0.0	3.409900e-01	-6.116851e-02	0.0	3.261100e-01	-6.115799e-02	0.0	3.114000e-01	-6.106805e-02	0.0	2.968700e-01	-6.089725e-02	0.0	2.825500e-01	-6.064450e-02	0.0	2.684500e-01	-6.030866e-02	0.0	2.545700e-01	-5.988827e-02	0.0	2.409400e-01	-5.938280e-02	0.0	2.275700e-01	-5.879139e-02	0.0	2.144700e-01	-5.811323e-02	0.0	2.016600e-01	-5.734825e-02	0.0	1.891400e-01	-5.649532e-02	0.0	1.769300e-01	-5.555475e-02	0.0	1.650400e-01	-5.452641e-02	0.0	1.534900e-01	-5.341135e-02	0.0	1.422900e-01	-5.221008e-02	0.0	1.314400e-01	-5.092206e-02	0.0	1.209500e-01	-4.954787e-02	0.0	1.108500e-01	-4.809126e-02	0.0	1.011300e-01	-4.655073e-02	0.0	9.181000e-02	-4.492928e-02	0.0	8.290000e-02	-4.322884e-02	0.0	7.440000e-02	-4.144946e-02	0.0	6.633000e-02	-3.959551e-02	0.0	5.869000e-02	-3.766733e-02	0.0	5.149000e-02	-3.566763e-02	0.0	4.474000e-02	-3.359956e-02	0.0	3.844000e-02	-3.146332e-02	0.0	3.260000e-02	-2.926230e-02	0.0	2.723000e-02	-2.700064e-02	0.0	2.232000e-02	-2.467358e-02	0.0	1.790000e-02	-2.229551e-02	0.0	1.395000e-02	-1.985568e-02	0.0	1.049000e-02	-1.736543e-02	0.0	7.520000e-03	-1.482553e-02	0.0	5.040000e-03	-1.223580e-02	0.0	3.050000e-03	-9.594112e-03	0.0	1.560000e-03	-6.914510e-03	0.0	5.600000e-04	-4.174111e-03	0.0	6.000000e-05	-1.376204e-03	0.0	0.000000e+00	0.000000e+00	0.0	6.000000e-05	1.269362e-03	0.0	5.600000e-04	3.626724e-03	0.0	1.560000e-03	5.752206e-03	0.0	3.050000e-03	7.692961e-03	0.0	5.040000e-03	9.491510e-03	0.0	7.520000e-03	1.115567e-02	0.0	1.049000e-02	1.270092e-02	0.0	1.395000e-02	1.413900e-02	0.0	1.790000e-02	1.547958e-02	0.0	2.232000e-02	1.672597e-02	0.0	2.723000e-02	1.789258e-02	0.0	3.260000e-02	1.898043e-02	0.0	3.844000e-02	1.999983e-02	0.0	4.474000e-02	2.095641e-02	0.0	5.149000e-02	2.185600e-02	0.0	5.869000e-02	2.270558e-02	0.0	6.633000e-02	2.351063e-02	0.0	7.440000e-02	2.427659e-02	0.0	8.290000e-02	2.500968e-02	0.0	9.181000e-02	2.571416e-02	0.0	1.011300e-01	2.639580e-02	0.0	1.108500e-01	2.705931e-02	0.0	1.209500e-01	2.770853e-02	0.0	1.314400e-01	2.834894e-02	0.0	1.422900e-01	2.898319e-02	0.0	1.534900e-01	2.961488e-02	0.0	1.650400e-01	3.024773e-02	0.0	1.769300e-01	3.088443e-02	0.0	1.891400e-01	3.152671e-02	0.0	2.016600e-01	3.217631e-02	0.0	2.144700e-01	3.283394e-02	0.0	2.275700e-01	3.350076e-02	0.0	2.409400e-01	3.417629e-02	0.0	2.545700e-01	3.485996e-02	0.0	2.684500e-01	3.555052e-02	0.0	2.825500e-01	3.624509e-02	0.0	2.968700e-01	3.694160e-02	0.0	3.114000e-01	3.763681e-02	0.0	3.261100e-01	3.832586e-02	0.0	3.409900e-01	3.900422e-02	0.0	3.560400e-01	3.966718e-02	0.0	3.712300e-01	4.030808e-02	0.0	3.865400e-01	4.092025e-02	0.0	4.019700e-01	4.149734e-02	0.0	4.175000e-01	4.203181e-02	0.0	4.331100e-01	4.251581e-02	0.0	4.487800e-01	4.294141e-02	0.0	4.645100e-01	4.330104e-02	0.0	4.802700e-01	4.358644e-02	0.0	4.960500e-01	4.378996e-02	0.0	5.118400e-01	4.390413e-02	0.0	5.276100e-01	4.392183e-02	0.0	5.433600e-01	4.383661e-02	0.0	5.590600e-01	4.364284e-02	0.0	5.747100e-01	4.333544e-02	0.0	5.902800e-01	4.291086e-02	0.0	6.057600e-01	4.236636e-02	0.0	6.211300e-01	4.170078e-02	0.0	6.363800e-01	4.091396e-02	0.0	6.515000e-01	4.000706e-02	0.0	6.664700e-01	3.898328e-02	0.0	6.812700e-01	3.784760e-02	0.0	6.958900e-01	3.660580e-02	0.0	7.103200e-01	3.526505e-02	0.0	7.245300e-01	3.383591e-02	0.0	7.385200e-01	3.232739e-02	0.0	7.522800e-01	3.075048e-02	0.0	7.657800e-01	2.911959e-02	0.0	7.790100e-01	2.744775e-02	0.0	7.919700e-01	2.574721e-02	0.0	8.046400e-01	2.403312e-02	0.0	8.170100e-01	2.231942e-02	0.0	8.290500e-01	2.062258e-02	0.0	8.407700e-01	1.895262e-02	0.0	8.521600e-01	1.732083e-02	0.0	8.631800e-01	1.574049e-02	0.0	8.738500e-01	1.421331e-02	0.0	8.841500e-01	1.274347e-02	0.0	8.940600e-01	1.133254e-02	0.0	9.035800e-01	9.978608e-03	0.0	9.127000e-01	8.683959e-03	0.0	9.214000e-01	7.459073e-03	0.0	9.296900e-01	6.319950e-03	0.0	9.375400e-01	5.297288e-03	0.0	9.449600e-01	4.419862e-03	0.0	9.519400e-01	3.712188e-03	0.0	9.584700e-01	3.179638e-03	0.0	9.645400e-01	2.800817e-03	0.0	9.701500e-01	2.529227e-03	0.0	9.752800e-01	2.307249e-03	0.0	9.799500e-01	2.081057e-03	0.0	9.841300e-01	1.819777e-03	0.0	9.878400e-01	1.516091e-03	0.0	9.910500e-01	1.188490e-03	0.0	9.937800e-01	8.623934e-04	0.0	9.960200e-01	5.664507e-04	0.0	9.977600e-01	3.231555e-04	0.0	9.990000e-01	1.450753e-04	0.0	9.997500e-01	3.632614e-05	0.0	1.000000e+00	0.000000e+00	0.0	1.984229e+01	2.506660e+00	0.0	1.937166e+01	4.973800e+00	0.0	1.859553e+01	7.362490e+00	0.0	1.752613e+01	9.635070e+00	0.0	1.618034e+01	1.175571e+01	0.0	1.457937e+01	1.369094e+01	0.0	1.274848e+01	1.541027e+01	0.0	1.071654e+01	1.688656e+01	0.0	8.515590e+00	1.809654e+01	0.0	6.180340e+00	1.902113e+01	0.0	3.747630e+00	1.964575e+01	0.0	1.255810e+00	1.996053e+01	0.0	-1.255810e+00	1.996053e+01	0.0	-3.747630e+00	1.964574e+01	0.0	-6.180340e+00	1.902113e+01	0.0	-8.515590e+00	1.809654e+01	0.0	-1.071654e+01	1.688656e+01	0.0	-1.274848e+01	1.541026e+01	0.0	-1.457937e+01	1.369094e+01	0.0	-1.618034e+01	1.175570e+01	0.0	-1.752613e+01	9.635070e+00	0.0	-1.859553e+01	7.362490e+00	0.0	-1.937166e+01	4.973800e+00	0.0	-1.984229e+01	2.506660e+00	0.0	-2.000000e+01	0.000000e+00	0.0	-1.984229e+01	-2.506670e+00	0.0	-1.937166e+01	-4.973800e+00	0.0	-1.859553e+01	-7.362490e+00	0.0	-1.752613e+01	-9.635080e+00	0.0	-1.618034e+01	-1.175571e+01	0.0	-1.457937e+01	-1.369094e+01	0.0	-1.274848e+01	-1.541027e+01	0.0	-1.071653e+01	-1.688656e+01	0.0	-8.515580e+00	-1.809654e+01	0.0	-6.180340e+00	-1.902113e+01	0.0	-3.747620e+00	-1.964575e+01	0.0	-1.255810e+00	-1.996053e+01	0.0	1.255810e+00	-1.996053e+01	0.0	3.747630e+00	-1.964574e+01	0.0	6.180340e+00	-1.902113e+01	0.0	8.515590e+00	-1.809654e+01	0.0	1.071654e+01	-1.688656e+01	0.0	1.274848e+01	-1.541026e+01	0.0	1.457937e+01	-1.369094e+01	0.0	1.618034e+01	-1.175570e+01	0.0	1.752614e+01	-9.635070e+00	0.0	1.859553e+01	-7.362490e+00	0.0	1.937166e+01	-4.973790e+00	0.0	1.984229e+01	-2.506660e+00	0.0	2.000000e+01	0.000000e+00	0.0	6.069297e-02	-4.554501e-02	0.0	6.602156e-01	-6.009967e-02	0.0	4.252892e-01	5.651016e-02	0.0	6.896800e-01	5.032735e-02	0.0	3.791348e-01	-7.488365e-02	0.0	9.994676e-01	-7.277032e-04	0.0	9.985546e-01	-1.331694e-03	0.0	7.738179e-01	-4.729049e-02	0.0	6.898810e-01	-5.714570e-02	0.0	-1.063701e-03	5.464997e-03	0.0	7.467893e-01	-5.071399e-02	0.0	5.830994e-01	5.709531e-02	0.0	9.928166e-01	-3.738241e-03	0.0	9.899368e-01	-4.747872e-03	0.0	5.986932e-01	5.651669e-02	0.0	7.187794e-01	-5.400470e-02	0.0	-1.443643e-03	6.001777e-04	0.0	9.865738e-01	-5.912824e-03	0.0	9.827345e-01	-7.236425e-03	0.0	-1.271922e-03	-6.411994e-03	0.0	6.451353e-01	-6.149927e-02	0.0	8.244806e-01	-4.019584e-02	0.0	7.997433e-01	-4.378317e-02	0.0	3.483100e-01	5.319994e-02	0.0	8.478993e-01	-3.658107e-02	0.0	2.474072e-01	4.721427e-02	0.0	8.699386e-01	-3.296052e-02	0.0	1.061804e-02	1.658163e-02	0.0	8.904922e-01	-2.938891e-02	0.0	7.696474e-02	-5.005950e-02	0.0	9.094881e-01	-2.591984e-02	0.0	-1.737787e-03	-3.169545e-03	0.0	9.424828e-01	-1.918852e-02	0.0	9.268460e-01	-2.255283e-02	0.0	1.793643e-02	-2.740914e-02	0.0	4.257652e-01	-7.415471e-02	0.0	8.591004e-01	-3.476618e-02	0.0	9.563372e-01	-1.569455e-02	0.0	9.784109e-01	-8.739972e-03	0.0	9.683324e-01	-1.210464e-02	0.0	1.581996e-01	-6.454001e-02	0.0	9.001918e-01	-2.763969e-02	0.0	7.604364e-01	-4.901597e-02	0.0	9.971362e-01	-2.087828e-03	0.0	5.990873e-01	-6.535163e-02	0.0	4.414711e-01	-7.374027e-02	0.0	5.363593e-01	-6.958222e-02	0.0	4.730484e-01	-7.266606e-02	0.0	5.047137e-01	-7.127582e-02	0.0	4.888693e-01	-7.200890e-02	0.0	1.248836e-01	-5.980674e-02	0.0	2.782033e-02	-3.294539e-02	0.0	3.945849e-01	-7.472875e-02	0.0	4.617860e-02	-4.072778e-02	0.0	4.101297e-01	-7.448590e-02	0.0	3.187058e-01	-7.460308e-02	0.0	3.486145e-01	-7.493017e-02	0.0	3.347811e-02	-3.559759e-02	0.0	2.894903e-01	-7.390334e-02	0.0	9.348843e-01	-2.087857e-02	0.0	1.467396e-01	-6.305515e-02	0.0	1.945881e-01	-6.839503e-02	0.0	8.573599e-02	-5.219031e-02	0.0	1.045230e-01	-5.619006e-02	0.0	5.678620e-01	-6.760910e-02	0.0	1.700042e-01	-6.592775e-02	0.0	6.145628e-01	-6.412493e-02	0.0	8.804096e-01	-3.116601e-02	0.0	2.265043e-02	-3.021420e-02	0.0	9.952222e-01	-2.871187e-03	0.0	6.744213e-03	-1.870474e-02	0.0	1.868576e-02	2.021113e-02	0.0	9.183754e-01	-2.422720e-02	0.0	9.49641
[...]
POINT_DATA 5233

SCALARS Conservative_1 float 1
LOOKUP_TABLE default
1.198128e+00	1.179352e+00	1.169220e+00	1.162999e+00	1.158631e+00	1.154301e+00	1.147464e+00	1.136482e+00	1.120107e+00	1.098430e+00	1.072706e+00	1.045591e+00	1.021602e+00	1.004909e+00	9.966925e-01	9.950200e-01	9.966143e-01	9.985391e-01	9.989874e-01	9.973481e-01	9.938567e-01	9.890928e-01	9.836642e-01	9.780597e-01	9.725705e-01	9.673141e-01	9.622852e-01	9.574358e-01	9.526971e-01	9.480295e-01	9.434082e-01	9.387845e-01	9.341198e-01	9.294200e-01	9.247221e-01	9.200612e-01	9.154524e-01	9.108938e-01	9.063825e-01	9.018977e-01	8.974079e-01	8.929350e-01	8.885498e-01	8.843164e-01	8.801471e-01	8.758197e-01	8.713433e-01	8.676005e-01	8.662058e-01	8.682537e-01	8.720302e-01	8.714398e-01	8.585161e-01	8.313154e-01	8.027200e-01	7.870071e-01	7.837058e-01	7.856377e-01	7.880108e-01	7.896549e-01	7.910690e-01	7.928358e-01	7.951150e-01	7.978481e-01	8.009643e-01	8.044337e-01	8.082886e-01	8.124926e-01	8.169689e-01	8.216230e-01	8.264786e-01	8.317085e-01	8.375594e-01	8.441111e-01	8.512850e-01	8.589270e-01	8.670836e-01	8.759274e-01	8.855197e-01	8.959011e-01	9.071840e-01	9.194249e-01	9.327692e-01	9.473319e-01	9.632926e-01	9.809121e-01	1.000405e+00	1.022121e+00	1.046519e+00	1.073879e+00	1.104694e+00	1.139402e+00	1.177815e+00	1.219457e+00	1.262636e+00	1.304203e+00	1.335546e+00	1.350955e+00	1.335140e+00	1.298463e+00	1.270590e+00	1.198642e+00	1.056854e+00	9.397434e-01	8.477631e-01	7.804067e-01	7.345755e-01	7.046190e-01	6.851161e-01	6.727436e-01	6.652647e-01	6.611001e-01	6.597377e-01	6.603529e-01	6.622723e-01	6.652759e-01	6.691378e-01	6.740123e-01	6.808880e-01	6.896079e-01	6.957455e-01	6.953489e-01	7.053569e-01	7.789350e-01	8.959725e-01	9.450561e-01	9.405131e-01	9.256782e-01	9.194007e-01	9.183485e-01	9.173506e-01	9.152449e-01	9.128193e-01	9.104693e-01	9.081355e-01	9.055492e-01	9.026034e-01	8.992285e-01	8.954153e-01	8.911574e-01	8.864293e-01	8.812701e-01	8.756907e-01	8.697524e-01	8.634360e-01	8.567529e-01	8.496686e-01	8.422193e-01	8.343594e-01	8.262157e-01	8.178302e-01	8.093158e-01	8.004845e-01	7.909198e-01	7.810267e-01	7.738667e-01	7.768981e-01	7.988444e-01	8.355550e-01	8.657908e-01	8.795903e-01	8.853237e-01	8.920253e-01	9.023275e-01	9.144379e-01	9.263672e-01	9.378971e-01	9.494408e-01	9.609889e-01	9.723887e-01	9.834597e-01	9.941146e-01	1.004289e+00	1.013898e+00	1.022910e+00	1.031309e+00	1.039166e+00	1.046672e+00	1.054100e+00	1.061844e+00	1.070213e+00	1.079322e+00	1.088820e+00	1.097906e+00	1.105392e+00	1.110002e+00	1.110697e+00	1.107130e+00	1.100039e+00	1.091511e+00	1.084520e+00	1.081938e+00	1.085551e+00	1.095267e+00	1.109212e+00	1.125710e+00	1.143467e+00	1.162957e+00	1.185384e+00	1.176457e+00	9.999187e-01	9.999802e-01	9.999843e-01	9.999720e-01	9.999633e-01	9.999526e-01	9.999331e-01	9.999023e-01	9.998656e-01	9.998340e-01	9.998144e-01	9.998250e-01	9.998659e-01	9.999409e-01	1.000003e+00	1.000050e+00	1.000073e+00	1.000084e+00	1.000087e+00	1.000087e+00	1.000085e+00	1.000083e+00	1.000081e+00	1.000081e+00	1.000081e+00	1.000082e+00	1.000085e+00	1.000090e+00	1.000097e+00	1.000106e+00	1.000116e+00	1.000129e+00	1.000138e+00	1.000147e+00	1.000145e+00	1.000129e+00	1.000098e+00	1.000067e+00	1.000046e+00	1.000041e+00	1.000047e+00	1.000051e+00	1.000052e+00	1.000049e+00	1.000041e+00	1.000029e+00	1.000021e+00	1.000023e+00	9.999536e-01	9.998713e-01	9.544379e-01	9.065964e-01	8.636281e-01	8.943952e-01	7.884572e-01	1.180616e+00	1.171489e+00	9.431250e-01	9.155094e-01	1.197526e+00	9.338930e-01	7.834678e-01	1.150167e+00	1.143517e+00	7.793774e-01	9.246164e-01	1.298661e+00	1.134547e+00	1.122085e+00	1.339260e+00	9.021637e-01	9.617752e-01	9.523205e-01	8.911187e-01	9.717272e-01	9.132312e-01	9.823029e-01	7.924260e-01	9.924174e-01	9.259016e-01	9.992722e-01	1.342907e+00	1.003203e+00	1.000902e+00	1.111258e+00	8.170571e-01	9.769624e-01	1.022280e+00	1.105638e+00	1.063164e+00	8.486947e-01	9.964573e-01	9.385311e-01	1.162261e+00	8.890709e-01	8.492031e-01	8.718107e-01	8.776718e-01	8.697880e-01	8.740825e-01	8.723392e-01	1.054454e+00	7.874832e-01	9.885937e-01	7.946271e-01	7.963368e-01	7.931418e-01	1.030188e+00	8.013087e-01	1.001093e+00	8.560283e-01	8.308339e-01	9.133693e-01	8.911464e-01	8.807371e-01	8.420729e-01	8.933230e-01	9.875627e-01	1.081395e+00	1.155957e+00	1.217644e+00	7.251938e-01	1.000657e+00	1.009668e+00	1.085585e+00	1.100529e+00	9.666709e-01	8.119244e-01	8.762132e-01	9.292364e-01	9.477044e-01	8.813531e-01	8.208842e-01	8.849570e-01	9.110379e-01	9.707243e-01	1.255958e+00	1.144122e+00	7.911687e-01	8.361931e-01	1.209494e+00	8.162429e-01	9.018154e-01	7.985672e-01	8.079999e-01	8.718091e-01	9.200344e-01	1.267711e+00	1.322420e+00	8.109104e-01	1.318503e+00	6.924982e-01	6.771727e-01	6.794638e-01	7.000086e-01	8.698254e-01	1.135624e+00	8.191541e-01	8.428078e-01	1.094963e+00	1.103457e+00	1.050322e+00	8.351727e-01	8.570592e-01	8.811970e-01	1.082014e+00	1.065527e+00	6.849491e-01	1.090289e+00	1.104242e+00	1.097017e+00	6.993410e-01	6.784573e-01	9.058922e-01	9.109491e-01	9.339964e-01	8.993458e-01	8.501248e-01	8.756855e-01	9.460900e-01	7.220043e-01	8.210705e-01	9.200882e-01	9.181154e-01	8.829063e-01	7.926905e-01	9.365659e-01	9.134191e-01	9.803181e-01	9.585890e-01	1.019034e+00	1.000648e+00	1.057781e+00	1.035378e+00	1.101988e+00	1.073666e+00	1.099981e+00	1.027444e+00	1.042937e+00	9.906916e-01	1.010099e+00	9.475480e-01	9.695989e-01	9.021729e-01	9.252920e-01	8.598104e-01	8.903549e-01	8.022009e-01	7.896103e-01	9.197090e-01	9.156886e-01	9.527461e-01	9.225247e-01	6.773608e-01	8.442406e-01	7.530834e-01	6.841730e-01	8.257662e-01	9.187518e-01	1.040906e+00	9.570010e-01	7.946286e-01	8.690581e-01	1.005090e+00	7.057067e-01	8.469851e-01	6.915247e-01	6.809665e-01	9.085631e-01	7.012224e-01	1.088085e+00	1.089963e+00	9.028208e-01	1.096573e+00	1.107086e+00	8.954550e-01	8.863657e-01	1.090064e+00	1.198701e+00	1.152661e+00	1.168644e+00	8.977155e-01	1.008331e+00	1.120467e+00	8.272189e-01	1.292371e+00	1.179871e+00	9.395422e-01	8.639385e-01	8.044638e-01	6.941674e-01	1.180136e+00	1.247528e+00	8.087872e-01	9.203589e-01	1.001812e+00	1.207201e+00	7.954906e-01	9.159141e-01	9.476627e-01	1.131819e+00	8.007170e-01	9.763685e-01	9.664159e-01	9.199534e-01	1.319466e+00	8.306186e-01	1.141963e+00	1.038987e+00	8.615694e-01	9.248466e-01	9.071507e-01	8.649688e-01	9.326304e-01	7.925660e-01	9.956218e-01	9.522093e-01	8.934082e-01	7.677937e-01	8.922683e-01	1.015348e+00	7.013036e-01	8.976736e-01	9.418639e-01	1.039212e+00	1.097914e+00	8.954170e-01	8.286879e-01	1.097582e+00	1.046543e+00	1.105208e+00	1.098779e+00	1.092381e+00	9.158192e-01	8.993750e-01	9.183238e-01	7.069714e-01	9.115301e-01	8.359893e-01	8.408818e-01	9.118871e-01	6.973740e-01	1.095935e+00	1.115366e+00	1.053770e+00	8.541643e-01	1.209122e+00	1.140955e+00	1.127367e+00	9.574218e-01	1.103782e+00	1.240652e+00	1.327905e+00	1.308875e+00	1.111950e+00	1.214038e+00	9.612311e-01	1.161084e+00	1.146927e+00	8.701339e-01	8.773184e-01	1.121461e+00	9.865210e-01	7.890043e-01	1.140100e+00	1.332375e+00	8.378333e-01	8.758340e-01	9.713310e-01	9.088680e-01	9.814693e-01	9.913255e-01	9.463430e-01	9.991555e-01	1.003782e+00	1.014720e+00	1.058913e+00	1.024698e+00	1.056429e+00	1.108337e+00	8.783230e-01	9.385871e-01	9.431437e-01	1.153612e+00	8.777875e-01	8.782028e-01	8.744692e-01	1.084399e+00	7.952809e-01	8.100746e-01	7.989696e-01	1.014521e+00	1.005713e+00	1.008827e+00	8.696710e-01	9.082372e-01	8.815799e-01	8.941190e-01	1.074928e+00	1.092650e+00	9.293696e-01	9.339859e-01	8.974852e-01	8.875467e-01	8.858295e-01	8.899420e-01	9.952272e-01	9.775162e-01	1.173775e+00	7.971591e-01	7.947205e-01	8.475968e-01	8.416089e-01	8.255338e-01	8.207649e-01	8.055926e-01	8.028860e-01	8.163810e-01	1.290107e+00	1.272911e+00	7.031688e-01	1.093523e+00	8.209210e-01	8.362851e-01	8.437983e-01	8.508934e-01	1.093596e+00	1.098030e+00	1.075806e+00	8.576676e-01	8.640660e-01	8.812439e-01	1.068426e+00	1.094318e+00	6.932793e-01	6.942198e-01	9.135744e-01	9.113014e-01	9.546940e-01	7.811115e-01	7.090062e-01	9.776019e-01	9.356934e-01	9.248036e-01	9.673186e-01	1.006552e+00	1.061031e+00	1.031630e+00	1.023678e+00	9.973592e-01	9.876867e-01	9.567669e-01	9.462165e-01	9.137843e-01	9.041272e-01	8.789757e-01	8.495454e-01	8.043627e-01	8.129083e-01	8.139856e-01	7.925898e-01	9.206298e-01	9.220280e-01	9.227933e-01	9.273900e-01	7.997932e-01	7.121518e-01	7.252284e-01	9.568468e-01	9.615906e-01	8.724956e-01	8.737901e-01	1.029338e+00	7.433790e-01	7.028393e-01	6.973838e-01	9.029191e-01	9.060631e-01	8.863104e-01	8.910800e-01	1.089270e+00	1.082912e+00	8.984106e-01	9.027859e-01	1.035642e+00	1.301470e+00	8.123827e-01	1.312305e+00	7.989696e-01	8.135491e-01	9.526886e-01	8.794395e-01	1.005811e+00	1.104314e+00	1.098639e+00	1.094643e+00	1.047253e+00	1.112514e+00	1.155007e+00	1.174924e+00	1.151330e+00	1.196215e+00	1.112453e+00	1.276457e+00	9.269840e-01	1.008930e+00	1.129992e+00	8.079754e-01	1.170859e+00	1.226697e+00	9.256796e-01	1.279735e+00	9.301007e-01	1.139395e+00	9.860084e-01	1.197395e+00	8.055629e-01	9.811221e-01	9.212871e-01	1.137834e+00	1.168161e+00	1.093831e+00	8.307790e-01	1.091458e+00	8.928616e-01	1.121925e+00	8.379888e-01	9.111855e-01	8.991509e-01	9.512134e-01	7.078805e-01	1.165833e+00	1.295707e+00	1.166906e+00	8.390790e-01	1.229611e+00	1.052851e+00	9.396843e-01	1.306975e+00	8.674354e-01	8.756464e-01	1.086923e+00	9.290594e-01	1.012343e+00	9.758379e-01	9.011151e-01	1.095190e+00	1.093750e+00	1.049846e+00	1.042826e+00	9.026858e-01	9.086668e-01	9.178168e-01	7.099485e-01	9.126214e-01	9.169362e-01	8.413767e-01	8.803081e-01	9.422174e-01	1.093902e+00	1.131712e+00	9.857746e-01	1.108481e+00	1.254408e+00	1.313062e+00	1.062828e+00	1.183906e+00	1.175960e+00	1.068253e+00	1.121161e+00	8.010540e-01	8.559623e-01	8.761264e-01	9.712872e-01	9.761873e-01	9.907595e-01	9.952071e-01	9.682117e-01	9.534276e-01	9.992050e-01	1.002716e+00	1.027163e+00	1.038746e+00	1.110597e+00	9.437025e-01	9.482083e-01	1.144263e+00	8.815847e-01	8.797453e-01	8.070381e-01	8.279360e-01	1.040867e+00	1.012849e+00	1.018622e+00	8.847052e-01	8.757415e-01	8.831423e-01	8.872797e-01	1.083635e+00	1.097903e+00	9.346027e-01	9.392011e-01	9.152092e-01	9.041625e-01	8.940514e-01	8.914112e-01	8.955325e-01	1.020744e+00	1.001849e+00	9.842761e-01	8.037166e-01	8.015696e-01	7.991477e-01	8.601787e-01	8.535431e-01	8.473111e-01	8.358105e-01	8.305778e-01	8.103637e-01	8.076907e-01	8.257343e-01	7.264207e-01	8.450545e-01	8.519654e-01	1.094462e+00	8.585034e-01	8.647240e-01	8.705717e-01	8.813064e-01	1.070336e+00	7.114671e-01	7.174573e-01	9.133571e-01	9.155439e-01	8.452244e-01	7.304500e-01	7.035221e-01	9.358625e-01	1.063641e+00	1.056747e+00	1.035605e+00	1.028215e+00	1.020529e+00	1.003741e+00	9.948177e-01	9.854980e-01	9.660138e-01	9.560015e-01	9.459520e-01	9.254448e-01	9.154399e-01	9.072469e-01	8.736301e-01	8.158463e-01	8.235522e-01	8.419301e-01	8.134568e-01	8.005043e-01	9.203940e-01	9.223117e-01	9.231443e-01	9.251714e-01	9.347553e-01	7.392980e-01	7.562075e-01	9.572213e-01	9.618619e-01	9.665157e-01	8.771324e-01	8.770509e-01	7.780156e-01	8.052208e-01	7.112486e-01	7.091266e-01	7.069748e-01	9.058891e-01	8.862618e-01	8.908797e-01	8.952468e-01	1.087712e+00	1.082721e+00	1.076830e+00	8.997405e-01	9.040169e-01	9.083180e-01	8.212634e-01	8.172085e-01	1.291036e+00	9.341669e-01	1.125118e+00	1.095415e+00	8.846791e-01	1.255098e+00	1.157516e+00	1.011475e+00	1.016178e+00	1.065458e+00	1.109372e+00	8.467885e-01	1.273672e+00	9.145319e-01	1.211504e+00	1.090649e+00	1.116841e+00	1.155238e+00	8.904732e-01	1.107968e+00	1.178737e+00	1.185831e+00	9.576819e-01	8.745819e-01	1.111563e+00	8.100185e-01	9.469201e-01	8.697384e-01	8.194413e-01	1.098501e+00	8.205089e-01	1.088653e+00	1.085717e+00	9.749820e-01	9.479447e-01	9.129581e-01	1.120565e+00	7.301095e-01	9.862771e-01	1.141743e+00	1.103121e+00	1.142328e+00	1.076798e+00	1.135399e+00	9.265978e-01	1.235913e+00	9.314406e-01	9.353437e-01	1.160877e+00	1.128369e+00	1.186540e+00	1.009570e+00	8.398725e-01	9.054962e-01	1.208323e+00	9.584377e-01	9.044545e-01	1.046373e+00	9.024262e-01	9.083341e-01	9.107156e-01	9.180124e-01	9.228054e-01	1.093627e+00	1.006198e+00	1.057543e+00	1.258182e+00	1.295944e+00	1.087835e+00	1.063728e+00	1.111526e+00	8.138216e-01	9.766536e-01	9.813975e-01	9.909250e-01	9.954344e-01	9.749713e-01	9.604524e-01	9.996286e-01	1.003656e+00	1.007542e+00	1.039329e+00	1.050987e+00	9.486876e-01	9.535868e-01	1.135598e+00	8.817707e-01	8.839396e-01	8.235271e-01	8.469309e-01	1.021931e+00	1.029499e+00	8.918431e-01	8.823297e-01	8.890705e-01	1.089388e+00	1.101125e+00	9.401512e-01	9.451103e-01	9.223032e-01	9.113983e-01	9.015251e-01	8.927241e-01	8.974796e-01	1.045527e+00	1.026078e+00	1.007467e+00	9.904443e-01	8.114579e-01	8.094073e-01	8.072929e-01	8.060432e-01	8.674023e-01	8.605590e-01	8.539767e-01	8.478283e-01	8.420944e-01	8.136187e-01	8.162713e-01	8.367668e-01	8.535097e-01	1.092655e+00	1.091841e+00	8.598193e-01	8.657135e-01	8.713682e-01	8.766408e-01	8.816897e-01	7.400553e-01	7.528969e-01	9.149031e-01	9.170973e-01	8.920812e-01	7.754581e-01	7.150460e-01	7.114520e-01	1.065633e+00	1.059389e+00	1.053047e+00	1.039609e+00	1.032691e+00	1.025694e+00	1.017212e+00	1.002297e+00	9.927320e-01	9.838246e-01	9.650828e-01	9.560071e-01	9.456868e-01	9.365993e-01	9.262279e-01	9.191279e-01	9.111912e-01	8.343718e-01	8.264433e-01	8.659949e-01	8.365409e-01	8.194699e-01	8.097134e-01	9.193815e-01	9.217432e-01	9.228643e-01	9.239783e-01	9.305027e-01	9.453850e-01	7.682729e-01	7.882742e-01	9.625753e-01	9.674426e-01	9.719407e-01	8.822439e-01	8.805957e-01	8.825448e-01	8.127892e-01	8.416640e-01	8.751789e-01	7.179401e-01	7.204417e-01	7.217304e-01	7.245603e-01	8.863439e-01	8.908098e-01	8.949986e-01	8.989462e-01	1.071548e+00	1.081747e+00	1.077054e+00	9.011298e-01	9.058950e-01	9.095446e-01	9.143098e-01	8.318175e-01	8.272553e-01	8.231358e-01	1.153646e+00	1.121285e+00	1.071956e+00	1.171257e+00	1.176324e+00	9.387743e-01	9.417411e-01	1.197968e+00	1.094348e+00	1.238443e+00	1.087806e+00	8.831722e-01	9.021688e-01	9.821978e-01	1.107350e+00	1.228037e+00	1.287409e+00	1.290247e+00	1.276843e+00	1.253078e+00	1.137052e+00	9.058073e-01	1.082908e+00	1.119994e+00	1.024707e+00	9.606652e-01	8.248738e-01	1.112363e+00	1.067308e+00	1.080555e+00	8.349127e-01	8.460220e-01	8.931219e-01	9.692876e-01	8.557721e-01	8.888167e-01	9.024464e-01	1.106510e+00	9.543550e-01	1.159470e+00	1.097359e+00	1.289503e+00	1.180211e+00	1.171134e+00	1.017995e+00	1.068220e+00	1.267975e+00	9.432495e-01	1.218963e+00	1.086426e+00	1.146872e+00	1.171829e+00	1.174793e+00	1.131523e+00	8.218088e-01	8.261624e-01	1.101348e+00	8.265854e-01	1.083877e+00	1.111955e+00	9.303549e-01	1.189542e+00	9.082896e-01	9.109373e-01	9.128161e-01	9.219074e-01	1.022708e+00	1.065075e+00	1.275144e+00	1.110124e+00	9.824789e-01	9.864041e-01	9.915563e-01	9.957762e-01	9.676041e-01	9.821547e-01	1.000689e+00	1.004473e+00	1.009217e+00	1.014070e+00	1.050122e+00	1.060866e+00	9.523946e-01	1.126999e+00	8.784747e-01	8.860113e-01	8.394980e-01	8.609640e-01	1.032037e+00	1.040233e+00	8.987628e-01	8.888045e-01	1.093444e+00	1.103189e+00	9.463155e-01	9.295932e-01	9.180856e-01	9.105631e-01	8.964766e-01	1.049437e+00	1.030887e+00	1.013034e+00	9.973514e-01	8.202857e-01	8.169736e-01	8.161584e-01	8.133168e-01	8.159223e-01	8.742160e-01	8.686044e-01	8.601293e-01	8.552727e-01	8.479475e-01	1.092090e+00	1.090294e+00	1.088515e+00	8.613206e-01	8.676857e-01	8.724518e-01	8.781444e-01	8.823856e-01	7.652061e-01	7.811011e-01	9.148668e-01	9.164665e-01	8.178513e-01	7.423854e-01	7.192112e-01	1.061272e+00	1.055732e+00	1.049364e+00	1.043228e+00	1.036510e+00	1.030071e+00	1.022441e+00	1.011230e+00	1.000378e+00	9.865535e-01	9.506537e-01	9.336556e-01	9.196626e-01	8.487508e-01	8.250890e-01	9.183682e-01	9.201608e-01	9.217351e-01	9.226918e-01	9.267299e-01	9.380517e-01	9.435435e-01	7.997434e-01	8.205834e-01	9.683858e-01	9.726286e-01	9.774313e-01	8.877611e-01	8.858837e-01	8.460606e-01	8.757502e-01	9.077143e-01	7.252882e-01	7.329982e-01	7.390725e-01	7.466683e-01	7.542588e-01	8.873560e-01	8.910178e-01	8.950726e-01	8.993327e-01	1.076838e+00	1.071525e+00	9.052400e-01	9.136246e-01	8.438341e-01	8.374162e-01	8.340651e-01	8.286531e-01	1.163974e+00	1.149159e+00	1.184961e+00	1.250178e+00	1.178395e+00	1.087083e+00	1.103560e+00	1.173230e+00	1.084814e+00	1.139336e+00	1.104464e+00	1.255489e+00	1.087584e+00	1.165838e+00	9.049813e-01	1.171589e+00	1.035232e+00	1.138682e+00	1.146169e+00	1.077843e+00	8.914239e-01	1.099086e+00	8.300835e-01	1.033447e+00	1.023195e+00	9.134969e-01	9.489806e-01	8.862374e-01	1.233199e+00	8.465988e-01	9.757439e-01	9.625171e-01	8.048360e-01	1.092176e+00	1.064616e+00	1.205701e+00	1.000668e+00	1.068417e+00	1.164814e+00	1.095247e+00	1.287292e+00	1.246150e+00	1.112259e+00	9.460107e-01	8.574186e-01	8.668536e-01	1.108736e+00	1.169730e+00	1.125238e+00	1.273482e+00	1.174499e+00	1.070266e+00	1.219632e+00	1.203074e+00	8.396379e-01	1.107012e+00	1.082466e+00	1.078874e+00	8.476675e-01	9.103209e-01	9.143385e-01	9.381074e-01	1.070499e+00	1.105447e+00	1.127314e+00	9.897507e-01	9.987366e-01	9.888589e-01	1.007934e+00	1.016105e+00	1.058921e+00	1.119480e+00	8.765305e-01	1.041603e+00	1.049760e+00	9.012342e-01	1.095965e+00	9.528600e-01	9.598584e-01	9.320664e-01	9.174838e-01	8.963281e-01	1.052790e+00	1.034304e+00	1.017583e+00	1.005805e+00	8.248768e-01	8.223473e-01	8.283592e-01	8.713909e-01	8.581854e-01	1.089594e+00	1.087258e+00	8.770438e-01	8.862351e-01	8.111026e-01	9.171690e-01	7.406373e-01	9.960981e-01	1.054436e+00	1.042630e+00	1.030164e+00	1.018400e+00	1.007758e+00	9.814338e-01	9.641717e-01	9.472165e-01	9.335667e-01	9.150013e-01	8.804103e-01	8.477548e-01	8.366291e-01	9.203745e-01	9.267864e-01	9.356282e-01	9.396439e-01	9.048950e-01	8.317812e-01	8.533817e-01	9.679179e-01	9.756031e-01	9.831777e-01	8.909472e-01	8.917540e-01	8.775806e-01	9.059575e-01	9.362076e-01	9.672335e-01	7.381149e-01	7.473281e-01	7.577579e-01	7.696734e-01	7.828080e-01	7.901166e-01	8.937233e-01	8.997367e-01	1.076466e+00	1.071948e+00	9.048065e-01	9.216386e-01	9.298065e-01	8.468879e-01	8.375001e-01	1.113709e+00	1.163903e+00	1.159191e+00	1.131751e+00	1.030861e+00	1.105134e+00	1.168002e+00	1.133971e+00	1.188340e+00	1.139148e+00	1.145805e+00	1.125219e+00	1.074191e+00	1.186519e+00	1.235861e+00	1.086591e+00	9.529805e-01	9.050586e-01	1.120953e+00	1.015896e+00	1.104061e+00	8.301701e-01	1.044973e+00	1.172755e+00	8.443388e-01	1.041987e+00	9.215772e-01	8.979338e-01	1.082081e+00	1.090023e+00	1.087042e+00	1.072025e+00	1.165452e+00	1.096220e+00	1.100213e+00	1.081324e+00	9.142239e-01	8.484405e-01	9.376287e-01	9.948810e-01	1.145385e+00	1.151902e+00	1.268737e+00	1.073881e+00	1.083824e+00	1.173163e+00	1.097780e+00	1.159541e+00	1.155863e+00	8.955388e-01	1.225898e+00	9.847946e-01	9.691833e-01	1.092648e+00	1.228704e+00	1.065691e+00	1.105141e+00	9.456265e-01	1.253072e+00	1.173860e+00	1.010455e+00	1.214758e+00	1.202376e+00	8.594809e-01	1.121901e+00	1.077891e+00	8.519525e-01	9.100990e-01	8.544765e-01	1.103207e+00	1.131211e+00	9.974127e-01	1.006628e+00	1.023979e+00	1.032775e+00	1.112814e+00	8.664216e-01	1.049668e+00	1.057448e+00	8.331156e-01	9.751769e-01	9.827673e-01	9.598859e-01	9.541207e-01	9.380925e-01	9.222719e-01	1.054249e+00	8.359607e-01	8.318732e-01	9.065016e-01	8.906680e-01	9.295491e-01	1.089480e+00	8.681080e-01	8.770999e-01	7.738351e-01	1.057961e+00	1.047625e+00	1.003993e+00	1.036281e+00	1.025041e+00	1.014544e+00	9.916856e-01	9.766966e-01	9.603652e-01	9.458392e-01	9.310059e-01	9.070315e-01	8.759981e-01	9.168689e-01	9.196702e-01	9.269005e-01	9.359035e-01	9.201677e-01	8.407932e-01	8.623841e-01	8.848525e-01	9.672930e-01	9.897006e-01	8.869530e-01	8.947425e-01	9.070048e-01	9.322805e-01	9.599851e-01	9.874224e-01	1.015746e+00	7.600795e-01	7.691057e-01	7.801777e-01	7.933073e-01	8.098833e-01	8.859486e-01	8.935155e-01	8.996627e-01	1.073190e+00	1.066448e+00	9.046199e-01	9.132479e-01	8.757564e-01	8.626930e-01	8.516791e-01	8.427167e-01	1.147109e+00	1.151119e+00	1.147884e+00	1.117286e+00	1.147245e+00	1.135654e+00	1.100345e+00	1.049050e+00	1.170797e+00	1.119189e+00	1.116468e+00	1.070343e+00	1.160328e+00	1.083069e+00	9.167033e-01	1.135929e+00	1.139871e+00	1.131537e+00	1.163338e+00	1.052704e+00	9.277330e-01	1.031487e+00	1.023692e+00	9.603948e-01	1.131187e+00	1.127540e+00	1.123926e+00	1.169581e+00	1.174401e+00	8.606109e-01	9.