# vtk DataFile Version 3.0
vtk output
ASCII
DATASET UNSTRUCTURED_GRID
POINTS 200 float
9.997500e-01	-3.633248e-05	0.0	9.990000e-01	-1.454755e-04	0.0	9.977600e-01	-3.275418e-04	0.0	9.960200e-01	-5.901118e-04	0.0	9.937800e-01	-9.477569e-04	0.0	9.910500e-01	-1.423905e-03	0.0	9.878400e-01	-2.049562e-03	0.0	9.841300e-01	-2.861425e-03	0.0	9.799500e-01	-3.871861e-03	0.0	9.752800e-01	-5.077651e-03	0.0	9.701500e-01	-6.430996e-03	0.0	9.645400e-01	-7.872121e-03	0.0	9.584700e-01	-9.324307e-03	0.0	9.519400e-01	-1.073120e-02	0.0	9.449600e-01	-1.206449e-02	0.0	9.375400e-01	-1.332890e-02	0.0	9.296900e-01	-1.455255e-02	0.0	9.214000e-01	-1.577471e-02	0.0	9.127000e-01	-1.702361e-02	0.0	9.035800e-01	-1.832096e-02	0.0	8.940600e-01	-1.967088e-02	0.0	8.841500e-01	-2.106893e-02	0.0	8.738500e-01	-2.250696e-02	0.0	8.631800e-01	-2.397291e-02	0.0	8.521600e-01	-2.545617e-02	0.0	8.407700e-01	-2.695368e-02	0.0	8.290500e-01	-2.845646e-02	0.0	8.170100e-01	-2.996098e-02	0.0	8.046400e-01	-3.146685e-02	0.0	7.919700e-01	-3.296891e-02	0.0	7.790100e-01	-3.446446e-02	0.0	7.657800e-01	-3.594945e-02	0.0	7.522800e-01	-3.742190e-02	0.0	7.385200e-01	-3.887854e-02	0.0	7.245300e-01	-4.031399e-02	0.0	7.103200e-01	-4.172505e-02	0.0	6.958900e-01	-4.310954e-02	0.0	6.812700e-01	-4.446248e-02	0.0	6.664700e-01	-4.578100e-02	0.0	6.515000e-01	-4.706234e-02	0.0	6.363800e-01	-4.830303e-02	0.0	6.211300e-01	-4.949987e-02	0.0	6.057600e-01	-5.065061e-02	0.0	5.902800e-01	-5.175311e-02	0.0	5.747100e-01	-5.280465e-02	0.0	5.590600e-01	-5.380333e-02	0.0	5.433600e-01	-5.474615e-02	0.0	5.276100e-01	-5.563208e-02	0.0	5.118400e-01	-5.645844e-02	0.0	4.960500e-01	-5.722424e-02	0.0	4.802700e-01	-5.792707e-02	0.0	4.645100e-01	-5.856555e-02	0.0	4.487800e-01	-5.913825e-02	0.0	4.331100e-01	-5.964309e-02	0.0	4.175000e-01	-6.007904e-02	0.0	4.019700e-01	-6.044436e-02	0.0	3.865400e-01	-6.073743e-02	0.0	3.712300e-01	-6.095672e-02	0.0	3.560400e-01	-6.110094e-02	0.0	3.409900e-01	-6.116851e-02	0.0	3.261100e-01	-6.115799e-02	0.0	3.114000e-01	-6.106805e-02	0.0	2.968700e-01	-6.089725e-02	0.0	2.825500e-01	-6.064450e-02	0.0	2.684500e-01	-6.030866e-02	0.0	2.545700e-01	-5.988827e-02	0.0	2.409400e-01	-5.938280e-02	0.0	2.275700e-01	-5.879139e-02	0.0	2.144700e-01	-5.811323e-02	0.0	2.016600e-01	-5.734825e-02	0.0	1.891400e-01	-5.649532e-02	0.0	1.769300e-01	-5.555475e-02	0.0	1.650400e-01	-5.452641e-02	0.0	1.534900e-01	-5.341135e-02	0.0	1.422900e-01	-5.221008e-02	0.0	1.314400e-01	-5.092206e-02	0.0	1.209500e-01	-4.954787e-02	0.0	1.108500e-01	-4.809126e-02	0.0	1.011300e-01	-4.655073e-02	0.0	9.181000e-02	-4.492928e-02	0.0	8.290000e-02	-4.322884e-02	0.0	7.440000e-02	-4.144946e-02	0.0	6.633000e-02	-3.959551e-02	0.0	5.869000e-02	-3.766733e-02	0.0	5.149000e-02	-3.566763e-02	0.0	4.474000e-02	-3.359956e-02	0.0	3.844000e-02	-3.146332e-02	0.0	3.260000e-02	-2.926230e-02	0.0	2.723000e-02	-2.700064e-02	0.0	2.232000e-02	-2.467358e-02	0.0	1.790000e-02	-2.229551e-02	0.0	1.395000e-02	-1.985568e-02	0.0	1.049000e-02	-1.736543e-02	0.0	7.520000e-03	-1.482553e-02	0.0	5.040000e-03	-1.223580e-02	0.0	3.050000e-03	-9.594112e-03	0.0	1.560000e-03	-6.914510e-03	0.0	5.600000e-04	-4.174111e-03	0.0	6.000000e-05	-1.376204e-03	0.0	0.000000e+00	0.000000e+00	0.0	6.000000e-05	1.269362e-03	0.0	5.600000e-04	3.626724e-03	0.0	1.560000e-03	5.752206e-03	0.0	3.050000e-03	7.692961e-03	0.0	5.040000e-03	9.491510e-03	0.0	7.520000e-03	1.115567e-02	0.0	1.049000e-02	1.270092e-02	0.0	1.395000e-02	1.413900e-02	0.0	1.790000e-02	1.547958e-02	0.0	2.232000e-02	1.672597e-02	0.0	2.723000e-02	1.789258e-02	0.0	3.260000e-02	1.898043e-02	0.0	3.844000e-02	1.999983e-02	0.0	4.474000e-02	2.095641e-02	0.0	5.149000e-02	2.185600e-02	0.0	5.869000e-02	2.270558e-02	0.0	6.633000e-02	2.351063e-02	0.0	7.440000e-02	2.427659e-02	0.0	8.290000e-02	2.500968e-02	0.0	9.181000e-02	2.571416e-02	0.0	1.011300e-01	2.639580e-02	0.0	1.108500e-01	2.705931e-02	0.0	1.209500e-01	2.770853e-02	0.0	1.314400e-01	2.834894e-02	0.0	1.422900e-01	2.898319e-02	0.0	1.534900e-01	2.961488e-02	0.0	1.650400e-01	3.024773e-02	0.0	1.769300e-01	3.088443e-02	0.0	1.891400e-01	3.152671e-02	0.0	2.016600e-01	3.217631e-02	0.0	2.144700e-01	3.283394e-02	0.0	2.275700e-01	3.350076e-02	0.0	2.409400e-01	3.417629e-02	0.0	2.545700e-01	3.485996e-02	0.0	2.684500e-01	3.555052e-02	0.0	2.825500e-01	3.624509e-02	0.0	2.968700e-01	3.694160e-02	0.0	3.114000e-01	3.763681e-02	0.0	3.261100e-01	3.832586e-02	0.0	3.409900e-01	3.900422e-02	0.0	3.560400e-01	3.966718e-02	0.0	3.712300e-01	4.030808e-02	0.0	3.865400e-01	4.092025e-02	0.0	4.019700e-01	4.149734e-02	0.0	4.175000e-01	4.203181e-02	0.0	4.331100e-01	4.251581e-02	0.0	4.487800e-01	4.294141e-02	0.0	4.645100e-01	4.330104e-02	0.0	4.802700e-01	4.358644e-02	0.0	4.960500e-01	4.378996e-02	0.0	5.118400e-01	4.390413e-02	0.0	5.276100e-01	4.392183e-02	0.0	5.433600e-01	4.383661e-02	0.0	5.590600e-01	4.364284e-02	0.0	5.747100e-01	4.333544e-02	0.0	5.902800e-01	4.291086e-02	0.0	6.057600e-01	4.236636e-02	0.0	6.211300e-01	4.170078e-02	0.0	6.363800e-01	4.091396e-02	0.0	6.515000e-01	4.000706e-02	0.0	6.664700e-01	3.898328e-02	0.0	6.812700e-01	3.784760e-02	0.0	6.958900e-01	3.660580e-02	0.0	7.103200e-01	3.526505e-02	0.0	7.245300e-01	3.383591e-02	0.0	7.385200e-01	3.232739e-02	0.0	7.522800e-01	3.075048e-02	0.0	7.657800e-01	2.911959e-02	0.0	7.790100e-01	2.744775e-02	0.0	7.919700e-01	2.574721e-02	0.0	8.046400e-01	2.403312e-02	0.0	8.170100e-01	2.231942e-02	0.0	8.290500e-01	2.062258e-02	0.0	8.407700e-01	1.895262e-02	0.0	8.521600e-01	1.732083e-02	0.0	8.631800e-01	1.574049e-02	0.0	8.738500e-01	1.421331e-02	0.0	8.841500e-01	1.274347e-02	0.0	8.940600e-01	1.133254e-02	0.0	9.035800e-01	9.978608e-03	0.0	9.127000e-01	8.683959e-03	0.0	9.214000e-01	7.459073e-03	0.0	9.296900e-01	6.319950e-03	0.0	9.375400e-01	5.297288e-03	0.0	9.449600e-01	4.419862e-03	0.0	9.519400e-01	3.712188e-03	0.0	9.584700e-01	3.179638e-03	0.0	9.645400e-01	2.800817e-03	0.0	9.701500e-01	2.529227e-03	0.0	9.752800e-01	2.307249e-03	0.0	9.799500e-01	2.081057e-03	0.0	9.841300e-01	1.819777e-03	0.0	9.878400e-01	1.516091e-03	0.0	9.910500e-01	1.188490e-03	0.0	9.937800e-01	8.623934e-04	0.0	9.960200e-01	5.664507e-04	0.0	9.977600e-01	3.231555e-04	0.0	9.990000e-01	1.450753e-04	0.0	9.997500e-01	3.632614e-05	0.0	1.000000e+00	0.000000e+00	0.0	
CELLS 200	600
2	199	0	2	0	1	2	1	2	2	2	3	2	3	4	2	4	5	2	5	6	2	6	7	2	7	8	2	8	9	2	9	10	2	10	11	2	11	12	2	12	13	2	13	14	2	14	15	2	15	16	2	16	17	2	17	18	2	18	19	2	19	20	2	20	21	2	21	22	2	22	23	2	23	24	2	24	25	2	25	26	2	26	27	2	27	28	2	28	29	2	29	30	2	30	31	2	31	32	2	32	33	2	33	34	2	34	35	2	35	36	2	36	37	2	37	38	2	38	39	2	39	40	2	40	41	2	41	42	2	42	43	2	43	44	2	44	45	2	45	46	2	46	47	2	47	48	2	48	49	2	49	50	2	50	51	2	51	52	2	52	53	2	53	54	2	54	55	2	55	56	2	56	57	2	57	58	2	58	59	2	59	60	2	60	61	2	61	62	2	62	63	2	63	64	2	64	65	2	65	66	2	66	67	2	67	68	2	68	69	2	69	70	2	70	71	2	71	72	2	72	73	2	73	74	2	74	75	2	75	76	2	76	77	2	77	78	2	78	79	2	79	80	2	80	81	2	81	82	2	82	83	2	83	84	2	84	85	2	85	86	2	86	87	2	87	88	2	88	89	2	89	90	2	90	91	2	91	92	2	92	93	2	93	94	2	94	95	2	95	96	2	96	97	2	97	98	2	98	99	2	99	100	2	100	101	2	101	102	2	102	103	2	103	104	2	104	105	2	105	106	2	106	107	2	107	108	2	108	109	2	109	110	2	110	111	2	111	112	2	112	113	2	113	114	2	114	115	2	115	116	2	116	117	2	117	118	2	118	119	2	119	120	2	120	121	2	121	122	2	122	123	2	123	124	2	124	125	2	125	126	2	126	127	2	127	128	2	128	129	2	129	130	2	130	131	2	131	132	2	132	133	2	133	134	2	134	135	2	135	136	2	136	137	2	137	138	2	138	139	2	139	140	2	140	141	2	141	142	2	142	143	2	143	144	2	144	145	2	145	146	2	146	147	2	147	148	2	148	149	2	149	150	2	150	151	2	151	152	2	152	153	2	153	154	2	154	155	2	155	156	2	156	157	2	157	158	2	158	159	2	159	160	2	160	161	2	161	162	2	162	163	2	163	164	2	164	165	2	165	166	2	166	167	2	167	168	2	168	169	2	169	170	2	170	171	2	171	172	2	172	173	2	173	174	2	174	175	2	175	176	2	176	177	2	177	178	2	178	179	2	179	180	2	180	181	2	181	182	2	182	183	2	183	184	2	184	185	2	185	186	2	186	187	2	187	188	2	188	189	2	189	190	2	190	191	2	191	192	2	192	193	2	193	194	2	194	195	2	195	196	2	196	197	2	197	198	2	198	199	
CELL_TYPES 200
3	3	3	3	3	3	3	3	3	3	3	3	3	3	3	3	3	3	3	3	3	3	3	3	3	3	3	3	3	3	3	3	3	3	3	3	3	3	3	3	3	3	3	3	3	3	3	3	3	3	3	3	3	3	3	3	3	3	3	3	3	3	3	3	3	3	3	3	3	3	3	3	3	3	3	3	3	3	3	3	3	3	3	3	3	3	3	3	3	3	3	3	3	3	3	3	3	3	3	3	3	3	3	3	3	3	3	3	3	3	3	3	3	3	3	3	3	3	3	3	3	3	3	3	3	3	3	3	3	3	3	3	3	3	3	3	3	3	3	3	3	3	3	3	3	3	3	3	3	3	3	3	3	3	3	3	3	3	3	3	3	3	3	3	3	3	3	3	3	3	3	3	3	3	3	3	3	3	3	3	3	3	3	3	3	3	3	3	3	3	3	3	3	3	3	3	3	3	3	3	
POINT_DATA 200

SCALARS Conservative_1 float 1
LOOKUP_TABLE default
1.198128e+00	1.179352e+00	1.169220e+00	1.162999e+00	1.158631e+00	1.154301e+00	1.147464e+00	1.136482e+00	1.120107e+00	1.098430e+00	1.072706e+00	1.045591e+00	1.021602e+00	1.004909e+00	9.966925e-01	9.950200e-01	9.966143e-01	9.985391e-01	9.989874e-01	9.973481e-01	9.938567e-01	9.890928e-01	9.836642e-01	9.780597e-01	9.725705e-01	9.673141e-01	9.622852e-01	9.574358e-01	9.526971e-01	9.480295e-01	9.434082e-01	9.387845e-01	9.341198e-01	9.294200e-01	9.247221e-01	9.200612e-01	9.154524e-01	9.108938e-01	9.063825e-01	9.018977e-01	8.974079e-01	8.929350e-01	8.885498e-01	8.843164e-01	8.801471e-01	8.758197e-01	8.713433e-01	8.676005e-01	8.662058e-01	8.682537e-01	8.720302e-01	8.714398e-01	8.585161e-01	8.313154e-01	8.027200e-01	7.870071e-01	7.837058e-01	7.856377e-01	7.880108e-01	7.896549e-01	7.910690e-01	7.928358e-01	7.951150e-01	7.978481e-01	8.009643e-01	8.044337e-01	8.082886e-01	8.124926e-01	8.169689e-01	8.216230e-01	8.264786e-01	8.317085e-01	8.375594e-01	8.441111e-01	8.512850e-01	8.589270e-01	8.670836e-01	8.759274e-01	8.855197e-01	8.959011e-01	9.071840e-01	9.194249e-01	9.327692e-01	9.473319e-01	9.632926e-01	9.809121e-01	1.000405e+00	1.022121e+00	1.046519e+00	1.073879e+00	1.104694e+00	1.139402e+00	1.177815e+00	1.219457e+00	1.262636e+00	1.304203e+00	1.335546e+00	1.350955e+00	1.335140e+00	1.298463e+00	1.270590e+00	1.198642e+00	1.056854e+00	9.397434e-01	8.477631e-01	7.804067e-01	7.345755e-01	7.046190e-01	6.851161e-01	6.727436e-01	6.652647e-01	6.611001e-01	6.597377e-01	6.603529e-01	6.622723e-01	6.652759e-01	6.691378e-01	6.740123e-01	6.808880e-01	6.896079e-01	6.957455e-01	6.953489e-01	7.053569e-01	7.789350e-01	8.959725e-01	9.450561e-01	9.405131e-01	9.256782e-01	9.194007e-01	9.183485e-01	9.173506e-01	9.152449e-01	9.128193e-01	9.104693e-01	9.081355e-01	9.055492e-01	9.026034e-01	8.992285e-01	8.954153e-01	8.911574e-01	8.864293e-01	8.812701e-01	8.756907e-01	8.697524e-01	8.634360e-01	8.567529e-01	8.496686e-01	8.422193e-01	8.343594e-01	8.262157e-01	8.178302e-01	8.093158e-01	8.004845e-01	7.909198e-01	7.810267e-01	7.738667e-01	7.768981e-01	7.988444e-01	8.355550e-01	8.657908e-01	8.795903e-01	8.853237e-01	8.920253e-01	9.023275e-01	9.144379e-01	9.263672e-01	9.378971e-01	9.494408e-01	9.609889e-01	9.723887e-01	9.834597e-01	9.941146e-01	1.004289e+00	1.013898e+00	1.022910e+00	1.031309e+00	1.039166e+00	1.046672e+00	1.054100e+00	1.061844e+00	1.070213e+00	1.079322e+00	1.088820e+00	1.097906e+00	1.105392e+00	1.110002e+00	1.110697e+00	1.107130e+00	1.100039e+00	1.091511e+00	1.084520e+00	1.081938e+00	1.085551e+00	1.095267e+00	1.109212e+00	1.125710e+00	1.143467e+00	1.162957e+00	1.185384e+00	1.176457e+00	
SCALARS Conservative_2 float 1
LOOKUP_TABLE default
7.245314e-01	7.489238e-01	7.663225e-01	7.766729e-01	7.821900e-01	7.866624e-01	7.922689e-01	8.018403e-01	8.168716e-01	8.374033e-01	8.616848e-01	8.863198e-01	9.075912e-01	9.230894e-01	9.322243e-01	9.360059e-01	9.365244e-01	9.359151e-01	9.356645e-01	9.363956e-01	9.381650e-01	9.406682e-01	9.435222e-01	9.464268e-01	9.491912e-01	9.517451e-01	9.540833e-01	9.562474e-01	9.582519e-01	9.601316e-01	9.619239e-01	9.636252e-01	9.652513e-01	9.668031e-01	9.682719e-01	9.696441e-01	9.709358e-01	9.721256e-01	9.732285e-01	9.742607e-01	9.752057e-01	9.760823e-01	9.768598e-01	9.775671e-01	9.782193e-01	9.788484e-01	9.793663e-01	9.796691e-01	9.796159e-01	9.792737e-01	9.789366e-01	9.792599e-01	9.804826e-01	9.812451e-01	9.789006e-01	9.756989e-01	9.744690e-01	9.745203e-01	9.749170e-01	9.753419e-01	9.756575e-01	9.759686e-01	9.763082e-01	9.766656e-01	9.770269e-01	9.773496e-01	9.776424e-01	9.778587e-01	9.779893e-01	9.779833e-01	9.778390e-01	9.775163e-01	9.770019e-01	9.762203e-01	9.751426e-01	9.736313e-01	9.716985e-01	9.692505e-01	9.660541e-01	9.619449e-01	9.568318e-01	9.504232e-01	9.424499e-01	9.325026e-01	9.200722e-01	9.044303e-01	8.846588e-01	8.597059e-01	8.280374e-01	7.875379e-01	7.357941e-01	6.698207e-01	5.860520e-01	4.823230e-01	3.587669e-01	2.231560e-01	9.520168e-02	1.566895e-03	-2.660367e-02	4.821537e-03	7.844448e-02	2.238634e-01	4.373630e-01	6.192845e-01	7.391291e-01	8.104754e-01	8.507755e-01	8.735656e-01	8.866983e-01	8.948500e-01	9.004781e-01	9.045149e-01	9.080723e-01	9.113775e-01	9.145044e-01	9.176967e-01	9.208709e-01	9.242598e-01	9.283646e-01	9.324388e-01	9.357444e-01	9.362023e-01	9.378139e-01	9.562139e-01	9.445982e-01	9.418052e-01	9.468679e-01	9.520707e-01	9.544192e-01	9.551010e-01	9.556217e-01	9.562974e-01	9.571517e-01	9.579510e-01	9.587731e-01	9.595831e-01	9.604705e-01	9.613933e-01	9.623455e-01	9.633467e-01	9.643165e-01	9.652913e-01	9.661806e-01	9.670174e-01	9.677243e-01	9.683234e-01	9.687396e-01	9.690206e-01	9.690097e-01	9.688518e-01	9.683762e-01	9.676496e-01	9.666167e-01	9.652366e-01	9.637925e-01	9.629388e-01	9.640046e-01	9.677565e-01	9.691143e-01	9.667578e-01	9.644285e-01	9.631969e-01	9.619180e-01	9.596952e-01	9.565451e-01	9.527219e-01	9.484688e-01	9.437774e-01	9.385432e-01	9.329520e-01	9.270602e-01	9.209378e-01	9.147400e-01	9.085359e-01	9.024302e-01	8.964427e-01	8.905448e-01	8.845959e-01	8.783080e-01	8.713704e-01	8.634382e-01	8.545033e-01	8.449952e-01	8.360127e-01	8.291008e-01	8.258241e-01	8.271905e-01	8.330940e-01	8.420590e-01	8.513794e-01	8.577023e-01	8.583093e-01	8.518595e-01	8.390978e-01	8.207822e-01	7.985370e-01	7.720916e-01	7.403077e-01	7.007290e-01	6.552603e-01	
SCALARS Conservative_3 float 1
LOOKUP_TABLE default
1.006602e-01	1.072909e-01	1.132963e-01	1.201800e-01	1.306728e-01	1.454451e-01	1.641274e-01	1.847658e-01	2.041541e-01	2.183039e-01	2.239792e-01	2.195763e-01	2.060733e-01	1.873574e-01	1.682721e-01	1.525698e-01	1.419204e-01	1.360732e-01	1.336413e-01	1.329487e-01	1.326668e-01	1.320123e-01	1.306912e-01	1.287306e-01	1.263037e-01	1.236171e-01	1.208126e-01	1.179857e-01	1.151677e-01	1.123507e-01	1.095247e-01	1.066691e-01	1.037702e-01	1.008180e-01	9.779536e-02	9.471099e-02	9.155465e-02	8.833501e-02	8.505198e-02	8.171373e-02	7.833409e-02	7.490677e-02	7.142440e-02	6.785913e-02	6.424258e-02	6.065742e-02	5.717586e-02	5.371785e-02	5.001433e-02	4.572497e-02	4.072763e-02	3.567247e-02	3.177629e-02	3.000403e-02	2.733478e-02	2.225985e-02	1.682623e-02	1.169083e-02	6.828685e-03	1.953664e-03	-3.150655e-03	-8.528687e-03	-1.416851e-02	-2.006702e-02	-2.624314e-02	-3.273037e-02	-3.956378e-02	-4.676093e-02	-5.433963e-02	-6.232289e-02	-7.074505e-02	-7.967027e-02	-8.915829e-02	-9.923889e-02	-1.099454e-01	-1.213233e-01	-1.334737e-01	-1.464546e-01	-1.603325e-01	-1.752181e-01	-1.912173e-01	-2.084265e-01	-2.269818e-01	-2.469988e-01	-2.685677e-01	-2.917747e-01	-3.166573e-01	-3.431248e-01	-3.707406e-01	-3.987356e-01	-4.255888e-01	-4.481908e-01	-4.614614e-01	-4.570426e-01	-4.220246e-01	-3.408780e-01	-2.014972e-01	-2.874699e-03	2.267330e-01	3.956439e-01	5.400260e-01	7.027786e-01	7.522185e-01	6.924986e-01	5.892492e-01	4.845436e-01	3.959494e-01	3.256334e-01	2.708696e-01	2.279619e-01	1.942711e-01	1.673384e-01	1.456121e-01	1.278986e-01	1.133308e-01	1.012646e-01	9.123442e-02	8.279584e-02	7.581751e-02	7.062952e-02	6.702471e-02	6.261196e-02	5.651536e-02	4.776451e-02	6.212350e-02	5.662590e-02	5.246866e-02	4.978105e-02	4.907538e-02	4.910132e-02	4.895726e-02	4.855867e-02	4.816057e-02	4.781112e-02	4.744994e-02	4.697716e-02	4.635124e-02	4.553870e-02	4.449650e-02	4.320658e-02	4.161134e-02	3.969554e-02	3.741552e-02	3.475746e-02	3.169411e-02	2.820839e-02	2.428002e-02	1.990863e-02	1.507123e-02	9.793926e-03	4.069240e-03	-2.040981e-03	-8.504001e-03	-1.537819e-02	-2.288998e-02	-3.112344e-02	-4.007414e-02	-4.856731e-02	-5.391357e-02	-5.965842e-02	-6.834218e-02	-7.778086e-02	-8.613316e-02	-9.329529e-02	-9.977694e-02	-1.059432e-01	-1.116696e-01	-1.166961e-01	-1.209174e-01	-1.243312e-01	-1.269273e-01	-1.286832e-01	-1.296181e-01	-1.297982e-01	-1.293327e-01	-1.284102e-01	-1.272440e-01	-1.260480e-01	-1.249241e-01	-1.237354e-01	-1.219737e-01	-1.187646e-01	-1.130169e-01	-1.038667e-01	-9.113029e-02	-7.572430e-02	-5.978883e-02	-4.638094e-02	-3.872001e-02	-3.900620e-02	-4.735002e-02	-6.152948e-02	-7.774857e-02	-9.226459e-02	-1.023540e-01	-1.070997e-01	-1.075240e-01	-1.033172e-01	-9.857525e-02	4.727132e-03	
SCALARS Conservative_4 float 1
LOOKUP_TABLE default
3.442538e+00	3.395126e+00	3.370538e+00	3.355548e+00	3.344900e+00	3.334352e+00	3.317368e+00	3.290008e+00	3.249139e+00	3.194989e+00	3.130611e+00	3.062501e+00	3.002058e+00	2.959983e+00	2.939308e+00	2.935099e+00	2.939078e+00	2.943862e+00	2.944908e+00	2.940665e+00	2.931735e+00	2.919577e+00	2.905718e+00	2.891395e+00	2.877347e+00	2.863873e+00	2.850962e+00	2.838499e+00	2.826301e+00	2.814273e+00	2.802357e+00	2.790422e+00	2.778368e+00	2.766212e+00	2.754048e+00	2.741966e+00	2.730010e+00	2.718169e+00	2.706440e+00	2.694771e+00	2.683074e+00	2.671413e+00	2.659966e+00	2.648909e+00	2.638016e+00	2.626711e+00	2.614993e+00	2.605153e+00	2.601395e+00	2.606617e+00	2.616404e+00	2.614886e+00	2.581165e+00	2.509937e+00	2.434352e+00	2.392267e+00	2.383210e+00	2.388223e+00	2.394519e+00	2.398939e+00	2.402732e+00	2.407452e+00	2.413529e+00	2.420811e+00	2.429111e+00	2.438340e+00	2.448589e+00	2.459753e+00	2.471631e+00	2.483965e+00	2.496822e+00	2.510648e+00	2.526095e+00	2.543360e+00	2.562240e+00	2.582301e+00	2.603687e+00	2.626844e+00	2.651886e+00	2.678902e+00	2.708202e+00	2.739895e+00	2.774348e+00	2.811820e+00	2.852739e+00	2.897717e+00	2.947236e+00	3.002153e+00	3.063559e+00	3.132013e+00	3.208690e+00	3.294570e+00	3.388942e+00	3.490612e+00	3.595369e+00	3.696055e+00	3.771573e+00	3.809715e+00	3.770692e+00	3.678910e+00	3.616564e+00	3.445026e+00	3.082687e+00	2.781293e+00	2.541274e+00	2.363981e+00	2.242769e+00	2.163252e+00	2.111279e+00	2.078224e+00	2.058284e+00	2.047157e+00	2.043617e+00	2.045434e+00	2.050789e+00	2.059132e+00	2.069800e+00	2.083238e+00	2.102148e+00	2.125850e+00	2.142726e+00	2.141769e+00	2.167890e+00	2.364719e+00	2.669538e+00	2.799639e+00	2.788861e+00	2.750698e+00	2.734638e+00	2.732036e+00	2.729529e+00	2.724115e+00	2.717905e+00	2.711884e+00	2.705916e+00	2.699275e+00	2.691703e+00	2.683005e+00	2.673156e+00	2.662147e+00	2.649888e+00	2.636497e+00	2.621979e+00	2.606508e+00	2.590014e+00	2.572536e+00	2.553963e+00	2.534413e+00	2.513716e+00	2.492260e+00	2.470102e+00	2.447564e+00	2.424139e+00	2.398731e+00	2.372507e+00	2.353667e+00	2.362042e+00	2.420659e+00	2.517350e+00	2.596345e+00	2.632282e+00	2.647306e+00	2.664898e+00	2.691772e+00	2.723227e+00	2.754076e+00	2.783807e+00	2.813509e+00	2.843123e+00	2.872296e+00	2.900555e+00	2.927677e+00	2.953527e+00	2.977885e+00	3.000692e+00	3.021908e+00	3.041716e+00	3.060603e+00	3.079241e+00	3.098629e+00	3.119520e+00	3.142216e+00	3.165847e+00	3.188459e+00	3.207134e+00	3.218733e+00	3.220650e+00	3.211958e+00	3.194406e+00	3.173146e+00	3.155563e+00	3.148854e+00	3.157563e+00	3.181615e+00	3.216109e+00	3.256898e+00	3.300516e+00	3.348190e+00	3.403148e+00	3.369768e+00	
SCALARS Pressure float 1
LOOKUP_TABLE default
1.287696e+00	1.260980e+00	1.245568e+00	1.236000e+00	1.229401e+00	1.222853e+00	1.212847e+00	1.196848e+00	1.173068e+00	1.141637e+00	1.104456e+00	1.065516e+00	1.031249e+00	1.007421e+00	9.956562e-01	9.932624e-01	9.955777e-01	9.983925e-01	9.991166e-01	9.968879e-01	9.920334e-01	9.853839e-01	9.778106e-01	9.700061e-01	9.623834e-01	9.551044e-01	9.481612e-01	9.414795e-01	9.349683e-01	9.285687e-01	9.222393e-01	9.159202e-01	9.095577e-01	9.031594e-01	8.967760e-01	8.904566e-01	8.842164e-01	8.780598e-01	8.719788e-01	8.659416e-01	8.599124e-01	8.539142e-01	8.480487e-01	8.423920e-01	8.368246e-01	8.310449e-01	8.250904e-01	8.201533e-01	8.184054e-01	8.212675e-01	8.263912e-01	8.255782e-01	8.082756e-01	7.721151e-01	7.348048e-01	7.148547e-01	7.108784e-01	7.134918e-01	7.165649e-01	7.186361e-01	7.204265e-01	7.226818e-01	7.256028e-01	7.291114e-01	7.331143e-01	7.375826e-01	7.425524e-01	7.479865e-01	7.537804e-01	7.598207e-01	7.661338e-01	7.729557e-01	7.806080e-01	7.892095e-01	7.986521e-01	8.087623e-01	8.195785e-01	8.313370e-01	8.441658e-01	8.581356e-01	8.733806e-01	8.900150e-01	9.082460e-01	9.282670e-01	9.503619e-01	9.749465e-01	1.002387e+00	1.033204e+00	1.068122e+00	1.107685e+00	1.152667e+00	1.203815e+00	1.261096e+00	1.323832e+00	1.389548e+00	1.452966e+00	1.501192e+00	1.523884e+00	1.500470e+00	1.447450e+00	1.399753e+00	1.287239e+00	1.089797e+00	9.288354e-01	8.057135e-01	7.170825e-01	6.573516e-01	6.185991e-01	5.935748e-01	5.777832e-01	5.681964e-01	5.628807e-01	5.610423e-01	5.616541e-01	5.638767e-01	5.673918e-01	5.719708e-01	5.777774e-01	5.860130e-01	5.967377e-01	6.040927e-01	6.034838e-01	6.168746e-01	7.105338e-01	8.677812e-01	9.314638e-01	9.243059e-01	9.039005e-01	8.951769e-01	8.936245e-01	8.921914e-01	8.892925e-01	8.859263e-01	8.826696e-01	8.794236e-01	8.758542e-01	8.717956e-01	8.671696e-01	8.619643e-01	8.561629e-01	8.497550e-01	8.427767e-01	8.352676e-01	8.272936e-01	8.188510e-01	8.099439e-01	8.005472e-01	7.906884e-01	7.803538e-01	7.696584e-01	7.587098e-01	7.476327e-01	7.361919e-01	7.238382e-01	7.110034e-01	7.015756e-01	7.051689e-01	7.331964e-01	7.814399e-01	8.218161e-01	8.403608e-01	8.479717e-01	8.568383e-01	8.706374e-01	8.869950e-01	9.032421e-01	9.190318e-01	9.349053e-01	9.508821e-01	9.667162e-01	9.821665e-01	9.971098e-01	1.011430e+00	1.025006e+00	1.037778e+00	1.049723e+00	1.060934e+00	1.071682e+00	1.082369e+00	1.093555e+00	1.105705e+00	1.118970e+00	1.132838e+00	1.146100e+00	1.156977e+00	1.163580e+00	1.164406e+00	1.159017e+00	1.148574e+00	1.136164e+00	1.126147e+00	1.122661e+00	1.128216e+00	1.142523e+00	1.163084e+00	1.187431e+00	1.213918e+00	1.243188e+00	1.276774e+00	1.274910e+00	
SCALARS Temperature float 1
LOOKUP_TABLE default
1.074757e+00	1.069215e+00	1.065298e+00	1.062769e+00	1.061081e+00	1.059388e+00	1.056980e+00	1.053117e+00	1.047282e+00	1.039335e+00	1.029598e+00	1.019056e+00	1.009443e+00	1.002499e+00	9.989603e-01	9.982336e-01	9.989599e-01	9.998533e-01	1.000129e+00	9.995385e-01	9.981654e-01	9.962502e-01	9.940493e-01	9.917658e-01	9.895256e-01	9.873778e-01	9.853224e-01	9.833343e-01	9.813909e-01	9.794724e-01	9.775613e-01	9.756448e-01	9.737056e-01	9.717452e-01	9.697790e-01	9.678232e-01	9.658792e-01	9.639541e-01	9.620429e-01	9.601329e-01	9.582181e-01	9.563005e-01	9.544189e-01	9.525911e-01	9.507782e-01	9.488766e-01	9.469177e-01	9.453121e-01	9.448163e-01	9.458843e-01	9.476635e-01	9.473726e-01	9.414798e-01	9.287872e-01	9.153936e-01	9.083205e-01	9.070730e-01	9.081690e-01	9.093339e-01	9.100635e-01	9.107000e-01	9.115152e-01	9.125758e-01	9.138473e-01	9.152896e-01	9.168967e-01	9.186724e-01	9.206071e-01	9.226550e-01	9.247802e-01	9.269857e-01	9.293589e-01	9.320032e-01	9.349593e-01	9.381724e-01	9.415960e-01	9.452128e-01	9.490934e-01	9.532999e-01	9.578464e-01	9.627381e-01	9.680127e-01	9.737093e-01	9.798752e-01	9.865766e-01	9.939183e-01	1.001981e+00	1.010843e+00	1.020643e+00	1.031481e+00	1.043427e+00	1.056532e+00	1.070709e+00	1.085591e+00	1.100513e+00	1.114065e+00	1.124029e+00	1.128006e+00	1.123830e+00	1.114741e+00	1.101656e+00	1.073915e+00	1.031171e+00	9.883926e-01	9.503993e-01	9.188574e-01	8.948727e-01	8.779201e-01	8.663857e-01	8.588462e-01	8.540906e-01	8.514304e-01	8.504022e-01	8.505363e-01	8.514273e-01	8.528670e-01	8.547877e-01	8.572208e-01	8.606598e-01	8.653289e-01	8.682669e-01	8.678863e-01	8.745567e-01	9.121863e-01	9.685356e-01	9.856175e-01	9.827677e-01	9.764739e-01	9.736526e-01	9.730778e-01	9.725740e-01	9.716443e-01	9.705385e-01	9.694666e-01	9.683837e-01	9.672077e-01	9.658678e-01	9.643484e-01	9.626419e-01	9.607314e-01	9.586269e-01	9.563206e-01	9.538386e-01	9.511829e-01	9.483633e-01	9.453647e-01	9.421876e-01	9.388153e-01	9.352731e-01	9.315465e-01	9.277108e-01	9.237837e-01	9.196829e-01	9.151853e-01	9.103446e-01	9.065845e-01	9.076722e-01	9.178212e-01	9.352345e-01	9.492087e-01	9.554002e-01	9.578098e-01	9.605538e-01	9.648797e-01	9.699893e-01	9.750368e-01	9.798855e-01	9.846904e-01	9.894830e-01	9.941664e-01	9.986850e-01	1.003013e+00	1.007110e+00	1.010956e+00	1.014536e+00	1.017855e+00	1.020948e+00	1.023895e+00	1.026818e+00	1.029864e+00	1.033163e+00	1.036735e+00	1.040428e+00	1.043896e+00	1.046667e+00	1.048268e+00	1.048357e+00	1.046866e+00	1.044121e+00	1.040910e+00	1.038383e+00	1.037639e+00	1.039303e+00	1.043146e+00	1.048568e+00	1.054828e+00	1.061612e+00	1.068989e+00	1.077097e+00	1.083686e+00	
SCALARS Pressure_Coefficient float 1
LOOKUP_TABLE default
6.421791e-01	5.825455e-01	5.481428e-01	5.267855e-01	5.120567e-01	4.974389e-01	4.751055e-01	4.393938e-01	3.863126e-01	3.161542e-01	2.331609e-01	1.462410e-01	6.975177e-02	1.656425e-02	-9.695915e-03	-1.503919e-02	-9.871163e-03	-3.588071e-03	-1.971952e-03	-6.946730e-03	-1.778265e-02	-3.262521e-02	-4.952982e-02	-6.695066e-02	-8.396569e-02	-1.002133e-01	-1.157117e-01	-1.306262e-01	-1.451601e-01	-1.594448e-01	-1.735730e-01	-1.876782e-01	-2.018801e-01	-2.161620e-01	-2.304107e-01	-2.445165e-01	-2.584454e-01	-2.721880e-01	-2.857617e-01	-2.992374e-01	-3.126954e-01	-3.260843e-01	-3.391769e-01	-3.518036e-01	-3.642307e-01	-3.771320e-01	-3.904231e-01	-4.014436e-01	-4.053451e-01	-3.989565e-01	-3.875196e-01	-3.893343e-01	-4.279562e-01	-5.086716e-01	-5.919536e-01	-6.364851e-01	-6.453608e-01	-6.395273e-01	-6.326676e-01	-6.280445e-01	-6.240479e-01	-6.190138e-01	-6.124938e-01	-6.046621e-01	-5.957269e-01	-5.857531e-01	-5.746598e-01	-5.625301e-01	-5.495972e-01	-5.361145e-01	-5.220227e-01	-5.067953e-01	-4.897143e-01	-4.705145e-01	-4.494373e-01	-4.268699e-01	-4.027267e-01	-3.764799e-01	-3.478443e-01	-3.166617e-01	-2.826326e-01	-2.455023e-01	-2.048080e-01	-1.601182e-01	-1.107993e-01	-5.592307e-02	5.328578e-03	7.411685e-02	1.520583e-01	2.403688e-01	3.407750e-01	4.549440e-01	5.828041e-01	7.228390e-01	8.695269e-01	1.011086e+00	1.118732e+00	1.169385e+00	1.117121e+00	9.987716e-01	8.923050e-01	6.411586e-01	2.004400e-01	-1.588495e-01	-4.336753e-01	-6.315123e-01	-7.648403e-01	-8.513412e-01	-9.071991e-01	-9.424481e-01	-9.638473e-01	-9.757127e-01	-9.798162e-01	-9.784507e-01	-9.734896e-01	-9.656432e-01	-9.554224e-01	-9.424612e-01	-9.240782e-01	-9.001391e-01	-8.837216e-01	-8.850808e-01	-8.551907e-01	-6.461298e-01	-2.951312e-01	-1.529826e-01	-1.689600e-01	-2.145077e-01	-2.339801e-01	-2.374452e-01	-2.406443e-01	-2.471149e-01	-2.546289e-01	-2.618983e-01	-2.691438e-01	-2.771111e-01	-2.861706e-01	-2.964964e-01	-3.081155e-01	-3.210649e-01	-3.353683e-01	-3.509449e-01	-3.677063e-01	-3.855054e-01	-4.043504e-01	-4.242324e-01	-4.452072e-01	-4.672135e-01	-4.902816e-01	-5.141555e-01	-5.385941e-01	-5.633198e-01	-5.888574e-01	-6.164327e-01	-6.450816e-01	-6.661260e-01	-6.581052e-01	-5.955439e-01	-4.878574e-01	-3.977318e-01	-3.563376e-01	-3.393488e-01	-3.195574e-01	-2.887557e-01	-2.522433e-01	-2.159774e-01	-1.807326e-01	-1.453008e-01	-1.096381e-01	-7.429426e-02	-3.980692e-02	-6.451431e-03	2.551301e-02	5.581745e-02	8.432646e-02	1.109886e-01	1.360142e-01	1.600037e-01	1.838592e-01	2.088281e-01	2.359488e-01	2.655584e-01	2.965144e-01	3.261166e-01	3.503960e-01	3.651342e-01	3.669786e-01	3.549486e-01	3.316381e-01	3.039384e-01	2.815791e-01	2.737968e-01	2.861970e-01	3.181315e-01	3.640262e-01	4.183723e-01	4.774953e-01	5.428312e-01	6.177990e-01	6.136394e-01	
SCALARS Mach float 1
LOOKUP_TABLE default
4.977215e-01	5.243356e-01	5.425141e-01	5.540043e-01	5.615729e-01	5.690844e-01	5.796429e-01	5.962895e-01	6.208046e-01	6.531275e-01	6.913006e-01	7.311389e-01	7.663365e-01	7.911833e-01	8.036805e-01	8.062334e-01	8.036819e-01	8.005373e-01	7.995643e-01	8.016458e-01	8.064727e-01	8.131794e-01	8.208504e-01	8.287695e-01	8.365007e-01	8.438790e-01	8.509097e-01	8.576831e-01	8.642790e-01	8.707670e-01	8.772070e-01	8.836433e-01	8.901337e-01	8.966736e-01	9.032117e-01	9.096943e-01	9.161183e-01	9.224611e-01	9.287401e-01	9.349974e-01	9.412538e-01	9.475027e-01	9.536185e-01	9.595452e-01	9.654102e-01	9.715476e-01	9.778552e-01	9.830144e-01	9.846056e-01	9.811770e-01	9.754555e-01	9.763918e-01	9.952905e-01	1.035601e+00	1.077645e+00	1.099681e+00	1.103557e+00	1.100151e+00	1.096530e+00	1.094260e+00	1.092279e+00	1.089741e+00	1.086436e+00	1.082472e+00	1.077970e+00	1.072948e+00	1.067394e+00	1.061333e+00	1.054907e+00	1.048228e+00	1.041283e+00	1.033796e+00	1.025435e+00	1.016062e+00	1.005844e+00	9.949190e-01	9.833334e-01	9.708485e-01	9.572489e-01	9.424665e-01	9.264581e-01	9.090670e-01	8.901215e-01	8.694065e-01	8.466231e-01	8.213058e-01	7.930202e-01	7.612700e-01	7.252317e-01	6.840318e-01	6.366307e-01	5.815925e-01	5.172712e-01	4.419907e-01	3.534279e-01	2.501411e-01	1.330183e-01	1.928492e-03	1.363147e-01	2.439249e-01	3.458252e-01	5.018409e-01	6.852321e-01	8.403968e-01	9.666341e-01	1.066814e+00	1.141319e+00	1.193445e+00	1.228755e+00	1.251794e+00	1.266314e+00	1.274435e+00	1.277574e+00	1.277164e+00	1.274445e+00	1.270050e+00	1.264186e+00	1.256757e+00	1.246254e+00	1.231986e+00	1.223003e+00	1.224167e+00	1.203752e+00	1.087650e+00	9.073354e-01	8.499020e-01	8.596088e-01	8.808616e-01	8.903109e-01	8.922306e-01	8.939114e-01	8.970097e-01	9.006885e-01	9.042485e-01	9.078386e-01	9.117303e-01	9.161558e-01	9.211633e-01	9.267741e-01	9.330385e-01	9.399194e-01	9.474373e-01	9.555018e-01	9.641020e-01	9.732018e-01	9.828457e-01	9.930273e-01	1.003796e+00	1.015066e+00	1.026880e+00	1.038997e+00	1.051361e+00	1.064229e+00	1.078296e+00	1.093385e+00	1.105073e+00	1.101695e+00	1.070057e+00	1.015188e+00	9.704769e-01	9.504310e-01	9.425855e-01	9.336200e-01	9.194138e-01	9.025134e-01	8.856806e-01	8.693718e-01	8.530659e-01	8.366474e-01	8.204431e-01	8.046479e-01	7.893606e-01	7.747351e-01	7.608607e-01	7.478140e-01	7.355925e-01	7.240918e-01	7.130295e-01	7.019454e-01	6.902767e-01	6.774904e-01	6.634676e-01	6.487514e-01	6.347184e-01	6.233478e-01	6.167109e-01	6.163437e-01	6.225264e-01	6.338019e-01	6.468146e-01	6.569267e-01	6.598837e-01	6.532569e-01	6.377725e-01	6.154632e-01	5.889589e-01	5.592029e-01	5.253960e-01	4.861327e-01	4.522028e-01	