# vtk DataFile Version 3.0
vtk output
ASCII
DATASET UNSTRUCTURED_GRID
POINTS 5233 float
9.997500e-01	-3.633002e-05	0.0	9.990000e-01	-1.453200e-04	0.0	9.977600e-01	-3.258377e-04	0.0	9.960200e-01	-5.809184e-04	0.0	9.937800e-01	-9.145818e-04	0.0	9.910500e-01	-1.332385e-03	0.0	9.878400e-01	-1.842074e-03	0.0	9.841300e-01	-2.456016e-03	0.0	9.799500e-01	-3.174228e-03	0.0	9.752800e-01	-3.996973e-03	0.0	9.701500e-01	-4.906157e-03	0.0	9.645400e-01	-5.884991e-03	0.0	9.584700e-01	-6.907636e-03	0.0	9.519400e-01	-7.956252e-03	0.0	9.449600e-01	-9.020397e-03	0.0	9.375400e-01	-1.009949e-02	0.0	9.296900e-01	-1.119993e-02	0.0	9.214000e-01	-1.233331e-02	0.0	9.127000e-01	-1.350419e-02	0.0	9.035800e-01	-1.471888e-02	0.0	8.940600e-01	-1.597567e-02	0.0	8.841500e-01	-1.727125e-02	0.0	8.738500e-01	-1.860209e-02	0.0	8.631800e-01	-1.996172e-02	0.0	8.521600e-01	-2.134424e-02	0.0	8.407700e-01	-2.274939e-02	0.0	8.290500e-01	-2.417011e-02	0.0	8.170100e-01	-2.560356e-02	0.0	8.046400e-01	-2.704947e-02	0.0	7.919700e-01	-2.850295e-02	0.0	7.790100e-01	-2.996145e-02	0.0	7.657800e-01	-3.142130e-02	0.0	7.522800e-01	-3.288097e-02	0.0	7.385200e-01	-3.433775e-02	0.0	7.245300e-01	-3.578681e-02	0.0	7.103200e-01	-3.722547e-02	0.0	6.958900e-01	-3.865200e-02	0.0	6.812700e-01	-4.006166e-02	0.0	6.664700e-01	-4.145173e-02	0.0	6.515000e-01	-4.281945e-02	0.0	6.363800e-01	-4.416114e-02	0.0	6.211300e-01	-4.547315e-02	0.0	6.057600e-01	-4.675273e-02	0.0	5.902800e-01	-4.799705e-02	0.0	5.747100e-01	-4.920246e-02	0.0	5.590600e-01	-5.036610e-02	0.0	5.433600e-01	-5.148363e-02	0.0	5.276100e-01	-5.255291e-02	0.0	5.118400e-01	-5.356971e-02	0.0	4.960500e-01	-5.453176e-02	0.0	4.802700e-01	-5.543497e-02	0.0	4.645100e-01	-5.627648e-02	0.0	4.487800e-01	-5.705341e-02	0.0	4.331100e-01	-5.776196e-02	0.0	4.175000e-01	-5.839980e-02	0.0	4.019700e-01	-5.896371e-02	0.0	3.865400e-01	-5.945066e-02	0.0	3.712300e-01	-5.985778e-02	0.0	3.560400e-01	-6.018284e-02	0.0	3.409900e-01	-6.042312e-02	0.0	3.261100e-01	-6.057610e-02	0.0	3.114000e-01	-6.063983e-02	0.0	2.968700e-01	-6.061225e-02	0.0	2.825500e-01	-6.049160e-02	0.0	2.684500e-01	-6.027639e-02	0.0	2.545700e-01	-5.996503e-02	0.0	2.409400e-01	-5.955673e-02	0.0	2.275700e-01	-5.905066e-02	0.0	2.144700e-01	-5.844615e-02	0.0	2.016600e-01	-5.774331e-02	0.0	1.891400e-01	-5.694141e-02	0.0	1.769300e-01	-5.604113e-02	0.0	1.650400e-01	-5.504286e-02	0.0	1.534900e-01	-5.394817e-02	0.0	1.422900e-01	-5.275825e-02	0.0	1.314400e-01	-5.147324e-02	0.0	1.209500e-01	-5.009443e-02	0.0	1.108500e-01	-4.862636e-02	0.0	1.011300e-01	-4.706827e-02	0.0	9.181000e-02	-4.542399e-02	0.0	8.290000e-02	-4.369625e-02	0.0	7.440000e-02	-4.188588e-02	0.0	6.633000e-02	-3.999809e-02	0.0	5.869000e-02	-3.803397e-02	0.0	5.149000e-02	-3.599698e-02	0.0	4.474000e-02	-3.389105e-02	0.0	3.844000e-02	-3.171703e-02	0.0	3.260000e-02	-2.947898e-02	0.0	2.723000e-02	-2.718171e-02	0.0	2.232000e-02	-2.482094e-02	0.0	1.790000e-02	-2.241177e-02	0.0	1.395000e-02	-1.994373e-02	0.0	1.049000e-02	-1.742873e-02	0.0	7.520000e-03	-1.486783e-02	0.0	5.040000e-03	-1.226115e-02	0.0	3.050000e-03	-9.606704e-03	0.0	1.560000e-03	-6.918667e-03	0.0	5.600000e-04	-4.173994e-03	0.0	6.000000e-05	-1.375585e-03	0.0	0.000000e+00	0.000000e+00	0.0	6.000000e-05	1.349433e-03	0.0	5.600000e-04	4.036337e-03	0.0	1.560000e-03	6.620779e-03	0.0	3.050000e-03	9.111763e-03	0.0	5.040000e-03	1.153676e-02	0.0	7.520000e-03	1.388692e-02	0.0	1.049000e-02	1.616747e-02	0.0	1.395000e-02	1.838119e-02	0.0	1.790000e-02	2.052968e-02	0.0	2.232000e-02	2.260510e-02	0.0	2.723000e-02	2.461877e-02	0.0	3.260000e-02	2.656005e-02	0.0	3.844000e-02	2.843481e-02	0.0	4.474000e-02	3.024114e-02	0.0	5.149000e-02	3.197779e-02	0.0	5.869000e-02	3.364612e-02	0.0	6.633000e-02	3.524494e-02	0.0	7.440000e-02	3.677343e-02	0.0	8.290000e-02	3.823266e-02	0.0	9.181000e-02	3.962033e-02	0.0	1.011300e-01	4.093763e-02	0.0	1.108500e-01	4.218416e-02	0.0	1.209500e-01	4.335859e-02	0.0	1.314400e-01	4.446317e-02	0.0	1.422900e-01	4.549582e-02	0.0	1.534900e-01	4.645698e-02	0.0	1.650400e-01	4.734787e-02	0.0	1.769300e-01	4.816878e-02	0.0	1.891400e-01	4.891949e-02	0.0	2.016600e-01	4.960064e-02	0.0	2.144700e-01	5.021240e-02	0.0	2.275700e-01	5.075599e-02	0.0	2.409400e-01	5.123167e-02	0.0	2.545700e-01	5.164020e-02	0.0	2.684500e-01	5.198226e-02	0.0	2.825500e-01	5.225813e-02	0.0	2.968700e-01	5.246877e-02	0.0	3.114000e-01	5.261475e-02	0.0	3.261100e-01	5.269647e-02	0.0	3.409900e-01	5.271453e-02	0.0	3.560400e-01	5.266934e-02	0.0	3.712300e-01	5.256127e-02	0.0	3.865400e-01	5.239076e-02	0.0	4.019700e-01	5.215789e-02	0.0	4.175000e-01	5.186290e-02	0.0	4.331100e-01	5.150601e-02	0.0	4.487800e-01	5.108749e-02	0.0	4.645100e-01	5.060701e-02	0.0	4.802700e-01	5.006508e-02	0.0	4.960500e-01	4.946166e-02	0.0	5.118400e-01	4.879665e-02	0.0	5.276100e-01	4.807093e-02	0.0	5.433600e-01	4.728415e-02	0.0	5.590600e-01	4.643756e-02	0.0	5.747100e-01	4.553100e-02	0.0	5.902800e-01	4.456625e-02	0.0	6.057600e-01	4.354422e-02	0.0	6.211300e-01	4.246676e-02	0.0	6.363800e-01	4.133539e-02	0.0	6.515000e-01	4.015193e-02	0.0	6.664700e-01	3.891935e-02	0.0	6.812700e-01	3.764114e-02	0.0	6.958900e-01	3.632040e-02	0.0	7.103200e-01	3.496057e-02	0.0	7.245300e-01	3.356749e-02	0.0	7.385200e-01	3.214451e-02	0.0	7.522800e-01	3.069628e-02	0.0	7.657800e-01	2.922994e-02	0.0	7.790100e-01	2.775091e-02	0.0	7.919700e-01	2.626366e-02	0.0	8.046400e-01	2.477512e-02	0.0	8.170100e-01	2.329119e-02	0.0	8.290500e-01	2.182024e-02	0.0	8.407700e-01	2.036562e-02	0.0	8.521600e-01	1.893272e-02	0.0	8.631800e-01	1.753017e-02	0.0	8.738500e-01	1.615817e-02	0.0	8.841500e-01	1.482111e-02	0.0	8.940600e-01	1.352272e-02	0.0	9.035800e-01	1.226394e-02	0.0	9.127000e-01	1.104789e-02	0.0	9.214000e-01	9.881019e-03	0.0	9.296900e-01	8.768671e-03	0.0	9.375400e-01	7.724209e-03	0.0	9.449600e-01	6.756617e-03	0.0	9.519400e-01	5.875409e-03	0.0	9.584700e-01	5.084335e-03	0.0	9.645400e-01	4.379104e-03	0.0	9.701500e-01	3.746911e-03	0.0	9.752800e-01	3.173517e-03	0.0	9.799500e-01	2.641773e-03	0.0	9.841300e-01	2.146233e-03	0.0	9.878400e-01	1.683394e-03	0.0	9.910500e-01	1.262353e-03	0.0	9.937800e-01	8.891852e-04	0.0	9.960200e-01	5.738785e-04	0.0	9.977600e-01	3.245327e-04	0.0	9.990000e-01	1.452010e-04	0.0	9.997500e-01	3.632813e-05	0.0	1.000000e+00	0.000000e+00	0.0	1.984229e+01	2.506660e+00	0.0	1.937166e+01	4.973800e+00	0.0	1.859553e+01	7.362490e+00	0.0	1.752613e+01	9.635070e+00	0.0	1.618034e+01	1.175571e+01	0.0	1.457937e+01	1.369094e+01	0.0	1.274848e+01	1.541027e+01	0.0	1.071654e+01	1.688656e+01	0.0	8.515590e+00	1.809654e+01	0.0	6.180340e+00	1.902113e+01	0.0	3.747630e+00	1.964575e+01	0.0	1.255810e+00	1.996053e+01	0.0	-1.255810e+00	1.996053e+01	0.0	-3.747630e+00	1.964574e+01	0.0	-6.180340e+00	1.902113e+01	0.0	-8.515590e+00	1.809654e+01	0.0	-1.071654e+01	1.688656e+01	0.0	-1.274848e+01	1.541026e+01	0.0	-1.457937e+01	1.369094e+01	0.0	-1.618034e+01	1.175570e+01	0.0	-1.752613e+01	9.635070e+00	0.0	-1.859553e+01	7.362490e+00	0.0	-1.937166e+01	4.973800e+00	0.0	-1.984229e+01	2.506660e+00	0.0	-2.000000e+01	0.000000e+00	0.0	-1.984229e+01	-2.506670e+00	0.0	-1.937166e+01	-4.973800e+00	0.0	-1.859553e+01	-7.362490e+00	0.0	-1.752613e+01	-9.635080e+00	0.0	-1.618034e+01	-1.175571e+01	0.0	-1.457937e+01	-1.369094e+01	0.0	-1.274848e+01	-1.541027e+01	0.0	-1.071653e+01	-1.688656e+01	0.0	-8.515580e+00	-1.809654e+01	0.0	-6.180340e+00	-1.902113e+01	0.0	-3.747620e+00	-1.964575e+01	0.0	-1.255810e+00	-1.996053e+01	0.0	1.255810e+00	-1.996053e+01	0.0	3.747630e+00	-1.964574e+01	0.0	6.180340e+00	-1.902113e+01	0.0	8.515590e+00	-1.809654e+01	0.0	1.071654e+01	-1.688656e+01	0.0	1.274848e+01	-1.541026e+01	0.0	1.457937e+01	-1.369094e+01	0.0	1.618034e+01	-1.175570e+01	0.0	1.752614e+01	-9.635070e+00	0.0	1.859553e+01	-7.362490e+00	0.0	1.937166e+01	-4.973790e+00	0.0	1.984229e+01	-2.506660e+00	0.0	2.000000e+01	0.000000e+00	0.0	6.070060e-02	-4.598218e-02	0.0	6.602525e-01	-5.584075e-02	0.0	4.257578e-01	6.597444e-02	0.0	6.897999e-01	5.028881e-02	0.0	3.792664e-01	-7.367575e-02	0.0	9.994626e-01	-7.224583e-04	0.0	9.985473e-01	-1.318204e-03	0.0	7.737538e-01	-4.280546e-02	0.0	6.898923e-01	-5.274455e-02	0.0	-1.350336e-03	6.207826e-03	0.0	7.467496e-01	-4.620298e-02	0.0	5.834585e-01	5.923573e-02	0.0	9.927843e-01	-3.625771e-03	0.0	9.898867e-01	-4.539365e-03	0.0	5.990215e-01	5.815429e-02	0.0	7.187648e-01	-4.952027e-02	0.0	-1.556510e-03	7.250625e-04	0.0	9.864995e-01	-5.549698e-03	0.0	9.826314e-01	-6.649343e-03	0.0	-1.408821e-03	-6.450367e-03	0.0	6.451845e-01	-5.733344e-02	0.0	8.243697e-01	-3.590963e-02	0.0	7.996550e-01	-3.937395e-02	0.0	3.486677e-01	6.650756e-02	0.0	8.477678e-01	-3.246064e-02	0.0	2.474519e-01	6.399363e-02	0.0	8.697878e-01	-2.904050e-02	0.0	1.011384e-02	2.043166e-02	0.0	8.903230e-01	-2.568660e-02	0.0	7.698080e-02	-5.055150e-02	0.0	9.093006e-01	-2.243330e-02	0.0	-1.890425e-03	-3.183357e-03	0.0	9.422611e-01	-1.626505e-02	0.0	9.266395e-01	-1.929627e-02	0.0	1.790084e-02	-2.762779e-02	0.0	4.258995e-01	-7.236895e-02	0.0	8.589592e-01	-3.074245e-02	0.0	9.561159e-01	-1.331906e-02	0.0	9.782759e-01	-7.856198e-03	0.0	9.681411e-01	-1.047691e-02	0.0	1.582506e-01	-6.506459e-02	0.0	9.000135e-01	-2.404597e-02	0.0	7.603844e-01	-4.451158e-02	0.0	9.971240e-01	-2.058783e-03	0.0	5.991703e-01	-6.154848e-02	0.0	4.416049e-01	-7.175553e-02	0.0	5.364754e-01	-6.642913e-02	0.0	4.731795e-01	-7.028142e-02	0.0	5.048393e-01	-6.849806e-02	0.0	4.889980e-01	-6.942631e-02	0.0	1.249203e-01	-6.036725e-02	0.0	2.780067e-02	-3.322498e-02	0.0	3.947181e-01	-7.333265e-02	0.0	4.617705e-02	-4.110308e-02	0.0	4.102638e-01	-7.289682e-02	0.0	3.188243e-01	-7.407649e-02	0.0	3.487408e-01	-7.407925e-02	0.0	3.346513e-02	-3.590872e-02	0.0	2.895988e-01	-7.366238e-02	0.0	9.346692e-01	-1.776768e-02	0.0	1.467856e-01	-6.359979e-02	0.0	1.946553e-01	-6.880351e-02	0.0	8.575607e-02	-5.270530e-02	0.0	1.045511e-01	-5.673866e-02	0.0	5.679638e-01	-6.411055e-02	0.0	1.700604e-01	-6.642336e-02	0.0	6.146352e-01	-6.018747e-02	0.0	8.802495e-01	-2.735415e-02	0.0	2.262328e-02	-3.046292e-02	0.0	9.952021e-01	-2.813261e-03	0.0	6.675945e-03	-1.884104e-02	0.0	1.812247e-02	2.562231e-02	0.0	9.181785e-01	-2.085005e-02	0.0	9.49416
[...]
POINT_DATA 5233

SCALARS Conservative_1 float 1
LOOKUP_TABLE default
4.927537e+00	1.740963e+00	1.487852e+00	1.322071e+00	1.098842e+00	9.688765e-01	8.757603e-01	8.105867e-01	7.698877e-01	7.470428e-01	7.358985e-01	7.295635e-01	7.220014e-01	7.100515e-01	6.929463e-01	6.727841e-01	6.526306e-01	6.344239e-01	6.204612e-01	6.099782e-01	6.030727e-01	5.985789e-01	5.957359e-01	5.941213e-01	5.932016e-01	5.927963e-01	5.930942e-01	5.935592e-01	5.948368e-01	5.965601e-01	5.987715e-01	6.019191e-01	6.050365e-01	6.092030e-01	6.134616e-01	6.186786e-01	6.239434e-01	6.301510e-01	6.364482e-01	6.436756e-01	6.510104e-01	6.592798e-01	6.677058e-01	6.770087e-01	6.865650e-01	6.969435e-01	7.076740e-01	7.190951e-01	7.309930e-01	7.435462e-01	7.567314e-01	7.704605e-01	7.839044e-01	7.955628e-01	8.050205e-01	8.135297e-01	8.258664e-01	8.468254e-01	8.770778e-01	9.094467e-01	9.361728e-01	9.560999e-01	9.749804e-01	9.991907e-01	1.032170e+00	1.073194e+00	1.115625e+00	1.146017e+00	1.147342e+00	1.109223e+00	1.037953e+00	9.564383e-01	8.915420e-01	8.551005e-01	8.390311e-01	8.254524e-01	8.023916e-01	7.699872e-01	7.334410e-01	6.966824e-01	6.593551e-01	6.200225e-01	5.779056e-01	5.329579e-01	4.849398e-01	4.334047e-01	3.779263e-01	3.177529e-01	2.524449e-01	1.812383e-01	1.037970e-01	1.972367e-02	-7.046853e-02	-1.648411e-01	-2.594724e-01	-3.473923e-01	-4.206350e-01	-4.569862e-01	-4.390423e-01	-4.117794e-01	-4.028200e-01	-3.892309e-01	-3.621004e-01	-3.325764e-01	-3.007978e-01	-2.737507e-01	-2.515040e-01	-2.136364e-01	-1.674345e-01	-1.920081e-01	-3.227392e-01	-4.174898e-01	-2.816438e-01	8.056293e-02	4.524944e-01	6.365684e-01	6.113119e-01	4.747838e-01	3.192455e-01	1.808421e-01	6.163482e-02	-4.341138e-02	-1.360960e-01	-2.172487e-01	-2.864479e-01	-3.443618e-01	-3.936749e-01	-4.374464e-01	-4.777637e-01	-5.150831e-01	-5.491949e-01	-5.803309e-01	-6.086826e-01	-6.345773e-01	-6.580483e-01	-6.791276e-01	-6.977224e-01	-7.146219e-01	-7.303791e-01	-7.464973e-01	-7.627799e-01	-7.786955e-01	-7.920675e-01	-8.032398e-01	-8.121429e-01	-8.205882e-01	-8.293031e-01	-8.380015e-01	-8.467343e-01	-8.548593e-01	-8.590866e-01	-8.388631e-01	-7.622081e-01	-6.362543e-01	-5.246788e-01	-4.812525e-01	-4.879364e-01	-5.056746e-01	-5.193778e-01	-5.305647e-01	-5.418847e-01	-5.526342e-01	-5.635227e-01	-5.734777e-01	-5.839990e-01	-5.939713e-01	-6.048204e-01	-6.151564e-01	-6.263536e-01	-6.371679e-01	-6.489982e-01	-6.605783e-01	-6.733558e-01	-6.859474e-01	-6.997290e-01	-7.140769e-01	-7.292140e-01	-7.454658e-01	-7.626935e-01	-7.809024e-01	-8.004611e-01	-8.208749e-01	-8.430463e-01	-8.665390e-01	-8.930109e-01	-9.230158e-01	-9.586370e-01	-1.000981e+00	-1.051581e+00	-1.110980e+00	-1.180342e+00	-1.259370e+00	-1.350744e+00	-1.456853e+00	-1.580928e+00	-1.778341e+00	-1.923266e+00	-2.003201e+00	-4.769869e+00	-2.582958e-02	-1.847252e-03	-1.892241e-03	-1.937355e-03	-1.996547e-03	-2.081238e-03	-2.161784e-03	-2.265302e-03	-2.305432e-03	-2.243524e-03	-2.277227e-03	-2.396923e-03	-2.422985e-03	-2.342049e-03	-1.929491e-03	-1.469479e-03	-1.193141e-03	-9.457870e-04	-8.189438e-04	-6.738945e-04	-4.218758e-04	-3.012179e-04	-4.465316e-06	2.007824e-03	-8.594916e-04	-4.165391e-03	1.375684e-03	3.066567e-03	2.068206e-03	1.540716e-03	1.759972e-03	1.975238e-03	2.242070e-03	2.456734e-03	2.557458e-03	2.547747e-03	2.289271e-03	1.695274e-03	9.244363e-04	7.551064e-05	-4.337673e-04	-8.071118e-04	-1.130221e-03	-1.348241e-03	-1.511516e-03	-1.610836e-03	-1.674633e-03	-1.722753e-03	-1.762198e-03	-1.774376e-03	-1.819809e-03	4.619265e-01	4.888161e-01	-5.663004e-01	-4.093557e-01	6.850990e-01	2.930677e+00	1.715335e+00	4.432201e-01	4.747545e-01	-3.798723e-01	4.519493e-01	-3.603952e-01	8.538375e-01	7.392755e-01	-3.644703e-01	4.624525e-01	-4.028972e-01	6.580143e-01	6.035747e-01	-4.229085e-01	4.964139e-01	4.312591e-01	4.361581e-01	-5.298536e-01	4.282671e-01	-4.307987e-01	4.273229e-01	-2.440601e-01	4.300183e-01	5.385841e-01	4.395035e-01	-4.358772e-01	4.858922e-01	4.588991e-01	8.138226e-02	6.508783e-01	4.274625e-01	5.105989e-01	5.676164e-01	5.310391e-01	7.363146e-01	4.337191e-01	4.472614e-01	1.312472e+00	5.222882e-01	6.387147e-01	5.634514e-01	6.126675e-01	5.871966e-01	5.997144e-01	6.947549e-01	2.120665e-01	6.725802e-01	3.732285e-01	6.618332e-01	7.709842e-01	7.233533e-01	2.701889e-01	8.187244e-01	4.720575e-01	7.180234e-01	9.266417e-01	5.727128e-01	6.380188e-01	5.418013e-01	7.805298e-01	5.131722e-01	4.280524e-01	1.491185e-01	1.033280e+00	-1.489183e-01	-1.509025e-01	4.480414e-01	4.990515e-01	5.451013e-01	-3.557149e-01	4.295691e-01	9.370043e-01	5.522935e-01	4.568669e-01	4.394038e-01	6.695408e-01	9.974017e-01	5.317196e-01	4.814692e-01	4.191308e-01	-2.295021e-01	8.442222e-03	7.018113e-01	8.506352e-01	4.107797e+00	9.777835e-01	6.053839e-01	7.934764e-01	8.913139e-01	6.257967e-01	4.682899e-01	-3.954754e-01	-3.732544e-01	-4.921744e-01	-4.167034e-01	-3.381878e-01	5.970540e-01	-1.122547e-01	3.771077e-02	-5.630131e-01	-1.771286e+00	-5.517549e-01	-5.741172e-01	-8.647066e-01	-7.805496e-01	-5.800940e-01	-5.774045e-01	-5.687389e-01	-5.506414e-01	-6.497061e-01	-6.125231e-01	4.868395e-01	-9.191516e-01	-7.474455e-01	-6.934207e-01	2.327110e-01	6.958541e-01	-4.833692e-01	-4.506854e-01	-2.578470e-01	-5.079525e-01	-5.712244e-01	-5.580052e-01	-1.695785e-01	-4.257651e-02	-3.787434e-01	-3.272059e-01	-3.844113e-01	-3.938265e-01	-3.710625e-01	-4.425037e-01	-4.254138e-01	-4.807098e-01	-4.609583e-01	-5.256080e-01	-5.021864e-01	-5.958447e-01	-5.513822e-01	-7.188433e-01	-6.305360e-01	-8.192176e-01	-5.381628e-01	-5.653211e-01	-4.913963e-01	-5.137685e-01	-4.517414e-01	-4.707872e-01	-4.174270e-01	-4.339531e-01	-3.862654e-01	-4.017076e-01	-4.142354e-01	-3.713513e-01	-3.573279e-01	-4.087939e-01	-2.173058e-01	-2.940631e-01	2.842974e-01	-1.116870e-01	-1.925272e-01	-3.543359e-01	9.810745e-01	-2.984268e-01	5.205680e-01	4.335284e-01	7.476192e-01	5.750794e-01	-3.281605e-01	-2.065505e-01	-2.723631e-01	3.510765e-01	6.239039e-01	-4.682101e-01	1.292346e-01	-9.850618e-01	-1.064884e+00	-4.963141e-01	-1.166735e+00	-1.295805e+00	-5.188603e-01	-5.407131e-01	-6.707426e-01	-4.516407e+00	-2.177267e+00	-3.291885e+00	5.046578e-01	3.237967e-01	-1.481243e+00	-5.751363e-01	-3.056361e-01	-6.879502e-02	5.016946e-01	7.094366e-01	8.508357e-01	6.268912e-01	-3.707564e-01	-3.872567e-01	6.787357e-01	3.417629e-01	3.093648e-01	-1.370900e-01	-2.389958e-01	3.480578e-01	3.113463e-01	5.659250e-01	5.936915e-01	2.965645e-01	2.994432e-01	4.848097e-01	-3.750284e-01	8.452999e-01	-4.313675e-03	3.725058e-01	6.001062e-01	3.355552e-01	3.621522e-01	4.944338e-01	4.556175e-01	5.423776e-01	2.995842e-01	3.075408e-01	-2.625622e-01	-1.546577e-01	-2.752764e-01	-3.884170e-01	2.021116e-01	-2.813511e-01	-9.093631e-02	-4.261101e-01	-9.464333e-01	-3.231678e-01	-2.860888e-01	-5.956079e-01	-4.401526e-01	-1.048711e+00	-6.241918e-01	-7.960269e-01	-2.444788e-01	-3.161844e-01	-2.256696e-01	2.919372e-01	3.550550e-01	8.121670e-01	-2.258569e-01	-2.689993e-03	4.530877e-01	-6.952412e-01	-1.177958e+00	-4.548918e-01	6.258655e-01	-1.284827e+00	-1.579328e+00	-1.350474e+00	-2.917669e-01	-3.484008e-01	-2.049494e-01	-4.165441e-01	-4.050137e-01	5.815426e-02	6.183289e-01	3.898301e-01	1.146870e+00	7.652391e-01	-3.435655e-01	4.244619e-01	5.031351e-01	2.960526e-01	-2.553811e-01	6.495990e-01	-4.084114e-01	5.073142e-01	-3.425187e-01	2.977052e-01	-2.883338e-01	2.958507e-01	2.972600e-01	4.240720e-01	3.037407e-01	3.173742e-01	3.488344e-01	1.715917e-01	3.603400e-01	3.860409e-01	4.584315e-01	5.833873e-01	3.199991e-01	3.153045e-01	9.247093e-01	4.820724e-01	4.700767e-01	4.581460e-01	1.164592e-01	5.320532e-01	5.200329e-01	5.742931e-01	2.690164e-01	3.266741e-01	3.374570e-01	5.914079e-01	5.132566e-01	4.140933e-01	3.864004e-01	4.029739e-01	4.258384e-01	3.299535e-01	3.245480e-01	5.414553e-01	5.666763e-01	4.044594e-01	3.950959e-01	3.121654e-01	3.525911e-01	-6.998304e-02	5.607610e-01	5.513590e-01	6.787074e-01	7.489277e-01	8.407497e-01	8.076893e-01	6.462863e-01	6.182069e-01	7.622039e-01	-3.970663e-01	-2.685381e-01	8.912585e-02	-8.627314e-01	-2.350719e-01	-3.248552e-01	-3.428682e-01	-3.467377e-01	-7.405708e-01	-6.570933e-01	-5.061372e-01	-3.452709e-01	-3.442149e-01	-3.401007e-01	-4.877095e-01	-5.699135e-01	7.128627e-01	6.790443e-01	-2.611526e-01	-2.759616e-01	-5.109721e-02	5.503263e-02	1.230857e-01	-3.456071e-01	-3.098635e-01	-3.017654e-01	-3.358868e-01	-3.768896e-01	-4.708966e-01	-4.128480e-01	-4.003783e-01	-3.662956e-01	-3.553565e-01	-3.270025e-01	-3.179601e-01	-2.946266e-01	-2.874626e-01	-2.699010e-01	-2.646330e-01	-2.141632e-01	-2.038486e-01	-2.610475e-01	-2.590634e-01	-2.045375e-01	-1.806391e-01	-1.539738e-01	-1.244302e-01	-1.738101e-01	-2.171190e-01	-3.046420e-01	3.042600e-01	3.017988e-01	4.465351e-01	4.352571e-01	-3.214389e-01	-2.242622e-01	3.932107e-01	5.069512e-01	-3.079586e-01	-2.989529e-01	-3.352692e-01	-3.295965e-01	-5.470300e-01	-5.255836e-01	3.778546e-01	3.699355e-01	2.223636e-01	-3.265523e-01	7.173040e-01	-3.650411e-01	4.370137e-01	5.366434e-01	2.448527e-01	3.420840e-01	2.615924e-01	-9.069582e-01	-8.330615e-01	-5.969232e-01	-3.116663e-01	-9.861400e-01	-2.059165e+00	-2.004663e+00	8.136759e-01	-2.938464e-01	3.439518e-02	-3.937509e-01	3.985774e-01	2.708037e-01	5.305204e-01	-1.593620e-01	1.626582e+00	-1.860204e-01	2.668460e-01	-2.894677e-01	2.622205e-01	-1.777895e-02	2.394603e-01	-1.295329e-01	4.586101e-01	2.384691e-01	2.718191e-01	5.950811e-01	-7.310215e-02	-7.167974e-01	-8.066797e-02	-5.394382e-01	-2.070524e-01	-1.100690e+00	-1.188518e-01	-1.437220e-01	-1.805912e-01	5.227987e-02	7.032466e-01	-2.188393e+00	-3.305264e-01	-3.616597e-01	-1.651237e-01	-3.796170e-01	3.313461e-01	3.736089e-01	-4.069702e-01	4.989585e-01	3.923264e-01	8.416499e-02	-2.471388e-01	-3.286025e-01	-2.831325e-01	-2.131786e-01	-7.704111e-01	-5.666618e-01	-3.989294e-01	-3.832964e-01	-1.729529e-01	-1.543703e-01	-1.008132e-01	3.504068e-01	2.828264e-01	2.770776e-01	6.994974e-01	-2.074369e-01	9.561593e-02	-6.704493e-01	-1.233280e+00	-2.803619e-01	-3.393845e-01	-2.401708e-01	-3.980907e-01	1.314975e-01	1.467030e+00	1.749753e+00	3.481167e-01	4.744645e-01	-1.836664e-01	4.035592e-01	-1.989011e-01	2.385702e-01	2.379465e-01	2.414264e-01	2.445929e-01	3.178362e-01	3.468526e-01	2.487025e-01	2.548861e-01	3.041498e-01	3.168980e-01	4.301992e-01	2.508672e-01	2.473872e-01	6.929969e-01	3.818742e-01	3.717297e-01	4.272070e-01	4.153900e-01	1.743672e-01	2.811197e-01	2.920266e-01	4.772580e-01	4.843287e-01	3.331888e-01	3.247568e-01	3.687490e-01	3.957188e-01	2.576779e-01	2.541926e-01	4.232997e-01	4.471918e-01	4.664594e-01	3.168382e-01	3.092973e-01	2.139779e-01	2.513702e-01	2.864103e-01	4.498400e-01	4.466144e-01	4.434959e-01	5.334369e-01	5.899986e-01	6.531744e-01	7.137081e-01	6.957691e-01	5.040382e-01	4.770806e-01	6.578426e-01	2.416918e-01	-1.648701e-01	-1.939036e-01	-6.312390e-01	-2.040077e-01	-2.048726e-01	-2.019981e-01	-1.961160e-01	-4.510138e-01	6.951695e-01	5.373827e-01	-1.311952e-01	-1.169770e-01	1.456899e-01	2.034679e-01	2.718422e-01	-2.437671e-01	-4.327298e-01	-4.150557e-01	-3.687600e-01	-3.548829e-01	-3.415217e-01	-3.172559e-01	-3.049201e-01	-2.932423e-01	-2.724224e-01	-2.625811e-01	-2.526718e-01	-2.349927e-01	-2.272129e-01	-2.196583e-01	-2.018458e-01	-1.171658e-01	-7.800818e-02	-1.972694e-01	-1.946763e-01	-1.918612e-01	-8.258517e-02	-6.184176e-02	-3.864295e-02	-1.310702e-02	1.643914e-02	-5.787034e-02	-2.100891e-01	2.421864e-01	2.404706e-01	2.394154e-01	3.613840e-01	3.514875e-01	-2.028628e-01	-1.582041e-01	4.377438e-01	5.322255e-01	6.289795e-01	-1.642416e-01	-1.929216e-01	-1.897987e-01	-1.859440e-01	-5.149945e-01	-4.921031e-01	-4.713136e-01	3.021382e-01	2.953429e-01	2.888732e-01	6.142631e-01	5.730367e-01	-3.168054e-01	3.216848e-01	-1.000266e+00	-7.067762e-01	3.001790e-01	-3.830711e-01	8.811549e-01	2.514344e-01	2.608927e-01	9.327888e-02	-8.659939e-01	-5.596524e-02	-2.882098e-01	-1.916838e-01	-1.675646e-01	-5.676360e-01	-9.244534e-01	-3.500881e-01	-1.871674e-01	-3.264653e-01	-8.029705e-01	2.731007e-01	2.265701e-01	4.239417e-01	1.244967e-02	3.769538e-01	2.996538e-01	3.493773e-01	4.386620e-01	-7.528614e-01	-1.382931e-01	-5.414490e-01	-5.177844e-01	-2.711844e-01	1.647461e-01	-6.139812e-02	4.410997e-01	6.716790e-01	2.262175e-01	-1.308737e+00	-8.057780e-01	5.850065e-01	3.310855e-01	-3.026436e-02	2.454198e-01	-2.125510e-01	2.423547e-01	2.382015e-01	-7.499049e-02	4.855030e-01	-1.218138e-01	-3.170711e-01	-2.616483e-02	-9.993245e-02	-3.693846e-01	-2.308637e-01	-1.961837e-01	-3.872287e-01	-1.102147e-01	-8.765569e-02	-7.527445e-02	2.537134e-01	2.500342e-01	-6.650960e-01	-2.654577e-01	-2.978854e-01	-2.537829e-01	-3.613464e-01	5.446633e-02	3.155799e-01	4.039049e-01	-1.600435e-01	2.247190e-01	2.246356e-01	2.277741e-01	2.305990e-01	2.512294e-01	2.762594e-01	2.341950e-01	2.396364e-01	2.454097e-01	2.907819e-01	3.023460e-01	2.303921e-01	2.288288e-01	5.272201e-01	3.408329e-01	3.327415e-01	3.684754e-01	3.586753e-01	2.703175e-01	2.799254e-01	3.893811e-01	4.009909e-01	2.933406e-01	3.502772e-01	3.744813e-01	2.361126e-01	2.337142e-01	3.435100e-01	3.645448e-01	3.803636e-01	2.865132e-01	2.806225e-01	1.283620e-01	1.620098e-01	1.946469e-01	2.244436e-01	3.839803e-01	3.833892e-01	3.843867e-01	3.825505e-01	4.649149e-01	5.199464e-01	5.726424e-01	6.033493e-01	6.052810e-01	3.918837e-01	4.104094e-01	5.826294e-01	-9.519341e-02	-6.286156e-01	-5.964941e-01	-1.278244e-01	-1.468547e-01	-1.518539e-01	-1.479508e-01	-1.409301e-01	5.531346e-01	3.180562e-01	-4.673561e-02	-2.995106e-02	2.125785e-01	2.643606e-01	3.251154e-01	3.952915e-01	-4.363927e-01	-4.191986e-01	-4.027646e-01	-3.722347e-01	-3.579322e-01	-3.440471e-01	-3.299055e-01	-3.071360e-01	-2.924186e-01	-2.803987e-01	-2.579589e-01	-2.491957e-01	-2.367227e-01	-2.292701e-01	-2.178084e-01	-2.115729e-01	-2.011629e-01	-5.356712e-02	-8.953877e-02	-1.836323e-01	-1.766191e-01	-1.746132e-01	-1.672112e-01	-1.169507e-02	9.249987e-03	3.254635e-02	5.798916e-02	8.730137e-02	1.226054e-01	5.747507e-02	-1.087747e-01	2.254887e-01	2.248562e-01	2.250061e-01	3.237383e-01	3.158096e-01	3.076017e-01	-1.492993e-01	-1.400163e-01	-1.536464e-01	4.716703e-01	5.507193e-01	6.261707e-01	6.793875e-01	-1.344212e-01	-1.286513e-01	-1.247690e-01	-1.190711e-01	-4.552680e-01	-4.951912e-01	-4.750550e-01	2.743074e-01	2.692055e-01	2.633755e-01	2.589997e-01	5.466241e-01	5.085284e-01	4.716453e-01	-7.828683e-02	-8.919671e-01	2.906230e-01	-1.609885e+00	-1.159519e-01	2.341267e-01	2.612243e-01	-1.527944e-01	-6.444564e-01	-2.231072e-01	2.654602e-02	3.773600e-01	2.477738e-01	-2.134635e-01	-3.109765e-01	-3.741304e-01	-3.984468e-01	-3.994995e-01	-3.930223e-01	-2.538678e-01	4.839801e-01	-9.093697e-02	3.040895e-01	3.857388e-01	2.450132e-01	2.213377e-01	3.499866e-01	-7.954611e-01	-4.381894e-01	-4.899260e-01	-1.328196e-01	-7.344753e-02	-1.956617e-01	-2.639889e-01	-6.198001e-02	2.917823e-01	-1.001678e-01	-7.583470e-01	2.405534e-01	-1.509786e+00	-6.795806e-01	-3.957755e-01	1.096295e+00	1.061764e+00	2.402586e-01	5.725052e-02	-2.744352e-01	-1.750218e-01	-1.891669e-01	-5.330265e-01	-3.364006e-01	-6.392894e-01	4.181273e-02	-4.324306e-02	3.644231e-01	3.840355e-01	-7.158968e-01	-1.664027e-01	-5.111139e-01	3.588830e-01	2.409289e-01	-3.567070e-01	-7.487656e-02	-6.217369e-02	-4.406051e-02	2.491715e-01	-2.487539e-01	-2.814571e-01	-3.102899e-01	-7.926065e-03	2.155762e-01	2.177813e-01	2.166097e-01	2.199579e-01	2.183148e-01	1.950267e-01	2.199566e-01	2.259462e-01	2.278270e-01	2.314844e-01	2.691704e-01	2.792366e-01	2.255722e-01	4.076546e-01	3.287257e-01	3.222364e-01	3.436276e-01	3.353132e-01	2.521904e-01	2.602113e-01	3.284668e-01	3.505230e-01	3.199904e-01	3.385901e-01	2.290057e-01	2.838354e-01	3.094172e-01	3.160050e-01	2.795916e-01	8.638688e-02	1.158413e-01	1.443114e-01	1.709435e-01	3.558898e-01	3.549166e-01	3.566801e-01	3.585107e-01	3.556502e-01	4.274629e-01	4.733340e-01	5.230170e-01	5.340493e-01	5.368377e-01	-6.124002e-01	-5.834021e-01	-5.571952e-01	-8.121212e-02	-1.130336e-01	-1.392260e-01	-1.478257e-01	-1.436911e-01	5.264513e-01	3.407214e-01	-2.917465e-02	-9.426048e-03	2.921962e-01	3.474002e-01	4.153370e-01	-4.195167e-01	-4.058928e-01	-3.894364e-01	-3.770356e-01	-3.618249e-01	-3.502060e-01	-3.358000e-01	-3.190137e-01	-3.013213e-01	-2.841020e-01	-2.438103e-01	-2.257856e-01	-2.096819e-01	-1.841581e-01	-1.745035e-01	9.136800e-03	3.219828e-02	5.682676e-02	8.427417e-02	1.138660e-01	1.531139e-01	1.962255e-01	1.259820e-01	-2.993749e-02	2.176418e-01	2.188399e-01	2.169250e-01	3.144704e-01	3.047308e-01	-9.460037e-02	-1.133189e-01	-1.378727e-01	4.835361e-01	5.494386e-01	6.069460e-01	6.385706e-01	6.215633e-01	-1.381291e-01	-1.242572e-01	-1.209884e-01	-1.127262e-01	-4.705260e-01	-4.528308e-01	2.684909e-01	2.583901e-01	5.076895e-01	4.799880e-01	4.434238e-01	4.127072e-01	1.098136e+00	-1.523946e+00	-1.407731e-01	-3.846166e-01	3.762149e-01	2.694343e-01	-6.693703e-01	-3.420256e-01	-5.174505e-01	4.636615e-01	2.908624e-01	-2.540116e-01	1.693380e-03	-1.117008e-01	-1.115573e-01	-9.539585e-01	-2.310740e-01	-3.199689e-01	-8.272660e-02	2.599412e-01	2.877538e-01	-6.389615e-01	3.557189e-01	2.237386e-01	2.178489e-01	2.524956e-01	2.218243e-01	3.804816e-01	-2.226701e-01	3.325760e-01	1.762177e-01	1.979050e-01	3.213361e-01	-5.860101e-01	-4.206614e-01	-3.613803e-01	-1.961051e-01	2.513378e-01	-1.447111e+00	-6.116619e-01	-3.924374e-01	-2.391995e-01	3.044885e-01	2.188946e-01	-9.991206e-02	-8.370140e-02	-7.010486e-01	-2.965833e-01	-8.839062e-01	-3.679889e-01	9.719423e-01	2.680991e-02	-1.962790e-01	-1.694748e-01	-1.733393e-01	-2.586257e-02	-4.974230e-01	-4.778406e-01	-1.481449e-01	-8.468830e-02	-5.183301e-02	2.250530e-01	-2.636774e-01	-2.935808e-01	-5.510953e-02	2.016040e-01	2.027796e-01	1.526625e-01	2.068850e-01	2.092983e-01	2.432142e-01	3.196277e-01	3.204317e-01	2.293193e-01	2.360057e-01	3.095001e-01	2.797404e-01	2.138537e-01	2.091409e-01	2.581721e-01	2.751453e-01	2.753023e-01	5.257112e-02	7.954569e-02	1.099360e-01	1.287375e-01	3.456475e-01	3.462314e-01	3.409033e-01	4.632130e-01	4.888401e-01	-5.618057e-01	-5.390777e-01	-1.236539e-01	-1.504666e-01	3.340390e-01	-1.335417e-02	4.028699e-01	-2.853313e-01	-3.915617e-01	-3.641235e-01	-3.393481e-01	-3.178817e-01	-3.012774e-01	-2.681841e-01	-2.495229e-01	-2.319965e-01	-2.166333e-01	-2.031539e-01	-1.917944e-01	-1.831079e-01	-1.783993e-01	3.397335e-02	9.088095e-02	1.497435e-01	1.952122e-01	2.473497e-01	1.558888e-01	2.356168e-02	2.050349e-01	2.043568e-01	2.012104e-01	3.094005e-01	2.993883e-01	-4.803187e-02	-8.549793e-02	-1.214926e-01	-1.596610e-01	4.681884e-01	5.225724e-01	5.637530e-01	5.792735e-01	5.476657e-01	4.920478e-01	-1.442724e-01	-1.321939e-01	-4.621795e-01	-4.430243e-01	2.634356e-01	2.423863e-01	2.330439e-01	4.519707e-01	3.955121e-01	-7.158483e-01	8.810025e-01	8.615239e-01	-9.557104e-01	6.880746e-02	-6.313080e-01	-5.791683e-01	3.944338e-01	-1.534963e-01	-8.737518e-02	5.272098e-01	3.223311e-01	-2.458294e-01	-3.459237e-01	-2.127427e-01	-5.151478e-01	2.017307e-01	-1.292345e-01	-8.066286e-01	1.899558e-01	-4.040403e-02	3.521236e-01	-2.141245e-01	-1.315713e-01	3.202633e-01	2.024917e-01	2.323626e-01	2.661322e-01	2.233735e-01	2.283914e-01	-1.813247e-02	4.723767e-03	-1.178730e+00	-5.749969e-01	-5.962253e-01	-4.807821e-01	-7.610213e-02	-1.754539e-01	2.142905e-01	1.272713e-01	-1.303976e+00	-1.336052e+00	-3.920426e-01	2.186265e-01	-4.978066e-01	7.483165e-03	2.351084e-01	-3.250222e-01	-1.093844e-01	2.781305e-01	-2.087014e-01	1.453577e-01	1.698109e-01	-5.529728e-01	-3.752233e-01	2.143738e-01	2.391732e-01	2.073352e-01	-3.195570e-01	6.502675e-01	9.956793e-02	-1.942301e-01	-1.733343e-01	-1.481816e-01	-6.479055e-02	-4.637843e-01	-1.712852e-01	-1.052674e-01	-1.777852e-01	-2.751411e-01	-3.015817e-01	1.856189e-01	1.872567e-01	1.934453e-01	1.985499e-01	2.554524e-01	3.098205e-01	2.062583e-01	2.101808e-01	3.280409e-01	1.891904e-01	1.873379e-01	1.968243e-01	2.006766e-01	2.300000e-01	2.534546e-01	2.971422e-02	3.356766e-01	3.312072e-01	3.014666e-01	3.791636e-01	2.227982e-01	-5.335049e-01	-1.042133e-01	-8.807998e-02	3.672220e-01	-3.898940e-01	-3.639025e-01	-2.843443e-01	-3.393236e-01	-3.179958e-01	-3.000707e-01	-2.685055e-01	-2.512433e-01	-2.337799e-01	-2.178787e-01	-2.040627e-01	-1.922610e-01	-1.832022e-01	-4.139987e-02	2.507180e-03	5.819025e-02	1.249072e-01	2.045403e-01	2.915624e-01	1.624911e-01	4.68522