# vtk DataFile Version 3.0
vtk output
ASCII
DATASET UNSTRUCTURED_GRID
POINTS 200 float
9.997500e-01	-3.633002e-05	0.0	9.990000e-01	-1.453200e-04	0.0	9.977600e-01	-3.258377e-04	0.0	9.960200e-01	-5.809184e-04	0.0	9.937800e-01	-9.145818e-04	0.0	9.910500e-01	-1.332385e-03	0.0	9.878400e-01	-1.842074e-03	0.0	9.841300e-01	-2.456016e-03	0.0	9.799500e-01	-3.174228e-03	0.0	9.752800e-01	-3.996973e-03	0.0	9.701500e-01	-4.906157e-03	0.0	9.645400e-01	-5.884991e-03	0.0	9.584700e-01	-6.907636e-03	0.0	9.519400e-01	-7.956252e-03	0.0	9.449600e-01	-9.020397e-03	0.0	9.375400e-01	-1.009949e-02	0.0	9.296900e-01	-1.119993e-02	0.0	9.214000e-01	-1.233331e-02	0.0	9.127000e-01	-1.350419e-02	0.0	9.035800e-01	-1.471888e-02	0.0	8.940600e-01	-1.597567e-02	0.0	8.841500e-01	-1.727125e-02	0.0	8.738500e-01	-1.860209e-02	0.0	8.631800e-01	-1.996172e-02	0.0	8.521600e-01	-2.134424e-02	0.0	8.407700e-01	-2.274939e-02	0.0	8.290500e-01	-2.417011e-02	0.0	8.170100e-01	-2.560356e-02	0.0	8.046400e-01	-2.704947e-02	0.0	7.919700e-01	-2.850295e-02	0.0	7.790100e-01	-2.996145e-02	0.0	7.657800e-01	-3.142130e-02	0.0	7.522800e-01	-3.288097e-02	0.0	7.385200e-01	-3.433775e-02	0.0	7.245300e-01	-3.578681e-02	0.0	7.103200e-01	-3.722547e-02	0.0	6.958900e-01	-3.865200e-02	0.0	6.812700e-01	-4.006166e-02	0.0	6.664700e-01	-4.145173e-02	0.0	6.515000e-01	-4.281945e-02	0.0	6.363800e-01	-4.416114e-02	0.0	6.211300e-01	-4.547315e-02	0.0	6.057600e-01	-4.675273e-02	0.0	5.902800e-01	-4.799705e-02	0.0	5.747100e-01	-4.920246e-02	0.0	5.590600e-01	-5.036610e-02	0.0	5.433600e-01	-5.148363e-02	0.0	5.276100e-01	-5.255291e-02	0.0	5.118400e-01	-5.356971e-02	0.0	4.960500e-01	-5.453176e-02	0.0	4.802700e-01	-5.543497e-02	0.0	4.645100e-01	-5.627648e-02	0.0	4.487800e-01	-5.705341e-02	0.0	4.331100e-01	-5.776196e-02	0.0	4.175000e-01	-5.839980e-02	0.0	4.019700e-01	-5.896371e-02	0.0	3.865400e-01	-5.945066e-02	0.0	3.712300e-01	-5.985778e-02	0.0	3.560400e-01	-6.018284e-02	0.0	3.409900e-01	-6.042312e-02	0.0	3.261100e-01	-6.057610e-02	0.0	3.114000e-01	-6.063983e-02	0.0	2.968700e-01	-6.061225e-02	0.0	2.825500e-01	-6.049160e-02	0.0	2.684500e-01	-6.027639e-02	0.0	2.545700e-01	-5.996503e-02	0.0	2.409400e-01	-5.955673e-02	0.0	2.275700e-01	-5.905066e-02	0.0	2.144700e-01	-5.844615e-02	0.0	2.016600e-01	-5.774331e-02	0.0	1.891400e-01	-5.694141e-02	0.0	1.769300e-01	-5.604113e-02	0.0	1.650400e-01	-5.504286e-02	0.0	1.534900e-01	-5.394817e-02	0.0	1.422900e-01	-5.275825e-02	0.0	1.314400e-01	-5.147324e-02	0.0	1.209500e-01	-5.009443e-02	0.0	1.108500e-01	-4.862636e-02	0.0	1.011300e-01	-4.706827e-02	0.0	9.181000e-02	-4.542399e-02	0.0	8.290000e-02	-4.369625e-02	0.0	7.440000e-02	-4.188588e-02	0.0	6.633000e-02	-3.999809e-02	0.0	5.869000e-02	-3.803397e-02	0.0	5.149000e-02	-3.599698e-02	0.0	4.474000e-02	-3.389105e-02	0.0	3.844000e-02	-3.171703e-02	0.0	3.260000e-02	-2.947898e-02	0.0	2.723000e-02	-2.718171e-02	0.0	2.232000e-02	-2.482094e-02	0.0	1.790000e-02	-2.241177e-02	0.0	1.395000e-02	-1.994373e-02	0.0	1.049000e-02	-1.742873e-02	0.0	7.520000e-03	-1.486783e-02	0.0	5.040000e-03	-1.226115e-02	0.0	3.050000e-03	-9.606704e-03	0.0	1.560000e-03	-6.918667e-03	0.0	5.600000e-04	-4.173994e-03	0.0	6.000000e-05	-1.375585e-03	0.0	0.000000e+00	0.000000e+00	0.0	6.000000e-05	1.349433e-03	0.0	5.600000e-04	4.036337e-03	0.0	1.560000e-03	6.620779e-03	0.0	3.050000e-03	9.111763e-03	0.0	5.040000e-03	1.153676e-02	0.0	7.520000e-03	1.388692e-02	0.0	1.049000e-02	1.616747e-02	0.0	1.395000e-02	1.838119e-02	0.0	1.790000e-02	2.052968e-02	0.0	2.232000e-02	2.260510e-02	0.0	2.723000e-02	2.461877e-02	0.0	3.260000e-02	2.656005e-02	0.0	3.844000e-02	2.843481e-02	0.0	4.474000e-02	3.024114e-02	0.0	5.149000e-02	3.197779e-02	0.0	5.869000e-02	3.364612e-02	0.0	6.633000e-02	3.524494e-02	0.0	7.440000e-02	3.677343e-02	0.0	8.290000e-02	3.823266e-02	0.0	9.181000e-02	3.962033e-02	0.0	1.011300e-01	4.093763e-02	0.0	1.108500e-01	4.218416e-02	0.0	1.209500e-01	4.335859e-02	0.0	1.314400e-01	4.446317e-02	0.0	1.422900e-01	4.549582e-02	0.0	1.534900e-01	4.645698e-02	0.0	1.650400e-01	4.734787e-02	0.0	1.769300e-01	4.816878e-02	0.0	1.891400e-01	4.891949e-02	0.0	2.016600e-01	4.960064e-02	0.0	2.144700e-01	5.021240e-02	0.0	2.275700e-01	5.075599e-02	0.0	2.409400e-01	5.123167e-02	0.0	2.545700e-01	5.164020e-02	0.0	2.684500e-01	5.198226e-02	0.0	2.825500e-01	5.225813e-02	0.0	2.968700e-01	5.246877e-02	0.0	3.114000e-01	5.261475e-02	0.0	3.261100e-01	5.269647e-02	0.0	3.409900e-01	5.271453e-02	0.0	3.560400e-01	5.266934e-02	0.0	3.712300e-01	5.256127e-02	0.0	3.865400e-01	5.239076e-02	0.0	4.019700e-01	5.215789e-02	0.0	4.175000e-01	5.186290e-02	0.0	4.331100e-01	5.150601e-02	0.0	4.487800e-01	5.108749e-02	0.0	4.645100e-01	5.060701e-02	0.0	4.802700e-01	5.006508e-02	0.0	4.960500e-01	4.946166e-02	0.0	5.118400e-01	4.879665e-02	0.0	5.276100e-01	4.807093e-02	0.0	5.433600e-01	4.728415e-02	0.0	5.590600e-01	4.643756e-02	0.0	5.747100e-01	4.553100e-02	0.0	5.902800e-01	4.456625e-02	0.0	6.057600e-01	4.354422e-02	0.0	6.211300e-01	4.246676e-02	0.0	6.363800e-01	4.133539e-02	0.0	6.515000e-01	4.015193e-02	0.0	6.664700e-01	3.891935e-02	0.0	6.812700e-01	3.764114e-02	0.0	6.958900e-01	3.632040e-02	0.0	7.103200e-01	3.496057e-02	0.0	7.245300e-01	3.356749e-02	0.0	7.385200e-01	3.214451e-02	0.0	7.522800e-01	3.069628e-02	0.0	7.657800e-01	2.922994e-02	0.0	7.790100e-01	2.775091e-02	0.0	7.919700e-01	2.626366e-02	0.0	8.046400e-01	2.477512e-02	0.0	8.170100e-01	2.329119e-02	0.0	8.290500e-01	2.182024e-02	0.0	8.407700e-01	2.036562e-02	0.0	8.521600e-01	1.893272e-02	0.0	8.631800e-01	1.753017e-02	0.0	8.738500e-01	1.615817e-02	0.0	8.841500e-01	1.482111e-02	0.0	8.940600e-01	1.352272e-02	0.0	9.035800e-01	1.226394e-02	0.0	9.127000e-01	1.104789e-02	0.0	9.214000e-01	9.881019e-03	0.0	9.296900e-01	8.768671e-03	0.0	9.375400e-01	7.724209e-03	0.0	9.449600e-01	6.756617e-03	0.0	9.519400e-01	5.875409e-03	0.0	9.584700e-01	5.084335e-03	0.0	9.645400e-01	4.379104e-03	0.0	9.701500e-01	3.746911e-03	0.0	9.752800e-01	3.173517e-03	0.0	9.799500e-01	2.641773e-03	0.0	9.841300e-01	2.146233e-03	0.0	9.878400e-01	1.683394e-03	0.0	9.910500e-01	1.262353e-03	0.0	9.937800e-01	8.891852e-04	0.0	9.960200e-01	5.738785e-04	0.0	9.977600e-01	3.245327e-04	0.0	9.990000e-01	1.452010e-04	0.0	9.997500e-01	3.632813e-05	0.0	1.000000e+00	0.000000e+00	0.0	
CELLS 200	600
2	199	0	2	0	1	2	1	2	2	2	3	2	3	4	2	4	5	2	5	6	2	6	7	2	7	8	2	8	9	2	9	10	2	10	11	2	11	12	2	12	13	2	13	14	2	14	15	2	15	16	2	16	17	2	17	18	2	18	19	2	19	20	2	20	21	2	21	22	2	22	23	2	23	24	2	24	25	2	25	26	2	26	27	2	27	28	2	28	29	2	29	30	2	30	31	2	31	32	2	32	33	2	33	34	2	34	35	2	35	36	2	36	37	2	37	38	2	38	39	2	39	40	2	40	41	2	41	42	2	42	43	2	43	44	2	44	45	2	45	46	2	46	47	2	47	48	2	48	49	2	49	50	2	50	51	2	51	52	2	52	53	2	53	54	2	54	55	2	55	56	2	56	57	2	57	58	2	58	59	2	59	60	2	60	61	2	61	62	2	62	63	2	63	64	2	64	65	2	65	66	2	66	67	2	67	68	2	68	69	2	69	70	2	70	71	2	71	72	2	72	73	2	73	74	2	74	75	2	75	76	2	76	77	2	77	78	2	78	79	2	79	80	2	80	81	2	81	82	2	82	83	2	83	84	2	84	85	2	85	86	2	86	87	2	87	88	2	88	89	2	89	90	2	90	91	2	91	92	2	92	93	2	93	94	2	94	95	2	95	96	2	96	97	2	97	98	2	98	99	2	99	100	2	100	101	2	101	102	2	102	103	2	103	104	2	104	105	2	105	106	2	106	107	2	107	108	2	108	109	2	109	110	2	110	111	2	111	112	2	112	113	2	113	114	2	114	115	2	115	116	2	116	117	2	117	118	2	118	119	2	119	120	2	120	121	2	121	122	2	122	123	2	123	124	2	124	125	2	125	126	2	126	127	2	127	128	2	128	129	2	129	130	2	130	131	2	131	132	2	132	133	2	133	134	2	134	135	2	135	136	2	136	137	2	137	138	2	138	139	2	139	140	2	140	141	2	141	142	2	142	143	2	143	144	2	144	145	2	145	146	2	146	147	2	147	148	2	148	149	2	149	150	2	150	151	2	151	152	2	152	153	2	153	154	2	154	155	2	155	156	2	156	157	2	157	158	2	158	159	2	159	160	2	160	161	2	161	162	2	162	163	2	163	164	2	164	165	2	165	166	2	166	167	2	167	168	2	168	169	2	169	170	2	170	171	2	171	172	2	172	173	2	173	174	2	174	175	2	175	176	2	176	177	2	177	178	2	178	179	2	179	180	2	180	181	2	181	182	2	182	183	2	183	184	2	184	185	2	185	186	2	186	187	2	187	188	2	188	189	2	189	190	2	190	191	2	191	192	2	192	193	2	193	194	2	194	195	2	195	196	2	196	197	2	197	198	2	198	199	
CELL_TYPES 200
3	3	3	3	3	3	3	3	3	3	3	3	3	3	3	3	3	3	3	3	3	3	3	3	3	3	3	3	3	3	3	3	3	3	3	3	3	3	3	3	3	3	3	3	3	3	3	3	3	3	3	3	3	3	3	3	3	3	3	3	3	3	3	3	3	3	3	3	3	3	3	3	3	3	3	3	3	3	3	3	3	3	3	3	3	3	3	3	3	3	3	3	3	3	3	3	3	3	3	3	3	3	3	3	3	3	3	3	3	3	3	3	3	3	3	3	3	3	3	3	3	3	3	3	3	3	3	3	3	3	3	3	3	3	3	3	3	3	3	3	3	3	3	3	3	3	3	3	3	3	3	3	3	3	3	3	3	3	3	3	3	3	3	3	3	3	3	3	3	3	3	3	3	3	3	3	3	3	3	3	3	3	3	3	3	3	3	3	3	3	3	3	3	3	3	3	3	3	3	3	
POINT_DATA 200

SCALARS Conservative_1 float 1
LOOKUP_TABLE default
4.927537e+00	1.740963e+00	1.487852e+00	1.322071e+00	1.098842e+00	9.688765e-01	8.757603e-01	8.105867e-01	7.698877e-01	7.470428e-01	7.358985e-01	7.295635e-01	7.220014e-01	7.100515e-01	6.929463e-01	6.727841e-01	6.526306e-01	6.344239e-01	6.204612e-01	6.099782e-01	6.030727e-01	5.985789e-01	5.957359e-01	5.941213e-01	5.932016e-01	5.927963e-01	5.930942e-01	5.935592e-01	5.948368e-01	5.965601e-01	5.987715e-01	6.019191e-01	6.050365e-01	6.092030e-01	6.134616e-01	6.186786e-01	6.239434e-01	6.301510e-01	6.364482e-01	6.436756e-01	6.510104e-01	6.592798e-01	6.677058e-01	6.770087e-01	6.865650e-01	6.969435e-01	7.076740e-01	7.190951e-01	7.309930e-01	7.435462e-01	7.567314e-01	7.704605e-01	7.839044e-01	7.955628e-01	8.050205e-01	8.135297e-01	8.258664e-01	8.468254e-01	8.770778e-01	9.094467e-01	9.361728e-01	9.560999e-01	9.749804e-01	9.991907e-01	1.032170e+00	1.073194e+00	1.115625e+00	1.146017e+00	1.147342e+00	1.109223e+00	1.037953e+00	9.564383e-01	8.915420e-01	8.551005e-01	8.390311e-01	8.254524e-01	8.023916e-01	7.699872e-01	7.334410e-01	6.966824e-01	6.593551e-01	6.200225e-01	5.779056e-01	5.329579e-01	4.849398e-01	4.334047e-01	3.779263e-01	3.177529e-01	2.524449e-01	1.812383e-01	1.037970e-01	1.972367e-02	-7.046853e-02	-1.648411e-01	-2.594724e-01	-3.473923e-01	-4.206350e-01	-4.569862e-01	-4.390423e-01	-4.117794e-01	-4.028200e-01	-3.892309e-01	-3.621004e-01	-3.325764e-01	-3.007978e-01	-2.737507e-01	-2.515040e-01	-2.136364e-01	-1.674345e-01	-1.920081e-01	-3.227392e-01	-4.174898e-01	-2.816438e-01	8.056293e-02	4.524944e-01	6.365684e-01	6.113119e-01	4.747838e-01	3.192455e-01	1.808421e-01	6.163482e-02	-4.341138e-02	-1.360960e-01	-2.172487e-01	-2.864479e-01	-3.443618e-01	-3.936749e-01	-4.374464e-01	-4.777637e-01	-5.150831e-01	-5.491949e-01	-5.803309e-01	-6.086826e-01	-6.345773e-01	-6.580483e-01	-6.791276e-01	-6.977224e-01	-7.146219e-01	-7.303791e-01	-7.464973e-01	-7.627799e-01	-7.786955e-01	-7.920675e-01	-8.032398e-01	-8.121429e-01	-8.205882e-01	-8.293031e-01	-8.380015e-01	-8.467343e-01	-8.548593e-01	-8.590866e-01	-8.388631e-01	-7.622081e-01	-6.362543e-01	-5.246788e-01	-4.812525e-01	-4.879364e-01	-5.056746e-01	-5.193778e-01	-5.305647e-01	-5.418847e-01	-5.526342e-01	-5.635227e-01	-5.734777e-01	-5.839990e-01	-5.939713e-01	-6.048204e-01	-6.151564e-01	-6.263536e-01	-6.371679e-01	-6.489982e-01	-6.605783e-01	-6.733558e-01	-6.859474e-01	-6.997290e-01	-7.140769e-01	-7.292140e-01	-7.454658e-01	-7.626935e-01	-7.809024e-01	-8.004611e-01	-8.208749e-01	-8.430463e-01	-8.665390e-01	-8.930109e-01	-9.230158e-01	-9.586370e-01	-1.000981e+00	-1.051581e+00	-1.110980e+00	-1.180342e+00	-1.259370e+00	-1.350744e+00	-1.456853e+00	-1.580928e+00	-1.778341e+00	-1.923266e+00	-2.003201e+00	-4.769869e+00	-2.582958e-02	
SCALARS Conservative_2 float 1
LOOKUP_TABLE default
-1.024835e+01	-4.295183e+00	-3.437531e+00	-2.957677e+00	-2.465945e+00	-2.162644e+00	-1.941595e+00	-1.780652e+00	-1.667350e+00	-1.589876e+00	-1.536782e+00	-1.496561e+00	-1.459823e+00	-1.421067e+00	-1.378415e+00	-1.333838e+00	-1.290573e+00	-1.251230e+00	-1.218383e+00	-1.191120e+00	-1.169454e+00	-1.151808e+00	-1.137174e+00	-1.124878e+00	-1.114168e+00	-1.104768e+00	-1.096719e+00	-1.089442e+00	-1.083560e+00	-1.078552e+00	-1.074627e+00	-1.071960e+00	-1.069731e+00	-1.069028e+00	-1.068733e+00	-1.069741e+00	-1.071060e+00	-1.073663e+00	-1.076600e+00	-1.080749e+00	-1.085230e+00	-1.090907e+00	-1.096911e+00	-1.104012e+00	-1.111523e+00	-1.120026e+00	-1.129028e+00	-1.138899e+00	-1.149325e+00	-1.160517e+00	-1.172490e+00	-1.185142e+00	-1.197578e+00	-1.208279e+00	-1.216613e+00	-1.223817e+00	-1.234898e+00	-1.254884e+00	-1.284114e+00	-1.314966e+00	-1.339875e+00	-1.358001e+00	-1.375146e+00	-1.397525e+00	-1.428411e+00	-1.466976e+00	-1.506796e+00	-1.534800e+00	-1.534372e+00	-1.495374e+00	-1.423742e+00	-1.341765e+00	-1.275541e+00	-1.236754e+00	-1.217581e+00	-1.200384e+00	-1.173195e+00	-1.135963e+00	-1.093645e+00	-1.050015e+00	-1.004563e+00	-9.556227e-01	-9.021507e-01	-8.436618e-01	-7.795752e-01	-7.087989e-01	-6.302897e-01	-5.423298e-01	-4.434771e-01	-3.315619e-01	-2.046738e-01	-6.079575e-02	1.013728e-01	2.802961e-01	4.713036e-01	6.608036e-01	8.263955e-01	9.544036e-01	1.003969e+00	1.008079e+00	9.876642e-01	9.649591e-01	9.220116e-01	8.756338e-01	8.255029e-01	7.823750e-01	7.459915e-01	6.995237e-01	6.498360e-01	6.646786e-01	7.739294e-01	8.527494e-01	7.268266e-01	3.962595e-01	5.318343e-02	-1.224187e-01	-1.071388e-01	1.224107e-02	1.516968e-01	2.768632e-01	3.849811e-01	4.803242e-01	5.645157e-01	6.383650e-01	7.014669e-01	7.544395e-01	7.995450e-01	8.396916e-01	8.767177e-01	9.110705e-01	9.425783e-01	9.714281e-01	9.978135e-01	1.022062e+00	1.044253e+00	1.064359e+00	1.082362e+00	1.098926e+00	1.114572e+00	1.130596e+00	1.146898e+00	1.162997e+00	1.176923e+00	1.188950e+00	1.199163e+00	1.208967e+00	1.219090e+00	1.229096e+00	1.239148e+00	1.249197e+00	1.257090e+00	1.244357e+00	1.181146e+00	1.071557e+00	9.665846e-01	9.194776e-01	9.318312e-01	9.572777e-01	9.772226e-01	9.944141e-01	1.012335e+00	1.029892e+00	1.047869e+00	1.065133e+00	1.083422e+00	1.101506e+00	1.121036e+00	1.140503e+00	1.161438e+00	1.182498e+00	1.205321e+00	1.228532e+00	1.253823e+00	1.279802e+00	1.307782e+00	1.337503e+00	1.369213e+00	1.403406e+00	1.440078e+00	1.479343e+00	1.521905e+00	1.567399e+00	1.617235e+00	1.671352e+00	1.732220e+00	1.801497e+00	1.882573e+00	1.977849e+00	2.090294e+00	2.221782e+00	2.375756e+00	2.554760e+00	2.764967e+00	3.018070e+00	3.327516e+00	3.799992e+00	4.264885e+00	4.834077e+00	1.028632e+01	-2.654281e-01	
SCALARS Conservative_3 float 1
LOOKUP_TABLE default
-1.139223e+00	-3.814196e-01	-6.545098e-01	-5.674384e-01	-5.209502e-01	-4.951005e-01	-4.749858e-01	-4.638691e-01	-4.562924e-01	-4.480627e-01	-4.353468e-01	-4.167810e-01	-3.927936e-01	-3.663481e-01	-3.407944e-01	-3.188596e-01	-3.019773e-01	-2.893297e-01	-2.804314e-01	-2.734038e-01	-2.675012e-01	-2.618638e-01	-2.561153e-01	-2.503323e-01	-2.444720e-01	-2.385708e-01	-2.329876e-01	-2.273245e-01	-2.219942e-01	-2.167648e-01	-2.115499e-01	-2.067155e-01	-2.015784e-01	-1.968188e-01	-1.917775e-01	-1.870447e-01	-1.819800e-01	-1.771607e-01	-1.720047e-01	-1.670416e-01	-1.617189e-01	-1.565304e-01	-1.509744e-01	-1.454633e-01	-1.395918e-01	-1.336480e-01	-1.273642e-01	-1.208685e-01	-1.140323e-01	-1.069111e-01	-9.943467e-02	-9.156951e-02	-8.323362e-02	-7.416354e-02	-6.451541e-02	-5.433545e-02	-4.409912e-02	-3.404045e-02	-2.374537e-02	-1.112119e-02	3.297302e-03	1.794520e-02	3.258866e-02	4.813845e-02	6.543241e-02	8.478931e-02	1.063448e-01	1.292786e-01	1.518652e-01	1.719569e-01	1.886894e-01	2.040054e-01	2.212832e-01	2.431357e-01	2.689324e-01	2.958354e-01	3.218107e-01	3.469031e-01	3.724768e-01	3.993809e-01	4.276062e-01	4.566645e-01	4.864423e-01	5.169701e-01	5.481449e-01	5.798226e-01	6.114804e-01	6.425369e-01	6.717955e-01	6.976179e-01	7.173489e-01	7.266144e-01	7.197166e-01	6.880264e-01	6.210949e-01	5.119579e-01	3.388184e-01	1.141602e-01	-2.229078e-02	-2.146968e-02	-3.774512e-02	-8.365743e-02	-1.249011e-01	-1.483394e-01	-1.611103e-01	-1.610968e-01	-1.532251e-01	-1.564092e-01	-1.643759e-01	-1.328162e-01	-5.547705e-02	-5.360178e-03	-4.743984e-02	-1.519373e-01	-2.335868e-01	-2.464936e-01	-2.085507e-01	-1.578844e-01	-1.156373e-01	-8.422388e-02	-6.015620e-02	-4.110367e-02	-2.587257e-02	-1.394492e-02	-4.879100e-03	1.720392e-03	6.649535e-03	1.064927e-02	1.396239e-02	1.654276e-02	1.848508e-02	1.986422e-02	2.084137e-02	2.151340e-02	2.189995e-02	2.198827e-02	2.179759e-02	2.134147e-02	2.087781e-02	2.034226e-02	1.988239e-02	1.919525e-02	1.845806e-02	1.740054e-02	1.644220e-02	1.509638e-02	1.310529e-02	1.072423e-02	1.000378e-02	1.415852e-02	2.008336e-02	1.644785e-02	4.597689e-03	1.373457e-03	2.271931e-02	2.684484e-02	2.516698e-02	2.322966e-02	2.219605e-02	2.094940e-02	1.927788e-02	1.773105e-02	1.572534e-02	1.400280e-02	1.167176e-02	9.612036e-03	6.882446e-03	4.467249e-03	1.376069e-03	-1.423118e-03	-4.935719e-03	-8.156802e-03	-1.210499e-02	-1.575296e-02	-2.010325e-02	-2.454095e-02	-2.930511e-02	-3.458742e-02	-4.021577e-02	-4.626735e-02	-5.282734e-02	-5.939117e-02	-6.620095e-02	-7.249871e-02	-7.887528e-02	-8.511295e-02	-9.247011e-02	-1.017293e-01	-1.148491e-01	-1.333027e-01	-1.581945e-01	-1.901976e-01	-2.286997e-01	-2.740078e-01	-3.173870e-01	-3.627190e-01	-4.246690e-01	-1.089664e-01	-5.310878e-01	-1.353890e+01	
SCALARS Conservative_4 float 1
LOOKUP_TABLE default
2.553329e+00	6.705232e-01	5.213583e-01	4.521587e-01	3.575776e-01	3.075714e-01	2.728278e-01	2.480368e-01	2.317241e-01	2.214756e-01	2.152660e-01	2.110268e-01	2.070276e-01	2.021544e-01	1.961671e-01	1.895039e-01	1.829056e-01	1.770625e-01	1.723192e-01	1.687507e-01	1.661279e-01	1.642908e-01	1.629449e-01	1.619660e-01	1.612282e-01	1.606777e-01	1.602873e-01	1.600659e-01	1.599965e-01	1.601039e-01	1.603863e-01	1.608196e-01	1.614282e-01	1.621719e-01	1.631119e-01	1.641528e-01	1.653768e-01	1.667002e-01	1.682090e-01	1.698190e-01	1.716126e-01	1.735143e-01	1.755973e-01	1.777887e-01	1.801651e-01	1.826589e-01	1.853330e-01	1.881311e-01	1.910899e-01	1.941808e-01	1.974746e-01	2.009094e-01	2.042807e-01	2.072477e-01	2.095888e-01	2.117069e-01	2.147228e-01	2.199993e-01	2.277487e-01	2.361865e-01	2.430235e-01	2.480364e-01	2.528145e-01	2.590431e-01	2.674892e-01	2.778403e-01	2.883570e-01	2.956351e-01	2.955317e-01	2.856560e-01	2.677124e-01	2.475163e-01	2.315075e-01	2.225475e-01	2.184740e-01	2.148962e-01	2.089902e-01	2.007759e-01	1.916090e-01	1.823620e-01	1.730064e-01	1.631206e-01	1.525651e-01	1.413025e-01	1.293092e-01	1.164626e-01	1.026455e-01	8.775825e-02	7.162633e-02	5.413221e-02	3.525820e-02	1.484434e-02	-6.787229e-03	-2.921785e-02	-5.152469e-02	-7.161598e-02	-8.686168e-02	-9.631784e-02	-1.048230e-01	-1.093960e-01	-1.089838e-01	-1.040007e-01	-9.813331e-02	-9.117280e-02	-8.379679e-02	-7.770845e-02	-7.264477e-02	-6.309198e-02	-5.128008e-02	-5.711893e-02	-8.906278e-02	-1.128497e-01	-8.076869e-02	7.553552e-03	1.006175e-01	1.491629e-01	1.457557e-01	1.133115e-01	7.467982e-02	3.974526e-02	9.451536e-03	-1.717146e-02	-4.070354e-02	-6.130752e-02	-7.893116e-02	-9.373669e-02	-1.062708e-01	-1.173777e-01	-1.275905e-01	-1.370255e-01	-1.456777e-01	-1.535456e-01	-1.607291e-01	-1.672678e-01	-1.732455e-01	-1.785858e-01	-1.833681e-01	-1.876363e-01	-1.916837e-01	-1.957108e-01	-1.998785e-01	-2.038714e-01	-2.073797e-01	-2.102371e-01	-2.126214e-01	-2.148262e-01	-2.169803e-01	-2.189110e-01	-2.204612e-01	-2.221764e-01	-2.239978e-01	-2.210832e-01	-2.020363e-01	-1.682788e-01	-1.385328e-01	-1.292232e-01	-1.313272e-01	-1.356980e-01	-1.392282e-01	-1.422247e-01	-1.451961e-01	-1.481831e-01	-1.510012e-01	-1.538117e-01	-1.565610e-01	-1.594142e-01	-1.622699e-01	-1.652510e-01	-1.682421e-01	-1.713934e-01	-1.746001e-01	-1.780018e-01	-1.815161e-01	-1.852537e-01	-1.891509e-01	-1.933173e-01	-1.977562e-01	-2.025167e-01	-2.075718e-01	-2.130056e-01	-2.187531e-01	-2.249442e-01	-2.315626e-01	-2.388601e-01	-2.470401e-01	-2.565939e-01	-2.679364e-01	-2.815988e-01	-2.979448e-01	-3.173365e-01	-3.401822e-01	-3.669052e-01	-3.990272e-01	-4.379444e-01	-4.872721e-01	-5.771434e-01	-6.508810e-01	-7.479704e-01	-2.570536e+00	-4.213245e-02	
SCALARS Surface_Sensitivity float 1
LOOKUP_TABLE default
-2.093214e+04	7.274320e+03	3.838764e+02	2.168841e+02	1.654141e+02	8.001144e+01	5.169762e+01	3.551942e+01	2.525400e+01	1.893775e+01	1.459287e+01	1.150354e+01	9.194325e+00	7.437783e+00	6.107772e+00	5.062576e+00	4.215896e+00	3.557434e+00	2.989807e+00	2.576419e+00	2.225933e+00	1.947146e+00	1.726509e+00	1.529912e+00	1.370343e+00	1.239951e+00	1.115644e+00	1.021890e+00	9.190199e-01	8.340280e-01	7.612161e-01	6.914293e-01	6.654791e-01	6.085573e-01	5.718602e-01	5.185590e-01	4.937363e-01	4.515548e-01	4.333343e-01	3.996374e-01	3.876323e-01	3.576976e-01	3.493849e-01	3.311762e-01	3.291685e-01	3.041940e-01	2.584970e-01	1.883095e-01	1.871372e-01	3.148740e-01	4.778254e-01	3.609967e-01	-3.124749e-01	-1.315551e+00	-1.634579e+00	1.508013e-01	4.404729e+00	8.494795e+00	7.780569e+00	2.739705e+00	-1.620866e+00	-3.590650e+00	-4.408352e+00	-5.268876e+00	-6.410488e+00	-7.307473e+00	-6.979464e+00	-4.559478e+00	-8.805223e-02	4.898116e+00	7.931933e+00	7.323193e+00	3.685958e+00	-3.432902e-01	-2.338936e+00	-1.931769e+00	-5.808501e-01	2.434999e-01	2.324038e-01	-1.112537e-01	-2.840208e-01	-2.627538e-01	-2.168434e-01	-1.981670e-01	-1.957899e-01	-1.904712e-01	-1.488145e-01	-5.922278e-02	8.228553e-02	3.496613e-01	7.799197e-01	1.459299e+00	2.488667e+00	3.741983e+00	4.406368e+00	5.245488e+00	4.339542e+00	1.026186e+01	7.053716e+00	-8.330838e+00	1.697909e+01	1.685840e+01	9.281924e+00	1.104304e+01	7.168353e+00	2.825922e+00	4.844036e+00	1.184705e+01	1.653972e+00	-3.001274e+01	-4.199298e+01	-5.206628e-01	6.426264e+01	9.285474e+01	6.685667e+01	1.781487e+01	-1.806473e+01	-3.079339e+01	-2.964068e+01	-2.485985e+01	-2.060096e+01	-1.723989e+01	-1.444410e+01	-1.197475e+01	-9.770908e+00	-7.920053e+00	-6.584268e+00	-5.708764e+00	-5.080911e+00	-4.505008e+00	-3.967513e+00	-3.483572e+00	-3.068940e+00	-2.697020e+00	-2.355301e+00	-2.021798e+00	-1.729548e+00	-1.514146e+00	-1.419429e+00	-1.390939e+00	-1.339572e+00	-1.160227e+00	-8.971061e-01	-6.183938e-01	-4.428185e-01	-3.563982e-01	-2.873411e-01	-2.182949e-01	-2.550969e-01	-1.612829e-01	1.605456e+00	5.023180e+00	9.333005e+00	8.737136e+00	1.222343e+01	4.773346e+00	-1.329915e+00	-1.540334e+00	-8.947836e-01	-7.324712e-01	-7.345252e-01	-7.002014e-01	-6.200868e-01	-6.025420e-01	-5.877560e-01	-6.228327e-01	-6.273624e-01	-6.734873e-01	-6.966592e-01	-7.670755e-01	-8.115796e-01	-9.064091e-01	-9.702361e-01	-1.089711e+00	-1.201135e+00	-1.341690e+00	-1.514892e+00	-1.707024e+00	-1.944976e+00	-2.236446e+00	-2.567161e+00	-2.987685e+00	-3.448060e+00	-4.045892e+00	-4.767753e+00	-5.751918e+00	-7.095259e+00	-9.030189e+00	-1.181651e+01	-1.605430e+01	-2.220078e+01	-3.206580e+01	-4.755979e+01	-7.206504e+01	-1.473042e+02	-2.084322e+02	-2.668988e+02	-6.535565e+03	1.764885e+04	-1.891473e+02	