TITLE = "Visualization of the volumetric solution"
VARIABLES = "x""y""Conservative_1""Conservative_2""Conservative_3""Conservative_4""Pressure""Temperature""C<sub>p</sub>""Mach"
ZONE NODES= 5233, ELEMENTS= 10216, DATAPACKING=POINT, ZONETYPE=FEQUADRILATERAL
9.997500e-01	-3.633002e-05	1.191298e+00	7.375706e-01	1.005969e-01	3.425940e+00	1.277347e+00	1.072231e+00	6.190771e-01	5.100085e-01	
9.990000e-01	-1.453200e-04	1.169103e+00	7.632364e-01	1.087187e-01	3.369528e+00	1.246135e+00	1.065890e+00	5.494087e-01	5.398187e-01	
9.977600e-01	-3.258377e-04	1.155619e+00	7.847266e-01	1.135615e-01	3.336593e+00	1.225831e+00	1.060758e+00	5.040875e-01	5.630311e-01	
9.960200e-01	-5.809184e-04	1.145282e+00	8.003956e-01	1.175288e-01	3.311357e+00	1.210257e+00	1.056733e+00	4.693242e-01	5.807349e-01	
9.937800e-01	-9.145818e-04	1.136813e+00	8.117072e-01	1.222978e-01	3.290519e+00	1.197661e+00	1.053525e+00	4.412077e-01	5.945634e-01	
9.910500e-01	-1.332385e-03	1.129339e+00	8.211654e-01	1.279235e-01	3.272133e+00	1.186538e+00	1.050648e+00	4.163797e-01	6.067650e-01	
9.878400e-01	-1.842073e-03	1.121518e+00	8.297092e-01	1.344738e-01	3.252703e+00	1.175091e+00	1.047768e+00	3.908287e-01	6.188043e-01	
9.841300e-01	-2.456015e-03	1.112738e+00	8.388208e-01	1.414134e-01	3.230851e+00	1.162280e+00	1.044522e+00	3.622311e-01	6.321774e-01	
9.799500e-01	-3.174227e-03	1.102494e+00	8.489985e-01	1.476612e-01	3.205286e+00	1.147401e+00	1.040732e+00	3.290204e-01	6.475427e-01	
9.752800e-01	-3.996972e-03	1.090917e+00	8.603223e-01	1.519295e-01	3.176360e+00	1.130618e+00	1.036393e+00	2.915586e-01	6.648321e-01	
9.701500e-01	-4.906156e-03	1.078619e+00	8.721792e-01	1.532710e-01	3.145596e+00	1.112833e+00	1.031719e+00	2.518584e-01	6.831204e-01	
9.645400e-01	-5.884990e-03	1.066659e+00	8.835678e-01	1.514091e-01	3.115636e+00	1.095575e+00	1.027109e+00	2.133373e-01	7.008523e-01	
9.584700e-01	-6.907634e-03	1.056207e+00	8.934996e-01	1.469070e-01	3.089429e+00	1.080514e+00	1.023013e+00	1.797179e-01	7.163627e-01	
9.519400e-01	-7.956250e-03	1.047982e+00	9.013290e-01	1.409953e-01	3.068790e+00	1.068682e+00	1.019752e+00	1.533087e-01	7.285642e-01	
9.449600e-01	-9.020395e-03	1.042030e+00	9.069909e-01	1.350352e-01	3.053830e+00	1.060142e+00	1.017381e+00	1.342446e-01	7.373567e-01	
9.375400e-01	-1.009948e-02	1.037802e+00	9.108886e-01	1.300495e-01	3.043171e+00	1.054110e+00	1.015714e+00	1.207814e-01	7.435031e-01	
9.296900e-01	-1.119993e-02	1.034496e+00	9.137001e-01	1.264859e-01	3.034801e+00	1.049425e+00	1.014432e+00	1.103248e-01	7.482065e-01	
9.214000e-01	-1.233331e-02	1.031374e+00	9.160727e-01	1.242608e-01	3.026878e+00	1.045025e+00	1.013235e+00	1.005014e-01	7.525817e-01	
9.127000e-01	-1.350419e-02	1.027980e+00	9.184558e-01	1.229685e-01	3.018259e+00	1.040242e+00	1.011928e+00	8.982495e-02	7.573435e-01	
9.035800e-01	-1.471888e-02	1.024131e+00	9.210420e-01	1.221356e-01	3.008489e+00	1.034816e+00	1.010434e+00	7.771495e-02	7.627660e-01	
8.940600e-01	-1.597567e-02	1.019872e+00	9.238610e-01	1.213772e-01	2.997686e+00	1.028808e+00	1.008761e+00	6.430247e-02	7.688096e-01	
8.841500e-01	-1.727125e-02	1.015347e+00	9.268103e-01	1.204660e-01	2.986204e+00	1.022425e+00	1.006970e+00	5.005475e-02	7.752501e-01	
8.738500e-01	-1.860208e-02	1.010703e+00	9.297660e-01	1.193159e-01	2.974409e+00	1.015885e+00	1.005126e+00	3.545648e-02	7.818484e-01	
8.631800e-01	-1.996172e-02	1.006076e+00	9.326619e-01	1.179402e-01	2.962652e+00	1.009375e+00	1.003278e+00	2.092571e-02	7.884305e-01	
8.521600e-01	-2.134424e-02	1.001527e+00	9.354257e-01	1.163929e-01	2.951077e+00	1.002988e+00	1.001459e+00	6.669780e-03	7.948812e-01	
8.407700e-01	-2.274939e-02	9.970822e-01	9.380513e-01	1.147397e-01	2.939758e+00	9.967594e-01	9.996762e-01	-7.233528e-03	8.011737e-01	
8.290500e-01	-2.417010e-02	9.927304e-01	9.405334e-01	1.130185e-01	2.928661e+00	9.906749e-01	9.979295e-01	-2.081489e-02	8.073132e-01	
8.170100e-01	-2.560356e-02	9.884583e-01	9.428993e-01	1.112625e-01	2.917759e+00	9.847108e-01	9.962087e-01	-3.412770e-02	8.133369e-01	
8.046400e-01	-2.704947e-02	9.842406e-01	9.451504e-01	1.094815e-01	2.906983e+00	9.788351e-01	9.945079e-01	-4.724315e-02	8.192675e-01	
7.919700e-01	-2.850294e-02	9.800641e-01	9.473016e-01	1.076713e-01	2.896301e+00	9.730279e-01	9.928206e-01	-6.020564e-02	8.251287e-01	
7.790100e-01	-2.996145e-02	9.759192e-01	9.493793e-01	1.058303e-01	2.885694e+00	9.672702e-01	9.911377e-01	-7.305749e-02	8.309533e-01	
7.657800e-01	-3.142130e-02	9.717840e-01	9.513829e-01	1.039540e-01	2.875104e+00	9.615354e-01	9.894538e-01	-8.585846e-02	8.367602e-01	
7.522800e-01	-3.288097e-02	9.676250e-01	9.533128e-01	1.020329e-01	2.864438e+00	9.557809e-01	9.877597e-01	-9.870330e-02	8.425818e-01	
7.385200e-01	-3.433775e-02	9.634416e-01	9.551878e-01	1.000656e-01	2.853702e+00	9.500011e-01	9.860495e-01	-1.116046e-01	8.484380e-01	
7.245300e-01	-3.578681e-02	9.592407e-01	9.570064e-01	9.803960e-02	2.842912e+00	9.442053e-01	9.843258e-01	-1.245417e-01	8.543205e-01	
7.103200e-01	-3.722547e-02	9.550221e-01	9.587524e-01	9.595984e-02	2.832065e+00	9.383980e-01	9.825929e-01	-1.375045e-01	8.602143e-01	
6.958900e-01	-3.865200e-02	9.507939e-01	9.604569e-01	9.381285e-02	2.821189e+00	9.325805e-01	9.808441e-01	-1.504899e-01	8.661426e-01	
6.812700e-01	-4.006166e-02	9.465297e-01	9.620819e-01	9.159919e-02	2.810203e+00	9.267305e-01	9.790824e-01	-1.635480e-01	8.720948e-01	
6.664700e-01	-4.145173e-02	9.422343e-01	9.636566e-01	8.931449e-02	2.799130e+00	9.208456e-01	9.773000e-01	-1.766840e-01	8.780976e-01	
6.515000e-01	-4.281945e-02	9.378921e-01	9.651779e-01	8.694993e-02	2.787926e+00	9.149066e-01	9.754924e-01	-1.899406e-01	8.841658e-01	
6.363800e-01	-4.416114e-02	9.334998e-01	9.666375e-01	8.451003e-02	2.776580e+00	9.089115e-01	9.736601e-01	-2.033225e-01	8.902975e-01	
6.211300e-01	-4.547315e-02	9.290510e-01	9.680479e-01	8.197543e-02	2.765079e+00	9.028486e-01	9.717966e-01	-2.168558e-01	8.965142e-01	
6.057600e-01	-4.675273e-02	9.245409e-01	9.693935e-01	7.935380e-02	2.753406e+00	8.967156e-01	9.699037e-01	-2.305455e-01	9.028091e-01	
5.902800e-01	-4.799705e-02	9.199569e-01	9.706920e-01	7.662426e-02	2.741532e+00	8.904914e-01	9.679708e-01	-2.444389e-01	9.092174e-01	
5.747100e-01	-4.920246e-02	9.152807e-01	9.719279e-01	7.379905e-02	2.729406e+00	8.841561e-01	9.659944e-01	-2.585802e-01	9.157497e-01	
5.590600e-01	-5.036610e-02	9.105127e-01	9.731094e-01	7.086234e-02	2.717030e+00	8.777072e-01	9.639703e-01	-2.729750e-01	9.224191e-01	
5.433600e-01	-5.148364e-02	9.057159e-01	9.742019e-01	6.780802e-02	2.704563e+00	8.712366e-01	9.619314e-01	-2.874182e-01	9.291169e-01	
5.276100e-01	-5.255292e-02	9.009823e-01	9.752047e-01	6.459184e-02	2.692247e+00	8.648643e-01	9.599127e-01	-3.016422e-01	9.357292e-01	
5.118400e-01	-5.356971e-02	8.962790e-01	9.761249e-01	6.120090e-02	2.679996e+00	8.585459e-01	9.579004e-01	-3.157457e-01	9.423016e-01	
4.960500e-01	-5.453176e-02	8.913354e-01	9.770495e-01	5.767782e-02	2.667123e+00	8.519016e-01	9.557587e-01	-3.305769e-01	9.492764e-01	
4.802700e-01	-5.543497e-02	8.858104e-01	9.779727e-01	5.413807e-02	2.652728e+00	8.444845e-01	9.533468e-01	-3.471329e-01	9.571080e-01	
4.645100e-01	-5.627648e-02	8.799611e-01	9.787709e-01	5.059417e-02	2.637454e+00	8.366646e-01	9.507973e-01	-3.645879e-01	9.653594e-01	
4.487800e-01	-5.705341e-02	8.751376e-01	9.792232e-01	4.686532e-02	2.624796e+00	8.302790e-01	9.487411e-01	-3.788416e-01	9.719955e-01	
4.331100e-01	-5.776196e-02	8.730648e-01	9.792362e-01	4.258933e-02	2.619265e+00	8.276267e-01	9.479557e-01	-3.847618e-01	9.745258e-01	
4.175000e-01	-5.839980e-02	8.738129e-01	9.789596e-01	3.746255e-02	2.621084e+00	8.287608e-01	9.484420e-01	-3.822304e-01	9.729594e-01	
4.019700e-01	-5.896371e-02	8.735929e-01	9.790103e-01	3.174060e-02	2.620455e+00	8.285217e-01	9.484071e-01	-3.827641e-01	9.730718e-01	
3.865400e-01	-5.945066e-02	8.649609e-01	9.799622e-01	2.649990e-02	2.597936e+00	8.169614e-01	9.445067e-01	-4.085684e-01	9.856098e-01	
3.712300e-01	-5.985778e-02	8.425391e-01	9.811914e-01	2.301160e-02	2.539310e+00	7.870659e-01	9.341595e-01	-4.752993e-01	1.018611e+00	
3.560400e-01	-6.018284e-02	8.127844e-01	9.801246e-01	2.006199e-02	2.460989e+00	7.479132e-01	9.201865e-01	-5.626938e-01	1.062662e+00	
3.409900e-01	-6.042312e-02	7.913306e-01	9.768140e-01	1.469471e-02	2.403866e+00	7.203369e-01	9.102857e-01	-6.242479e-01	1.093579e+00	
3.261100e-01	-6.057610e-02	7.836326e-01	9.748400e-01	8.134667e-03	2.383120e+00	7.106906e-01	9.069181e-01	-6.457799e-01	1.104048e+00	
3.114000e-01	-6.063983e-02	7.842687e-01	9.744551e-01	1.572020e-03	2.384625e+00	7.116968e-01	9.074656e-01	-6.435338e-01	1.102347e+00	
2.968700e-01	-6.061225e-02	7.874750e-01	9.748227e-01	-4.894946e-03	2.393096e+00	7.158840e-01	9.090879e-01	-6.341875e-01	1.097305e+00	
2.825500e-01	-6.049159e-02	7.907373e-01	9.753449e-01	-1.140568e-02	2.401788e+00	7.200719e-01	9.106336e-01	-6.248395e-01	1.092496e+00	
2.684500e-01	-6.027639e-02	7.938266e-01	9.758609e-01	-1.819216e-02	2.410048e+00	7.240083e-01	9.120485e-01	-6.160528e-01	1.088090e+00	
2.545700e-01	-5.996502e-02	7.971419e-01	9.762775e-01	-2.534293e-02	2.418886e+00	7.282595e-01	9.135883e-01	-6.065636e-01	1.083290e+00	
2.409400e-01	-5.955673e-02	8.009840e-01	9.766814e-01	-3.289543e-02	2.429120e+00	7.331941e-01	9.153668e-01	-5.955488e-01	1.077739e+00	
2.275700e-01	-5.905065e-02	8.053312e-01	9.770158e-01	-4.083273e-02	2.440680e+00	7.387976e-01	9.173835e-01	-5.830411e-01	1.071437e+00	
2.144700e-01	-5.844615e-02	8.100525e-01	9.772769e-01	-4.916480e-02	2.453227e+00	7.448897e-01	9.195573e-01	-5.694427e-01	1.064633e+00	
2.016600e-01	-5.774330e-02	8.150097e-01	9.773954e-01	-5.790649e-02	2.466385e+00	7.513039e-01	9.218342e-01	-5.551253e-01	1.057494e+00	
1.891400e-01	-5.694141e-02	8.202221e-01	9.773672e-01	-6.709248e-02	2.480206e+00	7.580609e-01	9.242142e-01	-5.400427e-01	1.050018e+00	
1.769300e-01	-5.604113e-02	8.258704e-01	9.771519e-01	-7.678492e-02	2.495160e+00	7.654070e-01	9.267883e-01	-5.236450e-01	1.041916e+00	
1.650400e-01	-5.504285e-02	8.321873e-01	9.767305e-01	-8.703598e-02	2.511859e+00	7.736471e-01	9.296550e-01	-5.052520e-01	1.032871e+00	
1.534900e-01	-5.394817e-02	8.392172e-01	9.760269e-01	-9.786807e-02	2.530408e+00	7.828525e-01	9.328367e-01	-4.847041e-01	1.022805e+00	
1.422900e-01	-5.275824e-02	8.468435e-01	9.750029e-01	-1.093069e-01	2.550502e+00	7.928674e-01	9.362620e-01	-4.623496e-01	1.011934e+00	
1.314400e-01	-5.147324e-02	8.548979e-01	9.735210e-01	-1.213966e-01	2.571669e+00	8.034992e-01	9.398774e-01	-4.386178e-01	1.000419e+00	
1.209500e-01	-5.009443e-02	8.634269e-01	9.715923e-01	-1.342339e-01	2.594055e+00	8.147865e-01	9.436659e-01	-4.134230e-01	9.883053e-01	
1.108500e-01	-4.862635e-02	8.726020e-01	9.691280e-01	-1.478731e-01	2.618102e+00	8.269627e-01	9.476975e-01	-3.862439e-01	9.753572e-01	
1.011300e-01	-4.706827e-02	8.824682e-01	9.658949e-01	-1.623743e-01	2.643881e+00	8.401355e-01	9.520292e-01	-3.568405e-01	9.613757e-01	
9.181000e-02	-4.542399e-02	8.930508e-01	9.617376e-01	-1.778455e-01	2.671445e+00	8.543530e-01	9.566678e-01	-3.251049e-01	9.463182e-01	
8.290000e-02	-4.369625e-02	9.044497e-01	9.565772e-01	-1.943894e-01	2.701070e+00	8.697304e-01	9.616128e-01	-2.907803e-01	9.301618e-01	
7.440000e-02	-4.188588e-02	9.167057e-01	9.501341e-01	-2.121000e-01	2.732828e+00	8.863600e-01	9.668970e-01	-2.536607e-01	9.127689e-01	
6.633000e-02	-3.999809e-02	9.299481e-01	9.421589e-01	-2.311137e-01	2.767045e+00	9.044245e-01	9.725537e-01	-2.133383e-01	8.939908e-01	
5.869000e-02	-3.803397e-02	9.442738e-01	9.322675e-01	-2.515485e-01	2.803938e+00	9.240900e-01	9.786251e-01	-1.694419e-01	8.736367e-01	
5.149000e-02	-3.599698e-02	9.598461e-01	9.199869e-01	-2.735043e-01	2.843894e+00	9.456141e-01	9.851726e-01	-1.213970e-01	8.514332e-01	
4.474000e-02	-3.389105e-02	9.769066e-01	9.046406e-01	-2.970847e-01	2.887483e+00	9.693800e-01	9.922955e-01	-6.834812e-02	8.269484e-01	
3.844000e-02	-3.171702e-02	9.956477e-01	8.853817e-01	-3.223591e-01	2.935138e+00	9.957157e-01	1.000068e+00	-9.563137e-03	7.997918e-01	
3.260000e-02	-2.947898e-02	1.016396e+00	8.612496e-01	-3.492953e-01	2.987667e+00	1.025102e+00	1.008565e+00	5.603152e-02	7.695148e-01	
2.723000e-02	-2.718171e-02	1.039588e+00	8.308326e-01	-3.775580e-01	3.046110e+00	1.058220e+00	1.017923e+00	1.299560e-01	7.353538e-01	
2.232000e-02	-2.482094e-02	1.065495e+00	7.921858e-01	-4.065444e-01	3.111025e+00	1.095590e+00	1.028244e+00	2.133700e-01	6.965112e-01	
1.790000e-02	-2.241177e-02	1.094631e+00	7.430813e-01	-4.350268e-01	3.183647e+00	1.137994e+00	1.039615e+00	3.080233e-01	6.520242e-01	
1.395000e-02	-1.994373e-02	1.127481e+00	6.807715e-01	-4.603650e-01	3.265100e+00	1.186236e+00	1.052112e+00	4.157045e-01	6.005814e-01	
1.049000e-02	-1.742873e-02	1.164032e+00	6.018649e-01	-4.782637e-01	3.355129e+00	1.240512e+00	1.065703e+00	5.368565e-01	5.406779e-01	
7.520000e-03	-1.486783e-02	1.204090e+00	5.042314e-01	-4.814765e-01	3.453234e+00	1.300557e+00	1.080116e+00	6.708866e-01	4.708588e-01	
5.040000e-03	-1.226115e-02	1.246323e+00	3.872843e-01	-4.586736e-01	3.555969e+00	1.364558e+00	1.094868e+00	8.137462e-01	3.890446e-01	
3.050000e-03	-9.606704e-03	1.288581e+00	2.572420e-01	-3.959559e-01	3.658550e+00	1.428815e+00	1.108828e+00	9.571774e-01	2.941035e-01	
1.560000e-03	-6.918667e-03	1.323467e+00	1.311496e-01	-2.823612e-01	3.742675e+00	1.482423e+00	1.120105e+00	1.076836e+00	1.878530e-01	
5.600000e-04	-4.173994e-03	1.348484e+00	3.161525e-02	-1.152055e-01	3.804273e+00	1.519592e+00	1.126889e+00	1.159804e+00	7.053249e-02	
6.000000e-05	-1.375585e-03	1.347476e+00	-8.560328e-03	8.001110e-02	3.800604e+00	1.519280e+00	1.127501e+00	1.159108e+00	4.753114e-02	
0.000000e+00	0.000000e+00	1.330458e+00	5.746946e-03	2.239798e-01	3.757316e+00	1.495380e+00	1.123959e+00	1.105759e+00	1.342491e-01	
6.000000e-05	1.349433e-03	1.318502e+00	4.869457e-02	3.607207e-01	3.732564e+00	1.472929e+00	1.117123e+00	1.055644e+00	2.207483e-01	
5.600000e-04	4.036337e-03	1.278077e+00	1.483093e-01	5.317700e-01	3.638278e+00	1.407618e+00	1.101356e+00	9.098624e-01	3.478601e-01	
1.560000e-03	6.620779e-03	1.196364e+00	3.087913e-01	6.407599e-01	3.434191e+00	1.289099e+00	1.077514e+00	6.453110e-01	4.840656e-01	
3.050000e-03	9.111764e-03	1.123722e+00	4.683902e-01	6.731852e-01	3.254429e+00	1.182068e+00	1.051922e+00	4.064017e-01	6.013859e-01	
5.040000e-03	1.153676e-02	1.055874e+00	6.032772e-01	6.539584e-01	3.084694e+00	1.083935e+00	1.026576e+00	1.873543e-01	7.028824e-01	
7.520000e-03	1.388692e-02	9.963885e-01	7.063090e-01	6.070429e-01	2.934201e+00	9.995771e-01	1.003200e+00	-9.440527e-04	7.887086e-01	
1.049000e-02	1.616747e-02	9.472749e-01	7.805821e-01	5.499869e-01	2.808846e+00	9.310297e-01	9.828506e-01	-1.539516e-01	8.593391e-01	
1.395000e-02	1.838119e-02	9.078384e-01	8.332072e-01	4.928063e-01	2.707589e+00	8.765908e-01	9.655801e-01	-2.754670e-01	9.171163e-01	
1.790000e-02	2.052969e-02	8.760260e-01	8.697482e-01	4.400092e-01	2.625348e+00	8.332347e-01	9.511529e-01	-3.722440e-01	9.642100e-01	
2.232000e-02	2.260510e-02	8.501629e-01	8.951778e-01	3.926638e-01	2.558044e+00	7.984305e-01	9.391500e-01	-4.499319e-01	1.002739e+00	
2.723000e-02	2.461877e-02	8.288445e-01	9.128689e-01	3.510594e-01	2.502235e+00	7.700733e-01	9.290927e-01	-5.132291e-01	1.034647e+00	
3.260000e-02	2.656005e-02	8.109586e-01	9.250659e-01	3.145560e-01	2.455101e+00	7.465927e-01	9.206299e-01	-5.656412e-01	1.061271e+00	
3.844000e-02	2.843481e-02	7.959223e-01	9.336113e-01	2.825822e-01	2.415300e+00	7.270306e-01	9.134442e-01	-6.093067e-01	1.083739e+00	
4.474000e-02	3.024114e-02	7.830258e-01	9.395473e-01	2.545023e-01	2.381021e+00	7.103933e-01	9.072413e-01	-6.464435e-01	1.103044e+00	
5.149000e-02	3.197779e-02	7.719232e-01	9.435856e-01	2.297198e-01	2.351385e+00	6.961966e-01	9.018988e-01	-6.781326e-01	1.119612e+00	
5.869000e-02	3.364612e-02	7.625209e-01	9.463784e-01	2.077518e-01	2.326210e+00	6.842502e-01	8.973526e-01	-7.047987e-01	1.133672e+00	
6.633000e-02	3.524494e-02	7.544960e-01	9.482378e-01	1.882075e-01	2.304652e+00	6.741255e-01	8.934779e-01	-7.273984e-01	1.145631e+00	
7.440000e-02	3.677344e-02	7.474293e-01	9.493600e-01	1.706892e-01	2.285603e+00	6.652759e-01	8.900853e-01	-7.471520e-01	1.156084e+00	
8.290000e-02	3.823267e-02	7.410023e-01	9.499654e-01	1.549087e-01	2.268252e+00	6.572526e-01	8.869778e-01	-7.650613e-01	1.165646e+00	
9.181000e-02	3.962033e-02	7.349577e-01	9.501238e-01	1.405915e-01	2.251911e+00	6.497291e-01	8.840361e-01	-7.818547e-01	1.174687e+00	
1.011300e-01	4.093763e-02	7.292985e-01	9.499455e-01	1.275057e-01	2.236590e+00	6.427077e-01	8.812683e-01	-7.975275e-01	1.183185e+00	
1.108500e-01	4.218416e-02	7.242766e-01	9.496466e-01	1.155567e-01	2.222991e+00	6.364801e-01	8.787804e-01	-8.114283e-01	1.190817e+00	
1.209500e-01	4.335859e-02	7.200700e-01	9.493228e-01	1.046612e-01	2.211584e+00	6.312784e-01	8.766904e-01	-8.230392e-01	1.197224e+00	
1.314400e-01	4.446317e-02	7.164470e-01	9.488261e-01	9.467731e-02	2.201698e+00	6.268613e-01	8.749584e-01	-8.328988e-01	1.202531e+00	
1.422900e-01	4.549582e-02	7.130156e-01	9.482416e-01	8.548610e-02	2.192340e+00	6.226722e-01	8.732939e-01	-8.422497e-01	1.207629e+00	
1.534900e-01	4.645698e-02	7.095818e-01	9.474969e-01	7.688869e-02	2.182970e+00	6.184852e-01	8.716193e-01	-8.515955e-01	1.212755e+00	
1.650400e-01	4.734787e-02	7.063494e-01	9.467447e-01	6.889773e-02	2.174163e+00	6.145302e-01	8.700088e-01	-8.604237e-01	1.217684e+00	
1.769300e-01	4.816878e-02	7.033733e-01	9.459088e-01	6.143585e-02	2.166023e+00	6.109210e-01	8.685586e-01	-8.684800e-01	1.222120e+00	
1.891400e-01	4.891949e-02	7.005382e-01	9.450502e-01	5.451393e-02	2.158271e+00	6.074790e-01	8.671605e-01	-8.761628e-01	1.226396e+00	
2.016600e-01	4.960064e-02	6.977236e-01	9.440771e-01	4.799042e-02	2.150558e+00	6.040804e-01	8.657875e-01	-8.837492e-01	1.230594e+00	
2.144700e-01	5.021241e-02	6.950684e-01	9.431574e-01	4.184324e-02	2.143299e+00	6.008566e-01	8.644567e-01	-8.909452e-01	1.234662e+00	
2.275700e-01	5.075599e-02	6.927580e-01	9.423174e-01	3.603113e-02	2.136975e+00	5.980594e-01	8.633020e-01	-8.971889e-01	1.238191e+00	
2.409400e-01	5.123167e-02	6.909103e-01	9.416732e-01	3.058524e-02	2.131928e+00	5.958107e-01	8.623561e-01	-9.022083e-01	1.241081e+00	
2.545700e-01	5.164020e-02	6.894441e-01	9.411269e-01	2.544812e-02	2.127911e+00	5.940393e-01	8.616207e-01	-9.061624e-01	1.243328e+00	
2.684500e-01	5.198226e-02	6.882384e-01	9.406674e-01	2.059572e-02	2.124607e+00	5.925833e-01	8.610146e-01	-9.094123e-01	1.245180e+00	
2.825500e-01	5.225814e-02	6.871418e-01	9.402001e-01	1.595928e-02	2.121590e+00	5.912711e-01	8.604790e-01	-9.123413e-01	1.246816e+00	
2.968700e-01	5.246878e-02	6.860633e-01	9.397084e-01	1.151108e-02	2.118620e+00	5.899835e-01	8.599549e-01	-9.152154e-01	1.248417e+00	
3.114000e-01	5.261476e-02	6.849451e-01	9.391822e-01	7.231748e-03	2.115544e+00	5.886449e-01	8.594044e-01	-9.182034e-01	1.250098e+00	
3.261100e-01	5.269647e-02	6.837151e-01	9.385550e-01	3.094112e-03	2.112151e+00	5.871813e-01	8.588100e-01	-9.214703e-01	1.251914e+00	
3.409900e-01	5.271453e-02	6.823646e-01	9.378741e-01	-9.132102e-04	2.108438e+00	5.855631e-01	8.581381e-01	-9.250824e-01	1.253966e+00	
3.560400e-01	5.266934e-02	6.809213e-01	9.371380e-01	-4.829273e-03	2.104473e+00	5.838294e-01	8.574111e-01	-9.289521e-01	1.256186e+00	
3.712300e-01	5.256127e-02	6.794569e-01	9.363739e-01	-8.634196e-03	2.100450e+00	5.820708e-01	8.566706e-01	-9.328777e-01	1.258447e+00	
3.865400e-01	5.239076e-02	6.779781e-01	9.355593e-01	-1.234701e-02	2.096377e+00	5.803055e-01	8.559354e-01	-9.368181e-01	1.260692e+00	
4.019700e-01	5.215790e-02	6.763927e-01	9.346679e-01	-1.597994e-02	2.092008e+00	5.784151e-01	8.551468e-01	-9.410377e-01	1.263099e+00	
4.175000e-01	5.186290e-02	6.746371e-01	9.336670e-01	-1.957818e-02	2.087169e+00	5.763233e-01	8.542717e-01	-9.457068e-01	1.265771e+00	
4.331100e-01	5.150601e-02	6.727518e-01	9.325911e-01	-2.316804e-02	2.081976e+00	5.740730e-01	8.533206e-01	-9.507299e-01	1.268674e+00	
4.487800e-01	5.108749e-02	6.708363e-01	9.315098e-01	-2.675906e-02	2.076711e+00	5.717756e-01	8.523326e-01	-9.558580e-01	1.271691e+00	
4.645100e-01	5.060701e-02	6.691800e-01	9.306019e-01	-3.043772e-02	2.072182e+00	5.697656e-01	8.514385e-01	-9.603447e-01	1.274420e+00	
4.802700e-01	5.006508e-02	6.684417e-01	9.301847e-01	-3.404089e-02	2.070188e+00	5.688446e-01	8.510011e-01	-9.624004e-01	1.275755e+00	
4.960500e-01	4.946166e-02	6.688784e-01	9.298751e-01	-3.738335e-02	2.071226e+00	5.695301e-01	8.514703e-01	-9.608703e-01	1.274322e+00	
5.118400e-01	4.879665e-02	6.670397e-01	9.277439e-01	-4.004195e-02	2.065747e+00	5.677499e-01	8.511486e-01	-9.648440e-01	1.275304e+00	
5.276100e-01	4.807093e-02	6.587567e-01	9.269629e-01	-4.177442e-02	2.044428e+00	5.563680e-01	8.445727e-01	-9.902501e-01	1.295374e+00	
5.433600e-01	4.728415e-02	6.450819e-01	9.073900e-01	-4.747927e-02	2.001984e+00	5.448228e-01	8.445793e-01	-1.016020e+00	1.295354e+00	
5.590600e-01	4.643756e-02	6.887705e-01	9.283624e-01	-6.177613e-02	2.121899e+00	5.973920e-01	8.673310e-01	-8.986785e-01	1.225874e+00	
5.747100e-01	4.553100e-02	8.416671e-01	9.219616e-01	-5.378067e-02	2.518288e+00	8.046447e-01	9.560130e-01	-4.360609e-01	9.484495e-01	
5.902800e-01	4.456625e-02	9.675926e-01	9.100523e-01	-4.985643e-02	2.851280e+00	9.688113e-01	1.001260e+00	-6.961761e-02	7.955862e-01	
6.057600e-01	4.354421e-02	9.736320e-01	9.149073e-01	-5.991457e-02	2.869012e+00	9.749226e-01	1.001326e+00	-5.597633e-02	7.953529e-01	
6.211300e-01	4.246675e-02	9.576324e-01	9.220451e-01	-6.696574e-02	2.828043e+00	9.527247e-01	9.948751e-01	-1.055252e-01	8.179889e-01	
6.363800e-01	4.133538e-02	9.509980e-01	9.249002e-01	-7.117208e-02	2.811103e+00	9.434722e-01	9.920864e-01	-1.261781e-01	8.276725e-01	
6.515000e-01	4.015192e-02	9.510238e-01	9.252945e-01	-7.445956e-02	2.811354e+00	9.433232e-01	9.919029e-01	-1.265107e-01	8.283076e-01	
6.664700e-01	3.891935e-02	9.514354e-01	9.251527e-01	-7.802133e-02	2.812500e+00	9.438014e-01	9.919763e-01	-1.254433e-01	8.280534e-01	
6.812700e-01	3.764114e-02	9.519593e-01	9.246412e-01	-8.177218e-02	2.813855e+00	9.445156e-01	9.921807e-01	-1.238491e-01	8.273460e-01	
6.958900e-01	3.632040e-02	9.536725e-01	9.236046e-01	-8.536464e-02	2.818257e+00	9.468774e-01	9.928749e-01	-1.185771e-01	8.249405e-01	
7.103200e-01	3.496057e-02	9.564830e-01	9.220964e-01	-8.874827e-02	2.825476e+00	9.507541e-01	9.940105e-01	-1.099238e-01	8.209975e-01	
7.245300e-01	3.356748e-02	9.599381e-01	9.202050e-01	-9.197648e-02	2.834326e+00	9.555446e-01	9.954232e-01	-9.923077e-02	8.160788e-01	
7.385200e-01	3.214450e-02	9.638647e-01	9.180130e-01	-9.506370e-02	2.844369e+00	9.610041e-01	9.970321e-01	-8.704453e-02	8.104576e-01	
7.522800e-01	3.069627e-02	9.681934e-01	9.155403e-01	-9.796133e-02	2.855425e+00	9.670377e-01	9.988063e-01	-7.357650e-02	8.042343e-01	
7.657800e-01	2.922994e-02	9.728744e-01	9.128161e-01	-1.006478e-01	2.867371e+00	9.735729e-01	1.000718e+00	-5.898916e-02	7.975000e-01	
7.790100e-01	2.775090e-02	9.778194e-01	9.098084e-01	-1.031051e-01	2.879962e+00	9.805049e-01	1.002746e+00	-4.351580e-02	7.903196e-01	
7.919700e-01	2.626366e-02	9.829994e-01	9.066026e-01	-1.053136e-01	2.893145e+00	9.877728e-01	1.004856e+00	-2.729287e-02	7.828135e-01	
8.046400e-01	2.477512e-02	9.883354e-01	9.031856e-01	-1.072607e-01	2.906705e+00	9.952795e-01	1.007026e+00	-1.053686e-02	7.750495e-01	
8.170100e-01	2.329119e-02	9.937686e-01	8.995730e-01	-1.089333e-01	2.920489e+00	1.002946e+00	1.009235e+00	6.576310e-03	7.671001e-01	
8.290500e-01	2.182024e-02	9.992521e-01	8.958234e-01	-1.103349e-01	2.934386e+00	1.010698e+00	1.011454e+00	2.387912e-02	7.590660e-01	
8.407700e-01	2.036562e-02	1.004733e+00	8.919567e-01	-1.114746e-01	2.948260e+00	1.018463e+00	1.013665e+00	4.121134e-02	7.510128e-01	
8.521600e-01	1.893272e-02	1.010180e+00	8.879915e-01	-1.123729e-01	2.962033e+00	1.026197e+00	1.015855e+00	5.847470e-02	7.429847e-01	
8.631800e-01	1.753016e-02	1.015571e+00	8.839326e-01	-1.130838e-01	2.975644e+00	1.033868e+00	1.018016e+00	7.559784e-02	7.350090e-01	
8.738500e-01	1.615817e-02	1.020909e+00	8.797662e-01	-1.136594e-01	2.989102e+00	1.041483e+00	1.020153e+00	9.259495e-02	7.270734e-01	
8.841500e-01	1.482111e-02	1.026243e+00	8.754559e-01	-1.141604e-01	3.002534e+00	1.049109e+00	1.022282e+00	1.096182e-01	7.191117e-01	
8.940600e-01	1.352272e-02	1.031643e+00	8.709069e-01	-1.146123e-01	3.016109e+00	1.056854e+00	1.024438e+00	1.269065e-01	7.109910e-01	
9.035800e-01	1.226394e-02	1.037233e+00	8.660348e-01	-1.149686e-01	3.030143e+00	1.064890e+00	1.026664e+00	1.448431e-01	7.025455e-01	
9.127000e-01	1.104788e-02	1.043098e+00	8.607168e-01	-1.150706e-01	3.044837e+00	1.073351e+00	1.029003e+00	1.637298e-01	6.936012e-01	
9.214000e-01	9.881018e-03	1.049282e+00	8.549524e-01	-1.146581e-01	3.060310e+00	1.082295e+00	1.031463e+00	1.836953e-01	6.841158e-01	
9.296900e-01	8.768671e-03	1.055681e+00	8.488660e-01	-1.133894e-01	3.076299e+00	1.091570e+00	1.033996e+00	2.043977e-01	6.742536e-01	
9.375400e-01	7.724208e-03	1.062035e+00	8.427790e-01	-1.109983e-01	3.092165e+00	1.100788e+00	1.036490e+00	2.249741e-01	6.644506e-01	
9.449600e-01	6.756617e-03	1.067947e+00	8.371540e-01	-1.074298e-01	3.106930e+00	1.109363e+00	1.038781e+00	2.441142e-01	6.553548e-01	
9.519400e-01	5.875409e-03	1.072999e+00	8.324495e-01	-1.029958e-01	3.119559e+00	1.116681e+00	1.040710e+00	2.604487e-01	6.476324e-01	
9.584700e-01	5.084335e-03	1.076892e+00	8.289429e-01	-9.840086e-02	3.129304e+00	1.122307e+00	1.042172e+00	2.730059e-01	6.417372e-01	
9.645400e-01	4.379104e-03	1.079621e+00	8.265003e-01	-9.460831e-02	3.136134e+00	1.126251e+00	1.043190e+00	2.818096e-01	6.376062e-01	
9.701500e-01	3.746911e-03	1.081584e+00	8.245629e-01	-9.253456e-02	3.141028e+00	1.129104e+00	1.043936e+00	2.881783e-01	6.345713e-01	
9.752800e-01	3.173517e-03	1.083519e+00	8.221861e-01	-9.269549e-02	3.145812e+00	1.131962e+00	1.044709e+00	2.945577e-01	6.314147e-01	
9.799500e-01	2.641773e-03	1.086329e+00	8.183486e-01	-9.496467e-02	3.152730e+00	1.136137e+00	1.045850e+00	3.038771e-01	6.267335e-01	
9.841300e-01	2.146233e-03	1.090758e+00	8.122433e-01	-9.859002e-02	3.163646e+00	1.142707e+00	1.047627e+00	3.185434e-01	6.193929e-01	
9.878400e-01	1.683394e-03	1.097174e+00	8.033485e-01	-1.025018e-01	3.179456e+00	1.152225e+00	1.050176e+00	3.397887e-01	6.087518e-01	
9.910500e-01	1.262353e-03	1.105598e+00	7.918409e-01	-1.056661e-01	3.200277e+00	1.164666e+00	1.053426e+00	3.675585e-01	5.949866e-01	
9.937800e-01	8.891852e-04	1.115569e+00	7.772274e-01	-1.072345e-01	3.224765e+00	1.179544e+00	1.057347e+00	4.007680e-01	5.780607e-01	
9.960200e-01	5.738785e-04	1.127239e+00	7.598293e-01	-1.067888e-01	3.253458e+00	1.196925e+00	1.061820e+00	4.395654e-01	5.582873e-01	
9.977600e-01	3.245327e-04	1.140389e+00	7.380934e-01	-1.046894e-01	3.285545e+00	1.216753e+00	1.066963e+00	4.838233e-01	5.348657e-01	
9.990000e-01	1.452010e-04	1.156138e+00	7.102503e-01	-9.961400e-02	3.323899e+00	1.240578e+00	1.073036e+00	5.370035e-01	5.061281e-01	
9.997500e-01	3.632813e-05	1.174666e+00	6.728037e-01	-9.676012e-02	3.368780e+00	1.268847e+00	1.080176e+00	6.001040e-01	4.705524e-01	
1.000000e+00	0.000000e+00	1.167519e+00	6.484165e-01	6.299177e-03	3.343885e+00	1.265524e+00	1.083943e+00	5.926871e-01	4.508617e-01	
1.984229e+01	2.506660e+00	9.996074e-01	9.459659e-01	1.896778e-02	2.946888e+00	9.996428e-01	1.000035e+00	-7.973572e-04	7.999477e-01	
1.937166e+01	4.973800e+00	9.998275e-01	9.465234e-01	1.901725e-02	2.947579e+00	9.997470e-01	9.999195e-01	-5.646919e-04	8.002900e-01	
1.859553e+01	7.362490e+00	9.998082e-01	9.465650e-01	1.910416e-02	2.947553e+00	9.997168e-01	9.999086e-01	-6.320315e-04	8.003464e-01	
1.752613e+01	9.635070e+00	9.997182e-01	9.465651e-01	1.909423e-02	2.947325e+00	9.996096e-01	9.998913e-01	-8.713910e-04	8.004253e-01	
1.618034e+01	1.175571e+01	9.996381e-01	9.466268e-01	1.907625e-02	2.947132e+00	9.994947e-01	9.998566e-01	-1.127869e-03	8.005552e-01	
1.457937e+01	1.369094e+01	9.995418e-01	9.466735e-01	1.905398e-02	2.946875e+00	9.993572e-01	9.998154e-01	-1.434742e-03	8.006879e-01	
1.274848e+01	1.541027e+01	9.994257e-01	9.466780e-01	1.902828e-02	2.946522e+00	9.991936e-01	9.997678e-01	-1.799951e-03	8.008034e-01	
1.071654e+01	1.688656e+01	9.992794e-01	9.466521e-01	1.900297e-02	2.946059e+00	9.989920e-01	9.997125e-01	-2.249905e-03	8.009205e-01	
8.515590e+00	1.809654e+01	9.991204e-01	9.465899e-01	1.899765e-02	2.945523e+00	9.987729e-01	9.996522e-01	-2.739108e-03	8.010194e-01	
6.180340e+00	1.902113e+01	9.990037e-01	9.465388e-01	1.899878e-02	2.945118e+00	9.986091e-01	9.996050e-01	-3.104756e-03	8.010887e-01	
3.747630e+00	1.964575e+01	9.989340e-01	9.464886e-01	1.912683e-02	2.944838e+00	9.985028e-01	9.995684e-01	-3.341941e-03	8.011189e-01	
1.255810e+00	1.996053e+01	9.989789e-01	9.464103e-01	1.936345e-02	2.944910e+00	9.985675e-01	9.995881e-01	-3.197545e-03	8.010127e-01	
-1.255810e+00	1.996053e+01	9.991154e-01	9.462204e-01	1.964215e-02	2.945164e+00	9.987634e-01	9.996477e-01	-2.760293e-03	8.007237e-01	
-3.747630e+00	1.964574e+01	9.993886e-01	9.461541e-01	1.995530e-02	2.945943e+00	9.991465e-01	9.997577e-01	-1.905171e-03	8.004103e-01	
-6.180340e+00	1.902113e+01	9.996222e-01	9.462068e-01	2.021802e-02	2.946712e+00	9.994737e-01	9.998515e-01	-1.174731e-03	8.002350e-01	
-8.515590e+00	1.809654e+01	9.998174e-01	9.463374e-01	2.045391e-02	2.947423e+00	9.997418e-01	9.999243e-01	-5.763557e-04	8.001642e-01	
-1.071654e+01	1.688656e+01	9.999314e-01	9.463454e-01	2.056859e-02	2.947790e+00	9.999050e-01	9.999736e-01	-2.121394e-04	8.000622e-01	
-1.274848e+01	1.541026e+01	1.000006e+00	9.463502e-01	2.064744e-02	2.948023e+00	1.000009e+00	1.000003e+00	2.105635e-05	7.999960e-01	
-1.457937e+01	1.369094e+01	1.000057e+00	9.463554e-01	2.068708e-02	2.948183e+00	1.000080e+00	1.000023e+00	1.789628e-04	7.999524e-01	
-1.618034e+01	1.175570e+01	1.000083e+00	9.463449e-01	2.070136e-02	2.948252e+00	1.000116e+00	1.000034e+00	2.596159e-04	7.999191e-01	
-1.752613e+01	9.635070e+00	1.000100e+00	9.463387e-01	2.070379e-02	2.948298e+00	1.000140e+00	1.000040e+00	3.120540e-04	7.998977e-01	
-1.859553e+01	7.362490e+00	1.000109e+00	9.463301e-01	2.069545e-02	2.948317e+00	1.000152e+00	1.000044e+00	3.401191e-04	7.998818e-01	
-1.937166e+01	4.973800e+00	1.000117e+00	9.463243e-01	2.068329e-02	2.948334e+00	1.000163e+00	1.000047e+00	3.641948e-04	7.998691e-01	
-1.984229e+01	2.506660e+00	1.000124e+00	9.463193e-01	2.066736e-02	2.948353e+00	1.000174e+00	1.000050e+00	3.880037e-04	7.998573e-01	