TITLE = "SU2 Simulation"
VARIABLES = "Iteration","CLift","CDrag","CSideForce","CMx","CMy","CMz","CFx","CFy","CFz","CL/CD","Res_Flow[0]","Res_Flow[1]","Res_Flow[2]","Res_Flow[3]","Res_Flow[4]","Linear_Solver_Iterations","CFL_Number","Time(min)"
ZONE T= "Convergence history"
         462, 3.22650074e-01, 1.17758054e-02, 0.00000000e+00, 0.00000000e+00, 0.00000000e+00, 2.32844675e-02, 4.73442878e-03, 3.22830180e-01, 0.00000000e+00, 2.73994061e+01, -4.55958110e+00, -4.46184447e+00, -5.10461994e+00, -3.96319753e+00, 0.00000000e+00, 2.0000000000, 10.0000000000, 0.0003376325
         463, 3.12999243e-01, 1.20048955e-02, 0.00000000e+00, 0.00000000e+00, 0.00000000e+00, 2.35818871e-02, 5.17399613e-03, 3.13186643e-01, 0.00000000e+00, 2.60726338e+01, -4.60293071e+00, -4.46847002e+00, -4.69646311e+00, -4.00161361e+00, 0.00000000e+00, 2.0000000000, 10.0000000000, 0.0006582499
         464, 3.09711233e-01, 1.16991309e-02, 0.00000000e+00, 0.00000000e+00, 0.00000000e+00, 2.02429255e-02, 4.94003191e-03, 3.09892745e-01, 0.00000000e+00, 2.64730120e+01, -4.65786422e+00, -4.56134134e+00, -4.69812756e+00, -4.06544973e+00, 0.00000000e+00, 2.0000000000, 10.0000000000, 0.0009757837
         465, 3.06339405e-01, 1.16162070e-02, 0.00000000e+00, 0.00000000e+00, 0.00000000e+00, 1.76675348e-02, 4.93068375e-03, 3.06519910e-01, 0.00000000e+00, 2.63717240e+01, -4.63847482e+00, -4.56958310e+00, -4.65089441e+00, -4.04201233e+00, 0.00000000e+00, 2.0000000000, 10.0000000000, 0.0012880007
         466, 3.02247119e-01, 1.15620569e-02, 0.00000000e+00, 0.00000000e+00, 0.00000000e+00, 1.58076673e-02, 4.96581923e-03, 3.02427418e-01, 0.00000000e+00, 2.61412933e+01, -4.57232448e+00, -4.52113622e+00, -4.59271345e+00, -3.97519338e+00, 0.00000000e+00, 2.0000000000, 10.0000000000, 0.0016011516
         467, 2.98538515e-01, 1.14595885e-02, 0.00000000e+00, 0.00000000e+00, 0.00000000e+00, 1.42890401e-02, 4.94427805e-03, 2.98717461e-01, 0.00000000e+00, 2.60514167e+01, -4.49607095e+00, -4.45106057e+00, -4.54122840e+00, -3.89832211e+00, 0.00000000e+00, 2.0000000000, 10.0000000000, 0.0019248009
         468, 2.95048474e-01, 1.13148563e-02, 0.00000000e+00, 0.00000000e+00, 0.00000000e+00, 1.30765781e-02, 4.87571511e-03, 2.95225092e-01, 0.00000000e+00, 2.60762016e+01, -4.42629904e+00, -4.38041101e+00, -4.49503949e+00, -3.82816518e+00, 0.00000000e+00, 2.0000000000, 10.0000000000, 0.0022137165
         469, 2.91821957e-01, 1.11103441e-02, 0.00000000e+00, 0.00000000e+00, 0.00000000e+00, 1.21675273e-02, 4.74163772e-03, 2.91994882e-01, 0.00000000e+00, 2.62657892e+01, -4.36707565e+00, -4.31810794e+00, -4.45202893e+00, -3.76953678e+00, 0.00000000e+00, 2.0000000000, 10.0000000000, 0.0025237163
         470, 2.88884924e-01, 1.08482712e-02, 0.00000000e+00, 0.00000000e+00, 0.00000000e+00, 1.14503687e-02, 4.54369824e-03, 2.89052831e-01, 0.00000000e+00, 2.66295816e+01, -4.31954245e+00, -4.26834506e+00, -4.41543187e+00, -3.72355658e+00, 0.00000000e+00, 2.0000000000, 10.0000000000, 0.0029431184
         471, 2.86196272e-01, 1.05543471e-02, 0.00000000e+00, 0.00000000e+00, 0.00000000e+00, 1.08258259e-02, 4.30849673e-03, 2.86358407e-01, 0.00000000e+00, 2.71164353e+01, -4.28312373e+00, -4.23071237e+00, -4.38838049e+00, -3.68938989e+00, 0.00000000e+00, 2.0000000000, 10.0000000000, 0.0032671014
         472, 2.83750906e-01, 1.02490470e-02, 0.00000000e+00, 0.00000000e+00, 0.00000000e+00, 1.02671725e-02, 4.05661458e-03, 2.83906963e-01, 0.00000000e+00, 2.76855894e+01, -4.25641860e+00, -4.20225458e+00, -4.37166951e+00, -3.66513435e+00, 0.00000000e+00, 2.0000000000, 10.0000000000, 0.0035741846
         473, 2.81500120e-01, 9.92565636e-03, 0.00000000e+00, 0.00000000e+00, 0.00000000e+00, 9.75536520e-03, 3.78240158e-03, 2.81649657e-01, 0.00000000e+00, 2.83608569e+01, -4.23897344e+00, -4.18252307e+00, -4.36730569e+00, -3.65030736e+00, 0.00000000e+00, 2.0000000000, 10.0000000000, 0.0038799008
         474, 2.79346749e-01, 9.62958313e-03, 0.00000000e+00, 0.00000000e+00, 0.00000000e+00, 9.25442412e-03, 3.53337434e-03, 2.79490340e-01, 0.00000000e+00, 2.90092255e+01, -4.23627599e+00, -4.18067578e+00, -4.38629010e+00, -3.65220825e+00, 0.00000000e+00, 2.0000000000, 10.0000000000, 0.0041880687
         475, 2.77540466e-01, 9.55659472e-03, 0.00000000e+00, 0.00000000e+00, 0.00000000e+00, 8.93055503e-03, 3.49980715e-03, 2.77682895e-01, 0.00000000e+00, 2.90417742e+01, -4.25712157e+00, -4.21505465e+00, -4.44523127e+00, -3.68366676e+00, 0.00000000e+00, 2.0000000000, 10.0000000000, 0.0045525511
         476, 2.76111587e-01, 9.58874601e-03, 0.00000000e+00, 0.00000000e+00, 0.00000000e+00, 8.83292201e-03, 3.56312162e-03, 2.76255057e-01, 0.00000000e+00, 2.87953802e+01, -4.28584090e+00, -4.27002876e+00, -4.51112687e+00, -3.72632262e+00, 0.00000000e+00, 2.0000000000, 10.0000000000, 0.0050232689
         477, 2.74434745e-01, 9.49352405e-03, 0.00000000e+00, 0.00000000e+00, 0.00000000e+00, 8.62340501e-03, 3.50450243e-03, 2.74576537e-01, 0.00000000e+00, 2.89075736e+01, -4.28726673e+00, -4.28331233e+00, -4.52102235e+00, -3.73014024e+00, 0.00000000e+00, 2.0000000000, 10.0000000000, 0.0055109501
         478, 2.72753761e-01, 9.41389513e-03, 0.00000000e+00, 0.00000000e+00, 0.00000000e+00, 8.31062144e-03, 3.46156294e-03, 2.72894216e-01, 0.00000000e+00, 2.89735287e+01, -4.30737011e+00, -4.32854220e+00, -4.56221947e+00, -3.75806949e+00, 0.00000000e+00, 2.0000000000, 10.0000000000, 0.0058884859
         479, 2.71085058e-01, 9.38045489e-03, 0.00000000e+00, 0.00000000e+00, 0.00000000e+00, 7.89056744e-03, 3.46453321e-03, 2.71225181e-01, 0.00000000e+00, 2.88989246e+01, -4.34051301e+00, -4.39411016e+00, -4.62103576e+00, -3.80377275e+00, 0.00000000e+00, 2.0000000000, 10.0000000000, 0.0062075496
         480, 2.69381221e-01, 9.29499283e-03, 0.00000000e+00, 0.00000000e+00, 0.00000000e+00, 7.36849965e-03, 3.41626050e-03, 2.69519885e-01, 0.00000000e+00, 2.89813264e+01, -4.37126089e+00, -4.45098032e+00, -4.67850555e+00, -3.84381534e+00, 0.00000000e+00, 2.0000000000, 10.0000000000, 0.0065310359
         481, 2.67484273e-01, 9.16340301e-03, 0.00000000e+00, 0.00000000e+00, 0.00000000e+00, 6.72046374e-03, 3.32608370e-03, 2.67620518e-01, 0.00000000e+00, 2.91904954e+01, -4.37578492e+00, -4.45827781e+00, -4.67849836e+00, -3.84466531e+00, 0.00000000e+00, 2.0000000000, 10.0000000000, 0.0069193006
         482, 2.65637648e-01, 9.03362856e-03, 0.00000000e+00, 0.00000000e+00, 0.00000000e+00, 6.13167023e-03, 3.23662405e-03, 2.65771501e-01, 0.00000000e+00, 2.94054207e+01, -4.37179086e+00, -4.45108585e+00, -4.65611713e+00, -3.83481359e+00, 0.00000000e+00, 2.0000000000, 10.0000000000, 0.0072870175
         483, 2.63925284e-01, 8.92314576e-03, 0.00000000e+00, 0.00000000e+00, 0.00000000e+00, 5.65469988e-03, 3.16352256e-03, 2.64057135e-01, 0.00000000e+00, 2.95776054e+01, -4.37340357e+00, -4.44879113e+00, -4.64593858e+00, -3.83371648e+00, 0.00000000e+00, 2.0000000000, 10.0000000000, 0.0076013009
         484, 2.62328165e-01, 8.83190426e-03, 0.00000000e+00, 0.00000000e+00, 0.00000000e+00, 5.27335618e-03, 3.10714374e-03, 2.62458405e-01, 0.00000000e+00, 2.97023334e+01, -4.37960743e+00, -4.45091030e+00, -4.64688377e+00, -3.83935071e+00, 0.00000000e+00, 2.0000000000, 10.0000000000, 0.0078999996
         485, 2.60869911e-01, 8.76345379e-03, 0.00000000e+00, 0.00000000e+00, 0.00000000e+00, 4.98482082e-03, 3.07052121e-03, 2.60999005e-01, 0.00000000e+00, 2.97679336e+01, -4.38946949e+00, -4.45816823e+00, -4.65657311e+00, -3.84975787e+00, 0.00000000e+00, 2.0000000000, 10.0000000000, 0.0081841509
         486, 2.59577183e-01, 8.71964222e-03, 0.00000000e+00, 0.00000000e+00, 0.00000000e+00, 4.79043356e-03, 3.05492077e-03, 2.59705629e-01, 0.00000000e+00, 2.97692470e+01, -4.40179367e+00, -4.46918082e+00, -4.67060168e+00, -3.86245682e+00, 0.00000000e+00, 2.0000000000, 10.0000000000, 0.0084871014
         487, 2.58452231e-01, 8.69599781e-03, 0.00000000e+00, 0.00000000e+00, 0.00000000e+00, 4.67988546e-03, 3.05582270e-03, 2.58580428e-01, 0.00000000e+00, 2.97208252e+01, -4.41353116e+00, -4.47730616e+00, -4.68274603e+00, -3.87316894e+00, 0.00000000e+00, 2.0000000000, 10.0000000000, 0.0087828517
         488, 2.57480149e-01, 8.68278306e-03, 0.00000000e+00, 0.00000000e+00, 0.00000000e+00, 4.62795819e-03, 3.06381696e-03, 2.57608289e-01, 0.00000000e+00, 2.96541036e+01, -4.42192076e+00, -4.47981301e+00, -4.69139027e+00, -3.87909220e+00, 0.00000000e+00, 2.0000000000, 10.0000000000, 0.0090749661
         489, 2.56632442e-01, 8.67187323e-03, 0.00000000e+00, 0.00000000e+00, 0.00000000e+00, 4.60287763e-03, 3.07140235e-03, 2.56760546e-01, 0.00000000e+00, 2.95936570e+01, -4.42891211e+00, -4.48015875e+00, -4.69875897e+00, -3.88335416e+00, 0.00000000e+00, 2.0000000000, 10.0000000000, 0.0093865156
         490, 2.55880576e-01, 8.65773784e-03, 0.00000000e+00, 0.00000000e+00, 0.00000000e+00, 4.58457276e-03, 3.07367218e-03, 2.56008551e-01, 0.00000000e+00, 2.95551310e+01, -4.43660683e+00, -4.48034658e+00, -4.70554897e+00, -3.88874750e+00, 0.00000000e+00, 2.0000000000, 10.0000000000, 0.0096902688
         491, 2.55207077e-01, 8.63557122e-03, 0.00000000e+00, 0.00000000e+00, 0.00000000e+00, 4.56286820e-03, 3.06620315e-03, 2.55334728e-01, 0.00000000e+00, 2.95530047e+01, -4.44538055e+00, -4.48219387e+00, -4.71235755e+00, -3.89582468e+00, 0.00000000e+00, 2.0000000000, 10.0000000000, 0.0099870682
         492, 2.54594637e-01, 8.60484428e-03, 0.00000000e+00, 0.00000000e+00, 0.00000000e+00, 4.53337160e-03, 3.04884382e-03, 2.54721764e-01, 0.00000000e+00, 2.95873614e+01, -4.45655644e+00, -4.48780073e+00, -4.72085453e+00, -3.90607636e+00, 0.00000000e+00, 2.0000000000, 10.0000000000, 0.0102802157
         493, 2.54034938e-01, 8.56773495e-03, 0.00000000e+00, 0.00000000e+00, 0.00000000e+00, 4.49482507e-03, 3.02395310e-03, 2.54161389e-01, 0.00000000e+00, 2.96501864e+01, -4.47085375e+00, -4.49829911e+00, -4.73214449e+00, -3.92024566e+00, 0.00000000e+00, 2.0000000000, 10.0000000000, 0.0105863690
         494, 2.53521415e-01, 8.52741112e-03, 0.00000000e+00, 0.00000000e+00, 0.00000000e+00, 4.44979380e-03, 2.99484131e-03, 2.53647108e-01, 0.00000000e+00, 2.97301738e+01, -4.48832907e+00, -4.51372309e+00, -4.74665782e+00, -3.93840151e+00, 0.00000000e+00, 2.0000000000, 10.0000000000, 0.0108814994
         495, 2.53048542e-01, 8.48818343e-03, 0.00000000e+00, 0.00000000e+00, 0.00000000e+00, 4.40556023e-03, 2.96593862e-03, 2.53173492e-01, 0.00000000e+00, 2.98118607e+01, -4.50889931e+00, -4.53372008e+00, -4.76473366e+00, -3.96028741e+00, 0.00000000e+00, 2.0000000000, 10.0000000000, 0.0111843189
         496, 2.52620252e-01, 8.45301193e-03, 0.00000000e+00, 0.00000000e+00, 0.00000000e+00, 4.36625922e-03, 2.94011857e-03, 2.52744537e-01, 0.00000000e+00, 2.98852355e+01, -4.53259198e+00, -4.55813015e+00, -4.78806873e+00, -3.98563140e+00, 0.00000000e+00, 2.0000000000, 10.0000000000, 0.0115020831
         497, 2.52238225e-01, 8.42420630e-03, 0.00000000e+00, 0.00000000e+00, 0.00000000e+00, 4.33581066e-03, 2.91965369e-03, 2.52361972e-01, 0.00000000e+00, 2.99420759e+01, -4.56040575e+00, -4.58714389e+00, -4.81767927e+00, -4.01546457e+00, 0.00000000e+00, 2.0000000000, 10.0000000000, 0.0118141691
         498, 2.51904885e-01, 8.40237810e-03, 0.00000000e+00, 0.00000000e+00, 0.00000000e+00, 4.31404397e-03, 2.90510246e-03, 2.52028235e-01, 0.00000000e+00, 2.99801891e+01, -4.59222235e+00, -4.62079042e+00, -4.85278216e+00, -4.04963625e+00, 0.00000000e+00, 2.0000000000, 10.0000000000, 0.0121010860
         499, 2.51619312e-01, 8.38745982e-03, 0.00000000e+00, 0.00000000e+00, 0.00000000e+00, 4.30033016e-03, 2.89641747e-03, 2.51742405e-01, 0.00000000e+00, 2.99994656e+01, -4.62748015e+00, -4.65874999e+00, -4.89292748e+00, -4.08777806e+00, 0.00000000e+00, 2.0000000000, 10.0000000000, 0.0124347011
         500, 2.51376721e-01, 8.37891693e-03, 0.00000000e+00, 0.00000000e+00, 0.00000000e+00, 4.29263879e-03, 2.89316870e-03, 2.51499686e-01, 0.00000000e+00, 3.00010996e+01, -4.66592102e+00, -4.70087901e+00, -4.93760867e+00, -4.12960712e+00, 0.00000000e+00, 2.0000000000, 10.0000000000, 0.0128034830
         501, 2.51170851e-01, 8.37576021e-03, 0.00000000e+00, 0.00000000e+00, 0.00000000e+00, 4.28871254e-03, 2.89450376e-03, 2.51293796e-01, 0.00000000e+00, 2.99878274e+01, -4.70840921e+00, -4.74645790e+00, -4.98617722e+00, -4.17577014e+00, 0.00000000e+00, 2.0000000000, 10.0000000000, 0.0131080508
         502, 2.50996597e-01, 8.37629166e-03, 0.00000000e+00, 0.00000000e+00, 0.00000000e+00, 4.28428191e-03, 2.89883643e-03, 2.51119594e-01, 0.00000000e+00, 2.99651214e+01, -4.75373807e+00, -4.79491639e+00, -5.03754307e+00, -4.22490898e+00, 0.00000000e+00, 2.0000000000, 10.0000000000, 0.0134134491
         503, 2.50842761e-01, 8.37868421e-03, 0.00000000e+00, 0.00000000e+00, 0.00000000e+00, 4.27397202e-03, 2.90458432e-03, 2.50965847e-01, 0.00000000e+00, 2.99382044e+01, -4.80159798e+00, -4.84599821e+00, -5.09208490e+00, -4.27663857e+00, 0.00000000e+00, 2.0000000000, 10.0000000000, 0.0137103001
         504, 2.50698579e-01, 8.38204062e-03, 0.00000000e+00, 0.00000000e+00, 0.00000000e+00, 4.25548015e-03, 2.91108524e-03, 2.50821773e-01, 0.00000000e+00, 2.99090151e+01, -4.85225865e+00, -4.89984015e+00, -5.15031561e+00, -4.33123051e+00, 0.00000000e+00, 2.0000000000, 10.0000000000, 0.0140213490
         505, 2.50555506e-01, 8.38472229e-03, 0.00000000e+00, 0.00000000e+00, 0.00000000e+00, 4.22361639e-03, 2.91688739e-03, 2.50678793e-01, 0.00000000e+00, 2.98823858e+01, -4.90583067e+00, -4.95638222e+00, -5.21517394e+00, -4.38848167e+00, 0.00000000e+00, 2.0000000000, 10.0000000000, 0.0143353661
         506, 2.50402759e-01, 8.38583237e-03, 0.00000000e+00, 0.00000000e+00, 0.00000000e+00, 4.17649421e-03, 2.92132937e-03, 2.50526106e-01, 0.00000000e+00, 2.98602152e+01, -4.96228498e+00, -5.01528326e+00, -5.28466932e+00, -4.44860108e+00, 0.00000000e+00, 2.0000000000, 10.0000000000, 0.0146321336
         507, 2.50230439e-01, 8.38515249e-03, 0.00000000e+00, 0.00000000e+00, 0.00000000e+00, 4.11468180e-03, 2.92440879e-03, 2.50353812e-01, 0.00000000e+00, 2.98420857e+01, -5.02133810e+00, -5.07510822e+00, -5.35610535e+00, -4.51099178e+00, 0.00000000e+00, 2.0000000000, 10.0000000000, 0.0149396022
         508, 2.50037829e-01, 8.38286507e-03, 0.00000000e+00, 0.00000000e+00, 0.00000000e+00, 4.03953383e-03, 2.92632368e-03, 2.50161198e-01, 0.00000000e+00, 2.98272520e+01, -5.08632157e+00, -5.13553381e+00, -5.42952558e+00, -4.57850735e+00, 0.00000000e+00, 2.0000000000, 10.0000000000, 0.0152479847
         509, 2.49818117e-01, 8.37794982e-03, 0.00000000e+00, 0.00000000e+00, 0.00000000e+00, 3.94910448e-03, 2.92620260e-03, 2.49941431e-01, 0.00000000e+00, 2.98185263e+01, -5.15688443e+00, -5.19729151e+00, -5.50594584e+00, -4.65094940e+00, 0.00000000e+00, 2.0000000000, 10.0000000000, 0.0155481656
         510, 2.49567669e-01, 8.36980144e-03, 0.00000000e+00, 0.00000000e+00, 0.00000000e+00, 3.84492994e-03, 2.92351965e-03, 2.49690865e-01, 0.00000000e+00, 2.98176332e+01, -5.23341473e+00, -5.26272267e+00, -5.58705655e+00, -4.72914907e+00, 0.00000000e+00, 2.0000000000, 10.0000000000, 0.0158477028
         511, 2.49284842e-01, 8.35849734e-03, 0.00000000e+00, 0.00000000e+00, 0.00000000e+00, 3.72993987e-03, 2.91838807e-03, 2.49407859e-01, 0.00000000e+00, 2.98241217e+01, -5.31596163e+00, -5.33170541e+00, -5.67247719e+00, -4.81312666e+00, 0.00000000e+00, 2.0000000000, 10.0000000000, 0.0161525170
         512, 2.48975053e-01, 8.34506239e-03, 0.00000000e+00, 0.00000000e+00, 0.00000000e+00, 3.60951531e-03, 2.91171434e-03, 2.49097850e-01, 0.00000000e+00, 2.98350140e+01, -5.40077453e+00, -5.39868548e+00, -5.75715526e+00, -4.89771574e+00, 0.00000000e+00, 2.0000000000, 10.0000000000, 0.0164602160
         513, 2.48654184e-01, 8.33234485e-03, 0.00000000e+00, 0.00000000e+00, 0.00000000e+00, 3.49181828e-03, 2.90599955e-03, 2.48776780e-01, 0.00000000e+00, 2.98420418e+01, -5.47735072e+00, -5.45018001e+00, -5.82603867e+00, -4.96926518e+00, 0.00000000e+00, 2.0000000000, 10.0000000000, 0.0167665362
         514, 2.48333065e-01, 8.32133797e-03, 0.00000000e+00, 0.00000000e+00, 0.00000000e+00, 3.38415909e-03, 2.90200046e-03, 2.48455497e-01, 0.00000000e+00, 2.98429250e+01, -5.53053691e+00, -5.47493164e+00, -5.86125428e+00, -5.01063716e+00, 0.00000000e+00, 2.0000000000, 10.0000000000, 0.0170633515
         515, 2.48008870e-01, 8.30894814e-03, 0.00000000e+00, 0.00000000e+00, 0.00000000e+00, 3.28588115e-03, 2.89668585e-03, 2.48131109e-01, 0.00000000e+00, 2.98484075e+01, -5.56215847e+00, -5.48187771e+00, -5.87033711e+00, -5.02874675e+00, 0.00000000e+00, 2.0000000000, 10.0000000000, 0.0173867861
         516, 2.47682373e-01, 8.29367313e-03, 0.00000000e+00, 0.00000000e+00, 0.00000000e+00, 3.19647308e-03, 2.88853696e-03, 2.47804357e-01, 0.00000000e+00, 2.98640143e+01, -5.59105318e+00, -5.49619433e+00, -5.88213681e+00, -5.04934131e+00, 0.00000000e+00, 2.0000000000, 10.0000000000, 0.0176983515
         517, 2.47358606e-01, 8.27758092e-03, 0.00000000e+00, 0.00000000e+00, 0.00000000e+00, 3.11601804e-03, 2.87951154e-03, 2.47480315e-01, 0.00000000e+00, 2.98829583e+01, -5.62574645e+00, -5.52783854e+00, -5.90860206e+00, -5.08228898e+00, 0.00000000e+00, 2.0000000000, 10.0000000000, 0.0180146178
         518, 2.47047991e-01, 8.26300577e-03, 0.00000000e+00, 0.00000000e+00, 0.00000000e+00, 3.04760196e-03, 2.87171588e-03, 2.47169457e-01, 0.00000000e+00, 2.98980780e+01, -5.65796393e+00, -5.56468834e+00, -5.93974152e+00, -5.11486067e+00, 0.00000000e+00, 2.0000000000, 10.0000000000, 0.0183106502
         519, 2.46755049e-01, 8.25028362e-03, 0.00000000e+00, 0.00000000e+00, 0.00000000e+00, 2.99202998e-03, 2.86538725e-03, 2.46876307e-01, 0.00000000e+00, 2.99086747e+01, -5.67218223e+00, -5.58488875e+00, -5.95128652e+00, -5.12568277e+00, 0.00000000e+00, 2.0000000000, 10.0000000000, 0.0186430693
         520, 2.46481571e-01, 8.23803741e-03, 0.00000000e+00, 0.00000000e+00, 0.00000000e+00, 2.94857549e-03, 2.85910985e-03, 2.46602627e-01, 0.00000000e+00, 2.99199383e+01, -5.67200630e+00, -5.59436728e+00, -5.94466751e+00, -5.12111400e+00, 0.00000000e+00, 2.0000000000, 10.0000000000, 0.0189391335
         521, 2.46228646e-01, 8.22648818e-03, 0.00000000e+00, 0.00000000e+00, 0.00000000e+00, 2.91488676e-03, 2.85308090e-03, 2.46349510e-01, 0.00000000e+00, 2.99311979e+01, -5.66860705e+00, -5.60769001e+00, -5.93599482e+00, -5.11606875e+00, 0.00000000e+00, 2.0000000000, 10.0000000000, 0.0192482511
         522, 2.45996028e-01, 8.21671578e-03, 0.00000000e+00, 0.00000000e+00, 0.00000000e+00, 2.88814666e-03, 2.84838535e-03, 2.46116734e-01, 0.00000000e+00, 2.99384857e+01, -5.66381911e+00, -5.62471804e+00, -5.92808262e+00, -5.11186171e+00, 0.00000000e+00, 2.0000000000, 10.0000000000, 0.0195554852
         523, 2.45784393e-01, 8.20853877e-03, 0.00000000e+00, 0.00000000e+00, 0.00000000e+00, 2.86737019e-03, 2.84482708e-03, 2.45904971e-01, 0.00000000e+00, 2.99425269e+01, -5.65508598e+00, -5.63870679e+00, -5.91741393e+00, -5.10391755e+00, 0.00000000e+00, 2.0000000000, 10.0000000000, 0.0198865493
         524, 2.45592978e-01, 8.20142432e-03, 0.00000000e+00, 0.00000000e+00, 0.00000000e+00, 2.85149277e-03, 2.84189003e-03, 2.45713446e-01, 0.00000000e+00, 2.99451617e+01, -5.64200754e+00, -5.64696977e+00, -5.90210791e+00, -5.09116602e+00, 0.00000000e+00, 2.0000000000, 10.0000000000, 0.0201805830
         525, 2.45420386e-01, 8.19516442e-03, 0.00000000e+00, 0.00000000e+00, 0.00000000e+00, 2.83944367e-03, 2.83939669e-03, 2.45540759e-01, 0.00000000e+00, 2.99469752e+01, -5.62704834e+00, -5.65205069e+00, -5.88482953e+00, -5.07677267e+00, 0.00000000e+00, 2.0000000000, 10.0000000000, 0.0204802990
         526, 2.45265333e-01, 8.18973509e-03, 0.00000000e+00, 0.00000000e+00, 0.00000000e+00, 2.83039124e-03, 2.83735113e-03, 2.45385624e-01, 0.00000000e+00, 2.99478957e+01, -5.61254768e+00, -5.65643115e+00, -5.86916765e+00, -5.06352815e+00, 0.00000000e+00, 2.0000000000, 10.0000000000, 0.0207692027
         527, 2.45126512e-01, 8.18507835e-03, 0.00000000e+00, 0.00000000e+00, 0.00000000e+00, 2.82379250e-03, 2.83572385e-03, 2.45246735e-01, 0.00000000e+00, 2.99479738e+01, -5.59974028e+00, -5.66064579e+00, -5.85655808e+00, -5.05252813e+00, 0.00000000e+00, 2.0000000000, 10.0000000000, 0.0210633357
         528, 2.45002561e-01, 8.18106028e-03, 0.00000000e+00, 0.00000000e+00, 0.00000000e+00, 2.81926865e-03, 2.83441070e-03, 2.45122726e-01, 0.00000000e+00, 2.99475316e+01, -5.58905293e+00, -5.66445278e+00, -5.84698323e+00, -5.04391050e+00, 0.00000000e+00, 2.0000000000, 10.0000000000, 0.0215485692
         529, 2.44892171e-01, 8.17755818e-03, 0.00000000e+00, 0.00000000e+00, 0.00000000e+00, 2.81650131e-03, 2.83331758e-03, 2.45012286e-01, 0.00000000e+00, 2.99468577e+01, -5.58085779e+00, -5.66808974e+00, -5.84065846e+00, -5.03794149e+00, 0.00000000e+00, 2.0000000000, 10.0000000000, 0.0220074018
         530, 2.44794164e-01, 8.17452378e-03, 0.00000000e+00, 0.00000000e+00, 0.00000000e+00, 2.81520977e-03, 2.83242192e-03, 2.44914236e-01, 0.00000000e+00, 2.99459847e+01, -5.57564150e+00, -5.67227707e+00, -5.83822510e+00, -5.03514131e+00, 0.00000000e+00, 2.0000000000, 10.0000000000, 0.0223622680
         531, 2.44707495e-01, 8.17194066e-03, 0.00000000e+00, 0.00000000e+00, 0.00000000e+00, 2.81514540e-03, 2.83173008e-03, 2.44827532e-01, 0.00000000e+00, 2.99448449e+01, -5.57381128e+00, -5.67772367e+00, -5.84019654e+00, -5.03592133e+00, 0.00000000e+00, 2.0000000000, 10.0000000000, 0.0226754189
         532, 2.44631195e-01, 8.16978140e-03, 0.00000000e+00, 0.00000000e+00, 0.00000000e+00, 2.81608182e-03, 2.83123581e-03, 2.44751203e-01, 0.00000000e+00, 2.99434200e+01, -5.57558356e+00, -5.68489318e+00, -5.84667937e+00, -5.04042394e+00, 0.00000000e+00, 2.0000000000, 10.0000000000, 0.0229686856
         533, 2.44564269e-01, 8.16804185e-03, 0.00000000e+00, 0.00000000e+00, 0.00000000e+00, 2.81790692e-03, 2.83095668e-03, 2.44684254e-01, 0.00000000e+00, 2.99416033e+01, -5.58107235e+00, -5.69412172e+00, -5.85758944e+00, -5.04867448e+00, 0.00000000e+00, 2.0000000000, 10.0000000000, 0.0233210683
         534, 2.44505838e-01, 8.16667365e-03, 0.00000000e+00, 0.00000000e+00, 0.00000000e+00, 2.82029251e-03, 2.83086345e-03, 2.44625807e-01, 0.00000000e+00, 2.99394648e+01, -5.59080263e+00, -5.70579821e+00, -5.87348341e+00, -5.06107956e+00, 0.00000000e+00, 2.0000000000, 10.0000000000, 0.0236740669
         535, 2.44455114e-01, 8.16565169e-03, 0.00000000e+00, 0.00000000e+00, 0.00000000e+00, 2.82300815e-03, 2.83094827e-03, 2.44575073e-01, 0.00000000e+00, 2.99370000e+01, -5.60448675e+00, -5.72075132e+00, -5.89404143e+00, -5.07735403e+00, 0.00000000e+00, 2.0000000000, 10.0000000000, 0.0239785512
         536, 2.44410972e-01, 8.16489245e-03, 0.00000000e+00, 0.00000000e+00, 0.00000000e+00, 2.82562949e-03, 2.83115217e-03, 2.44530925e-01, 0.00000000e+00, 2.99343774e+01, -5.62188580e+00, -5.73917073e+00, -5.91865947e+00, -5.09728509e+00, 0.00000000e+00, 2.0000000000, 10.0000000000, 0.0242837509
         537, 2.44372498e-01, 8.16433658e-03, 0.00000000e+00, 0.00000000e+00, 0.00000000e+00, 2.82789601e-03, 2.83143574e-03, 2.44492448e-01, 0.00000000e+00, 2.99317031e+01, -5.64323243e+00, -5.76136024e+00, -5.94722516e+00, -5.12123369e+00, 0.00000000e+00, 2.0000000000, 10.0000000000, 0.0245952527
         538, 2.44338952e-01, 8.16395546e-03, 0.00000000e+00, 0.00000000e+00, 0.00000000e+00, 2.82966921e-03, 2.83178650e-03, 2.44458902e-01, 0.00000000e+00, 2.99289913e+01, -5.66909624e+00, -5.78843486e+00, -5.98049445e+00, -5.14998206e+00, 0.00000000e+00, 2.0000000000, 10.0000000000, 0.0248955687
         539, 2.44309610e-01, 8.16372780e-03, 0.00000000e+00, 0.00000000e+00, 0.00000000e+00, 2.83082669e-03, 2.83219901e-03, 2.44429561e-01, 0.00000000e+00, 2.99262317e+01, -5.69974307e+00, -5.82088555e+00, -6.01853079e+00, -5.18378980e+00, 0.00000000e+00, 2.0000000000, 10.0000000000, 0.0252020359
         540, 2.44283773e-01, 8.16361865e-03, 0.00000000e+00, 0.00000000e+00, 0.00000000e+00, 2.83128730e-03, 2.83265350e-03, 2.44403729e-01, 0.00000000e+00, 2.99234670e+01, -5.73528100e+00, -5.85869487e+00, -6.06122931e+00, -5.22266318e+00, 0.00000000e+00, 2.0000000000, 10.0000000000, 0.0255006512
         541, 2.44260785e-01, 8.16359918e-03, 0.00000000e+00, 0.00000000e+00, 0.00000000e+00, 2.83099465e-03, 2.83313552e-03, 2.44380745e-01, 0.00000000e+00, 2.99207224e+01, -5.77587461e+00, -5.90186953e+00, -6.10870755e+00, -5.26669749e+00, 0.00000000e+00, 2.0000000000, 10.0000000000, 0.0258055170
         542, 2.44239908e-01, 8.16367069e-03, 0.00000000e+00, 0.00000000e+00, 0.00000000e+00, 2.83004016e-03, 2.83366244e-03, 2.44359875e-01, 0.00000000e+00, 2.99179030e+01, -5.82180165e+00, -5.95041066e+00, -6.16110578e+00, -5.31607399e+00, 0.00000000e+00, 2.0000000000, 10.0000000000, 0.0261025508
         543, 2.44220821e-01, 8.16383357e-03, 0.00000000e+00, 0.00000000e+00, 0.00000000e+00, 2.82843042e-03, 2.83424168e-03, 2.44340796e-01, 0.00000000e+00, 2.99149681e+01, -5.87283878e+00, -6.00317582e+00, -6.21763580e+00, -5.37016089e+00, 0.00000000e+00, 2.0000000000, 10.0000000000, 0.0264108181
         544, 2.44202671e-01, 8.16403876e-03, 0.00000000e+00, 0.00000000e+00, 0.00000000e+00, 2.82578456e-03, 2.83484274e-03, 2.44322655e-01, 0.00000000e+00, 2.99119931e+01, -5.92713779e+00, -6.05778862e+00, -6.27559700e+00, -5.42686910e+00, 0.00000000e+00, 2.0000000000, 10.0000000000, 0.0267047524
         545, 2.44184769e-01, 8.16418551e-03, 0.00000000e+00, 0.00000000e+00, 0.00000000e+00, 2.82208760e-03, 2.83537998e-03, 2.44304761e-01, 0.00000000e+00, 2.99092627e+01, -5.98382219e+00, -6.11397467e+00, -6.33415046e+00, -5.48530566e+00, 0.00000000e+00, 2.0000000000, 10.0000000000, 0.0270019849
         546, 2.44167061e-01, 8.16420094e-03, 0.00000000e+00, 0.00000000e+00, 0.00000000e+00, 2.81774267e-03, 2.83578170e-03, 2.44287057e-01, 0.00000000e+00, 2.99070372e+01, -6.04252644e+00, -6.17135606e+00, -6.39464856e+00, -5.54512178e+00, 0.00000000e+00, 2.0000000000, 10.0000000000, 0.0273407340
         547, 2.44149578e-01, 8.16413702e-03, 0.00000000e+00, 0.00000000e+00, 0.00000000e+00, 2.81308000e-03, 2.83609920e-03, 2.44269576e-01, 0.00000000e+00, 2.99051299e+01, -6.10115224e+00, -6.22574708e+00, -6.45473912e+00, -5.60358898e+00, 0.00000000e+00, 2.0000000000, 10.0000000000, 0.0277227998
         548, 2.44132416e-01, 8.16406596e-03, 0.00000000e+00, 0.00000000e+00, 0.00000000e+00, 2.80838883e-03, 2.83640255e-03, 2.44252417e-01, 0.00000000e+00, 2.99032880e+01, -6.15629802e+00, -6.27283262e+00, -6.50944401e+00, -5.65676318e+00, 0.00000000e+00, 2.0000000000, 10.0000000000, 0.0280227860
         549, 2.44115593e-01, 8.16398639e-03, 0.00000000e+00, 0.00000000e+00, 0.00000000e+00, 2.80385856e-03, 2.83668998e-03, 2.44235597e-01, 0.00000000e+00, 2.99015189e+01, -6.20728095e+00, -6.31476857e+00, -6.55823285e+00, -5.70482542e+00, 0.00000000e+00, 2.0000000000, 10.0000000000, 0.0283310016
         550, 2.44099107e-01, 8.16382227e-03, 0.00000000e+00, 0.00000000e+00, 0.00000000e+00, 2.79960996e-03, 2.83688554e-03, 2.44219111e-01, 0.00000000e+00, 2.99001006e+01, -6.25404015e+00, -6.35357013e+00, -6.60266704e+00, -5.74841292e+00, 0.00000000e+00, 2.0000000000, 10.0000000000, 0.0286530177
         551, 2.44083043e-01, 8.16352907e-03, 0.00000000e+00, 0.00000000e+00, 0.00000000e+00, 2.79576088e-03, 2.83694286e-03, 2.44203044e-01, 0.00000000e+00, 2.98992066e+01, -6.29550504e+00, -6.38806433e+00, -6.64235711e+00, -5.78633459e+00, 0.00000000e+00, 2.0000000000, 10.0000000000, 0.0289661010
         552, 2.44067518e-01, 8.16315859e-03, 0.00000000e+00, 0.00000000e+00, 0.00000000e+00, 2.79239177e-03, 2.83691114e-03, 2.44187515e-01, 0.00000000e+00, 2.98986618e+01, -6.33104033e+00, -6.41745008e+00, -6.67639891e+00, -5.81789625e+00, 0.00000000e+00, 2.0000000000, 10.0000000000, 0.0292605837
         553, 2.44052684e-01, 8.16279617e-03, 0.00000000e+00, 0.00000000e+00, 0.00000000e+00, 2.78956282e-03, 2.83687239e-03, 2.44172677e-01, 0.00000000e+00, 2.98981721e+01, -6.36111549e+00, -6.44304010e+00, -6.70409126e+00, -5.84405660e+00, 0.00000000e+00, 2.0000000000, 10.0000000000, 0.0295689344
         554, 2.44038669e-01, 8.16246857e-03, 0.00000000e+00, 0.00000000e+00, 0.00000000e+00, 2.78729110e-03, 2.83685060e-03, 2.44158658e-01, 0.00000000e+00, 2.98976550e+01, -6.38607660e+00, -6.46545743e+00, -6.72473916e+00, -5.86549963e+00, 0.00000000e+00, 2.0000000000, 10.0000000000, 0.0298670014
         555, 2.44025388e-01, 8.16215556e-03, 0.00000000e+00, 0.00000000e+00, 0.00000000e+00, 2.78543008e-03, 2.83682741e-03, 2.44145373e-01, 0.00000000e+00, 2.98971744e+01, -6.40613880e+00, -6.48375694e+00, -6.73936066e+00, -5.88227479e+00, 0.00000000e+00, 2.0000000000, 10.0000000000, 0.0301629663
         556, 2.44012974e-01, 8.16182932e-03, 0.00000000e+00, 0.00000000e+00, 0.00000000e+00, 2.78391875e-03, 2.83677205e-03, 2.44132955e-01, 0.00000000e+00, 2.98968484e+01, -6.42294639e+00, -6.49900409e+00, -6.75171274e+00, -5.89618584e+00, 0.00000000e+00, 2.0000000000, 10.0000000000, 0.0304732164
         557, 2.44001338e-01, 8.16151073e-03, 0.00000000e+00, 0.00000000e+00, 0.00000000e+00, 2.78262729e-03, 2.83670738e-03, 2.44121314e-01, 0.00000000e+00, 2.98965897e+01, -6.43930570e+00, -6.51452703e+00, -6.76593730e+00, -5.91061788e+00, 0.00000000e+00, 2.0000000000, 10.0000000000, 0.0307677190
         558, 2.43990577e-01, 8.16117572e-03, 0.00000000e+00, 0.00000000e+00, 0.00000000e+00, 2.78152274e-03, 2.83660720e-03, 2.44110549e-01, 0.00000000e+00, 2.98964984e+01, -6.45523580e+00, -6.53129393e+00, -6.78087895e+00, -5.92543415e+00, 0.00000000e+00, 2.0000000000, 10.0000000000, 0.0310613672
         559, 2.43980434e-01, 8.16084067e-03, 0.00000000e+00, 0.00000000e+00, 0.00000000e+00, 2.78045896e-03, 2.83649349e-03, 2.44100401e-01, 0.00000000e+00, 2.98964830e+01, -6.47113617e+00, -6.54827132e+00, -6.79804918e+00, -5.94073732e+00, 0.00000000e+00, 2.0000000000, 10.0000000000, 0.0313731829
         560, 2.43970878e-01, 8.16044922e-03, 0.00000000e+00, 0.00000000e+00, 0.00000000e+00, 2.77939082e-03, 2.83631060e-03, 2.44090839e-01, 0.00000000e+00, 2.98967461e+01, -6.48623004e+00, -6.56592594e+00, -6.81419641e+00, -5.95547728e+00, 0.00000000e+00, 2.0000000000, 10.0000000000, 0.0316675186