# vtk DataFile Version 3.0
vtk output
ASCII
DATASET UNSTRUCTURED_GRID
POINTS 5233 float
9.997500e-01	-3.633236e-05	0.0	9.990000e-01	-1.454683e-04	0.0	9.977600e-01	-3.274632e-04	0.0	9.960200e-01	-5.896883e-04	0.0	9.937800e-01	-9.462313e-04	0.0	9.910500e-01	-1.419708e-03	0.0	9.878400e-01	-2.040082e-03	0.0	9.841300e-01	-2.843000e-03	0.0	9.799500e-01	-3.840385e-03	0.0	9.752800e-01	-5.029377e-03	0.0	9.701500e-01	-6.363792e-03	0.0	9.645400e-01	-7.786123e-03	0.0	9.584700e-01	-9.222233e-03	0.0	9.519400e-01	-1.061770e-02	0.0	9.449600e-01	-1.194507e-02	0.0	9.375400e-01	-1.320871e-02	0.0	9.296900e-01	-1.443553e-02	0.0	9.214000e-01	-1.566329e-02	0.0	9.127000e-01	-1.691884e-02	0.0	9.035800e-01	-1.822296e-02	0.0	8.940600e-01	-1.957928e-02	0.0	8.841500e-01	-2.098329e-02	0.0	8.738500e-01	-2.242693e-02	0.0	8.631800e-01	-2.389824e-02	0.0	8.521600e-01	-2.538667e-02	0.0	8.407700e-01	-2.688908e-02	0.0	8.290500e-01	-2.839625e-02	0.0	8.170100e-01	-2.990435e-02	0.0	8.046400e-01	-3.141253e-02	0.0	7.919700e-01	-3.291515e-02	0.0	7.790100e-01	-3.440895e-02	0.0	7.657800e-01	-3.588936e-02	0.0	7.522800e-01	-3.735384e-02	0.0	7.385200e-01	-3.879858e-02	0.0	7.245300e-01	-4.021774e-02	0.0	7.103200e-01	-4.160772e-02	0.0	6.958900e-01	-4.296599e-02	0.0	6.812700e-01	-4.428737e-02	0.0	6.664700e-01	-4.556884e-02	0.0	6.515000e-01	-4.680764e-02	0.0	6.363800e-01	-4.800042e-02	0.0	6.211300e-01	-4.914423e-02	0.0	6.057600e-01	-5.023717e-02	0.0	5.902800e-01	-5.127754e-02	0.0	5.747100e-01	-5.226321e-02	0.0	5.590600e-01	-5.319293e-02	0.0	5.433600e-01	-5.406451e-02	0.0	5.276100e-01	-5.487765e-02	0.0	5.118400e-01	-5.563059e-02	0.0	4.960500e-01	-5.632315e-02	0.0	4.802700e-01	-5.695389e-02	0.0	4.645100e-01	-5.752226e-02	0.0	4.487800e-01	-5.802771e-02	0.0	4.331100e-01	-5.846902e-02	0.0	4.175000e-01	-5.884587e-02	0.0	4.019700e-01	-5.915726e-02	0.0	3.865400e-01	-5.940221e-02	0.0	3.712300e-01	-5.957976e-02	0.0	3.560400e-01	-5.968905e-02	0.0	3.409900e-01	-5.972888e-02	0.0	3.261100e-01	-5.969811e-02	0.0	3.114000e-01	-5.959555e-02	0.0	2.968700e-01	-5.941986e-02	0.0	2.825500e-01	-5.916994e-02	0.0	2.684500e-01	-5.884454e-02	0.0	2.545700e-01	-5.844202e-02	0.0	2.409400e-01	-5.796158e-02	0.0	2.275700e-01	-5.740201e-02	0.0	2.144700e-01	-5.676211e-02	0.0	2.016600e-01	-5.604130e-02	0.0	1.891400e-01	-5.523801e-02	0.0	1.769300e-01	-5.435194e-02	0.0	1.650400e-01	-5.338240e-02	0.0	1.534900e-01	-5.232975e-02	0.0	1.422900e-01	-5.119386e-02	0.0	1.314400e-01	-4.997363e-02	0.0	1.209500e-01	-4.866896e-02	0.0	1.108500e-01	-4.728283e-02	0.0	1.011300e-01	-4.581321e-02	0.0	9.181000e-02	-4.426239e-02	0.0	8.290000e-02	-4.263165e-02	0.0	7.440000e-02	-4.092053e-02	0.0	6.633000e-02	-3.913271e-02	0.0	5.869000e-02	-3.726805e-02	0.0	5.149000e-02	-3.532873e-02	0.0	4.474000e-02	-3.331738e-02	0.0	3.844000e-02	-3.123383e-02	0.0	3.260000e-02	-2.908103e-02	0.0	2.723000e-02	-2.686273e-02	0.0	2.232000e-02	-2.457400e-02	0.0	1.790000e-02	-2.222879e-02	0.0	1.395000e-02	-1.981634e-02	0.0	1.049000e-02	-1.734777e-02	0.0	7.520000e-03	-1.482384e-02	0.0	5.040000e-03	-1.224448e-02	0.0	3.050000e-03	-9.607783e-03	0.0	1.560000e-03	-6.928203e-03	0.0	5.600000e-04	-4.183623e-03	0.0	6.000000e-05	-1.378924e-03	0.0	0.000000e+00	0.000000e+00	0.0	6.000000e-05	1.261441e-03	0.0	5.600000e-04	3.615992e-03	0.0	1.560000e-03	5.773146e-03	0.0	3.050000e-03	7.785453e-03	0.0	5.040000e-03	9.698075e-03	0.0	7.520000e-03	1.151876e-02	0.0	1.049000e-02	1.326236e-02	0.0	1.395000e-02	1.493919e-02	0.0	1.790000e-02	1.655694e-02	0.0	2.232000e-02	1.811501e-02	0.0	2.723000e-02	1.962629e-02	0.0	3.260000e-02	2.108645e-02	0.0	3.844000e-02	2.250297e-02	0.0	4.474000e-02	2.387702e-02	0.0	5.149000e-02	2.520981e-02	0.0	5.869000e-02	2.650423e-02	0.0	6.633000e-02	2.776090e-02	0.0	7.440000e-02	2.898042e-02	0.0	8.290000e-02	3.016463e-02	0.0	9.181000e-02	3.131246e-02	0.0	1.011300e-01	3.242541e-02	0.0	1.108500e-01	3.350352e-02	0.0	1.209500e-01	3.454574e-02	0.0	1.314400e-01	3.555404e-02	0.0	1.422900e-01	3.652628e-02	0.0	1.534900e-01	3.746237e-02	0.0	1.650400e-01	3.836286e-02	0.0	1.769300e-01	3.922726e-02	0.0	1.891400e-01	4.005434e-02	0.0	2.016600e-01	4.084356e-02	0.0	2.144700e-01	4.159364e-02	0.0	2.275700e-01	4.230443e-02	0.0	2.409400e-01	4.297447e-02	0.0	2.545700e-01	4.360274e-02	0.0	2.684500e-01	4.418805e-02	0.0	2.825500e-01	4.472833e-02	0.0	2.968700e-01	4.522257e-02	0.0	3.114000e-01	4.566917e-02	0.0	3.261100e-01	4.606579e-02	0.0	3.409900e-01	4.641067e-02	0.0	3.560400e-01	4.670199e-02	0.0	3.712300e-01	4.693723e-02	0.0	3.865400e-01	4.711405e-02	0.0	4.019700e-01	4.723026e-02	0.0	4.175000e-01	4.728332e-02	0.0	4.331100e-01	4.727074e-02	0.0	4.487800e-01	4.719010e-02	0.0	4.645100e-01	4.703887e-02	0.0	4.802700e-01	4.681481e-02	0.0	4.960500e-01	4.651564e-02	0.0	5.118400e-01	4.613917e-02	0.0	5.276100e-01	4.568391e-02	0.0	5.433600e-01	4.514789e-02	0.0	5.590600e-01	4.453041e-02	0.0	5.747100e-01	4.383005e-02	0.0	5.902800e-01	4.304713e-02	0.0	6.057600e-01	4.218165e-02	0.0	6.211300e-01	4.123473e-02	0.0	6.363800e-01	4.020753e-02	0.0	6.515000e-01	3.910183e-02	0.0	6.664700e-01	3.792081e-02	0.0	6.812700e-01	3.666858e-02	0.0	6.958900e-01	3.534923e-02	0.0	7.103200e-01	3.396754e-02	0.0	7.245300e-01	3.253108e-02	0.0	7.385200e-01	3.104527e-02	0.0	7.522800e-01	2.951714e-02	0.0	7.657800e-01	2.795668e-02	0.0	7.790100e-01	2.637242e-02	0.0	7.919700e-01	2.477215e-02	0.0	8.046400e-01	2.316652e-02	0.0	8.170100e-01	2.156531e-02	0.0	8.290500e-01	1.998099e-02	0.0	8.407700e-01	1.842047e-02	0.0	8.521600e-01	1.689228e-02	0.0	8.631800e-01	1.540738e-02	0.0	8.738500e-01	1.396637e-02	0.0	8.841500e-01	1.257264e-02	0.0	8.940600e-01	1.122756e-02	0.0	9.035800e-01	9.929633e-03	0.0	9.127000e-01	8.681662e-03	0.0	9.214000e-01	7.494562e-03	0.0	9.296900e-01	6.384627e-03	0.0	9.375400e-01	5.382376e-03	0.0	9.449600e-01	4.516386e-03	0.0	9.519400e-01	3.811142e-03	0.0	9.584700e-01	3.272703e-03	0.0	9.645400e-01	2.881371e-03	0.0	9.701500e-01	2.593232e-03	0.0	9.752800e-01	2.353706e-03	0.0	9.799500e-01	2.111550e-03	0.0	9.841300e-01	1.837704e-03	0.0	9.878400e-01	1.525341e-03	0.0	9.910500e-01	1.192593e-03	0.0	9.937800e-01	8.638867e-04	0.0	9.960200e-01	5.668656e-04	0.0	9.977600e-01	3.232326e-04	0.0	9.990000e-01	1.450824e-04	0.0	9.997500e-01	3.632625e-05	0.0	1.000000e+00	0.000000e+00	0.0	1.984229e+01	2.506660e+00	0.0	1.937166e+01	4.973800e+00	0.0	1.859553e+01	7.362490e+00	0.0	1.752613e+01	9.635070e+00	0.0	1.618034e+01	1.175571e+01	0.0	1.457937e+01	1.369094e+01	0.0	1.274848e+01	1.541027e+01	0.0	1.071654e+01	1.688656e+01	0.0	8.515590e+00	1.809654e+01	0.0	6.180340e+00	1.902113e+01	0.0	3.747630e+00	1.964575e+01	0.0	1.255810e+00	1.996053e+01	0.0	-1.255810e+00	1.996053e+01	0.0	-3.747630e+00	1.964574e+01	0.0	-6.180340e+00	1.902113e+01	0.0	-8.515590e+00	1.809654e+01	0.0	-1.071654e+01	1.688656e+01	0.0	-1.274848e+01	1.541026e+01	0.0	-1.457937e+01	1.369094e+01	0.0	-1.618034e+01	1.175570e+01	0.0	-1.752613e+01	9.635070e+00	0.0	-1.859553e+01	7.362490e+00	0.0	-1.937166e+01	4.973800e+00	0.0	-1.984229e+01	2.506660e+00	0.0	-2.000000e+01	0.000000e+00	0.0	-1.984229e+01	-2.506670e+00	0.0	-1.937166e+01	-4.973800e+00	0.0	-1.859553e+01	-7.362490e+00	0.0	-1.752613e+01	-9.635080e+00	0.0	-1.618034e+01	-1.175571e+01	0.0	-1.457937e+01	-1.369094e+01	0.0	-1.274848e+01	-1.541027e+01	0.0	-1.071653e+01	-1.688656e+01	0.0	-8.515580e+00	-1.809654e+01	0.0	-6.180340e+00	-1.902113e+01	0.0	-3.747620e+00	-1.964575e+01	0.0	-1.255810e+00	-1.996053e+01	0.0	1.255810e+00	-1.996053e+01	0.0	3.747630e+00	-1.964574e+01	0.0	6.180340e+00	-1.902113e+01	0.0	8.515590e+00	-1.809654e+01	0.0	1.071654e+01	-1.688656e+01	0.0	1.274848e+01	-1.541026e+01	0.0	1.457937e+01	-1.369094e+01	0.0	1.618034e+01	-1.175570e+01	0.0	1.752614e+01	-9.635070e+00	0.0	1.859553e+01	-7.362490e+00	0.0	1.937166e+01	-4.973790e+00	0.0	1.984229e+01	-2.506660e+00	0.0	2.000000e+01	0.000000e+00	0.0	6.074650e-02	-4.513402e-02	0.0	6.601891e-01	-5.985082e-02	0.0	4.255452e-01	6.150703e-02	0.0	6.897573e-01	4.922604e-02	0.0	3.791237e-01	-7.354602e-02	0.0	9.994673e-01	-7.274776e-04	0.0	9.985542e-01	-1.331077e-03	0.0	7.738098e-01	-4.722102e-02	0.0	6.898598e-01	-5.697076e-02	0.0	-1.119742e-03	5.504920e-03	0.0	7.467776e-01	-5.062627e-02	0.0	5.833188e-01	5.752802e-02	0.0	9.928149e-01	-3.733174e-03	0.0	9.899344e-01	-4.738523e-03	0.0	5.988953e-01	5.661502e-02	0.0	7.187633e-01	-5.388288e-02	0.0	-1.463002e-03	6.003414e-04	0.0	9.865703e-01	-5.896625e-03	0.0	9.827298e-01	-7.210403e-03	0.0	-1.291552e-03	-6.438752e-03	0.0	6.451064e-01	-6.120563e-02	0.0	8.244767e-01	-4.013029e-02	0.0	7.997378e-01	-4.371973e-02	0.0	3.484786e-01	6.034344e-02	0.0	8.478960e-01	-3.650891e-02	0.0	2.473706e-01	5.585538e-02	0.0	8.699354e-01	-3.287968e-02	0.0	1.046882e-02	1.730928e-02	0.0	8.904886e-01	-2.929841e-02	0.0	7.702358e-02	-4.951725e-02	0.0	9.094834e-01	-2.581923e-02	0.0	-1.759076e-03	-3.190658e-03	0.0	9.424750e-01	-1.907867e-02	0.0	9.268398e-01	-2.244385e-02	0.0	1.795858e-02	-2.734445e-02	0.0	4.257433e-01	-7.296339e-02	0.0	8.590973e-01	-3.468984e-02	0.0	9.563285e-01	-1.559793e-02	0.0	9.784048e-01	-8.701147e-03	0.0	9.683242e-01	-1.203511e-02	0.0	1.582595e-01	-6.344995e-02	0.0	9.001877e-01	-2.754413e-02	0.0	7.604266e-01	-4.893914e-02	0.0	9.971355e-01	-2.086502e-03	0.0	5.990524e-01	-6.489472e-02	0.0	4.414461e-01	-7.260768e-02	0.0	5.363226e-01	-6.885808e-02	0.0	4.730182e-01	-7.166194e-02	0.0	5.046794e-01	-7.040989e-02	0.0	4.888368e-01	-7.107298e-02	0.0	1.249471e-01	-5.891550e-02	0.0	2.785340e-02	-3.280473e-02	0.0	3.945699e-01	-7.343433e-02	0.0	4.622528e-02	-4.043675e-02	0.0	4.101111e-01	-7.324042e-02	0.0	3.187133e-01	-7.315946e-02	0.0	3.486121e-01	-7.352542e-02	0.0	3.351600e-02	-3.541130e-02	0.0	2.895080e-01	-7.245069e-02	0.0	9.348773e-01	-2.076774e-02	0.0	1.468012e-01	-6.202896e-02	0.0	1.946391e-01	-6.713583e-02	0.0	8.579680e-02	-5.157949e-02	0.0	1.045863e-01	-5.543898e-02	0.0	5.678251e-01	-6.702352e-02	0.0	1.700617e-01	-6.477713e-02	0.0	6.145296e-01	-6.372694e-02	0.0	8.804062e-01	-3.108044e-02	0.0	2.267819e-02	-3.011408e-02	0.0	9.952211e-01	-2.868561e-03	0.0	6.748332e-03	-1.871230e-02	0.0	1.849629e-02	2.147377e-02	0.0	9.183700e-01	-2.412191e-02	0.0	9.49632
[...]
POINT_DATA 5233

SCALARS Conservative_1 float 1
LOOKUP_TABLE default
-1.781932e-01	-2.177090e-01	-2.142626e-01	-2.116035e-01	-2.111399e-01	-2.081910e-01	-2.011703e-01	-1.878026e-01	-1.664096e-01	-1.365132e-01	-9.970055e-02	-5.982166e-02	-2.298762e-02	4.425103e-03	1.887824e-02	2.187689e-02	1.877668e-02	1.499392e-02	1.391023e-02	1.643053e-02	2.222300e-02	3.033776e-02	3.969942e-02	4.954888e-02	5.930679e-02	6.879293e-02	7.795171e-02	8.686619e-02	9.572620e-02	1.045910e-01	1.135825e-01	1.226915e-01	1.318830e-01	1.410910e-01	1.502571e-01	1.593406e-01	1.683668e-01	1.773739e-01	1.863182e-01	1.951339e-01	2.037521e-01	2.121471e-01	2.202956e-01	2.282103e-01	2.358925e-01	2.433601e-01	2.506248e-01	2.577122e-01	2.647154e-01	2.716900e-01	2.786572e-01	2.855170e-01	2.919734e-01	2.977769e-01	3.030728e-01	3.083339e-01	3.140446e-01	3.204322e-01	3.275166e-01	3.351799e-01	3.434487e-01	3.523057e-01	3.616107e-01	3.706888e-01	3.782483e-01	3.824464e-01	3.815967e-01	3.748843e-01	3.632439e-01	3.490760e-01	3.352738e-01	3.235718e-01	3.137662e-01	3.041292e-01	2.928329e-01	2.793270e-01	2.640870e-01	2.476847e-01	2.300664e-01	2.110257e-01	1.904291e-01	1.681833e-01	1.441346e-01	1.180558e-01	8.967180e-02	5.875599e-02	2.492282e-02	-1.209672e-02	-5.279409e-02	-9.740147e-02	-1.463389e-01	-1.994037e-01	-2.566351e-01	-3.157128e-01	-3.750773e-01	-4.270870e-01	-4.685547e-01	-4.959297e-01	-4.926518e-01	-4.644901e-01	-4.259346e-01	-3.383506e-01	-1.967848e-01	-4.475815e-02	9.491182e-02	2.121472e-01	2.979490e-01	3.506646e-01	3.822840e-01	4.131333e-01	4.522322e-01	4.912310e-01	5.174539e-01	5.258614e-01	5.202892e-01	5.077716e-01	4.932202e-01	4.786735e-01	4.648479e-01	4.520723e-01	4.403945e-01	4.294519e-01	4.190974e-01	4.096276e-01	4.014136e-01	3.945267e-01	3.886560e-01	3.834676e-01	3.788816e-01	3.749667e-01	3.718172e-01	3.694051e-01	3.676318e-01	3.664408e-01	3.656824e-01	3.652360e-01	3.649174e-01	3.647124e-01	3.646621e-01	3.649460e-01	3.656911e-01	3.669021e-01	3.680993e-01	3.679484e-01	3.643317e-01	3.553995e-01	3.411906e-01	3.241443e-01	3.076416e-01	2.937187e-01	2.822824e-01	2.721420e-01	2.620553e-01	2.513515e-01	2.398556e-01	2.275017e-01	2.143781e-01	2.005894e-01	1.862743e-01	1.714831e-01	1.563156e-01	1.408342e-01	1.250819e-01	1.091574e-01	9.308423e-02	7.697026e-02	6.086892e-02	4.491610e-02	2.915630e-02	1.368929e-02	-1.455622e-03	-1.616092e-02	-3.033641e-02	-4.385517e-02	-5.671385e-02	-6.875478e-02	-8.022158e-02	-9.133883e-02	-1.025671e-01	-1.144401e-01	-1.274047e-01	-1.414922e-01	-1.561308e-01	-1.699975e-01	-1.813839e-01	-1.885283e-01	-1.901557e-01	-1.859747e-01	-1.771543e-01	-1.666384e-01	-1.587491e-01	-1.578365e-01	-1.660587e-01	-1.826368e-01	-2.051138e-01	-2.316285e-01	-2.566115e-01	-2.809089e-01	-3.777662e-01	-2.900890e-01	-1.206106e-04	-1.181064e-04	-1.144335e-04	-1.107521e-04	-1.047810e-04	-9.588530e-05	-7.820635e-05	-5.516401e-05	-1.775555e-05	3.694142e-05	1.329705e-04	2.588675e-04	3.846610e-04	4.327655e-04	4.178202e-04	3.836485e-04	3.368184e-04	2.904508e-04	2.409343e-04	1.903084e-04	1.444346e-04	1.092756e-04	8.251565e-05	5.137400e-05	1.064533e-05	1.198063e-06	-1.607973e-05	-4.094366e-05	-6.989224e-05	-8.468319e-05	-9.593293e-05	-1.013498e-04	-9.977536e-05	-8.967195e-05	-7.359861e-05	-5.224036e-05	-3.340178e-05	-3.926619e-05	-6.465691e-05	-9.402778e-05	-1.199394e-04	-1.345606e-04	-1.407581e-04	-1.417211e-04	-1.393949e-04	-1.355555e-04	-1.323406e-04	-1.293847e-04	-1.247671e-04	-1.231518e-04	1.012091e-01	1.810132e-01	3.546276e-01	1.288262e-01	3.055803e-01	-2.161465e-01	-2.210985e-01	1.095825e-01	1.634139e-01	-3.063896e-01	1.276145e-01	2.275338e-01	-2.079980e-01	-2.011462e-01	2.149843e-01	1.456436e-01	-4.335385e-01	-1.903465e-01	-1.742198e-01	-4.689752e-01	1.896074e-01	7.417880e-02	9.182275e-02	3.597276e-01	5.608908e-02	3.606133e-01	3.728745e-02	2.096088e-01	1.972217e-02	1.514416e-01	8.087367e-03	-4.817302e-01	1.567799e-03	5.466532e-03	-1.518534e-01	2.894320e-01	4.672191e-02	-3.009507e-02	-1.519007e-01	-9.159938e-02	2.885133e-01	1.283395e-02	1.185647e-01	-2.161623e-01	2.141115e-01	2.840300e-01	2.437503e-01	2.713304e-01	2.576089e-01	2.644615e-01	2.485754e-01	-6.509669e-02	2.997853e-01	4.247097e-02	2.945189e-01	3.345549e-01	3.189367e-01	-2.630150e-02	3.520420e-01	5.232930e-03	2.773580e-01	3.230389e-01	1.738570e-01	2.139565e-01	2.293284e-01	2.986335e-01	2.061715e-01	2.809547e-02	-1.069329e-01	-2.125280e-01	-3.015750e-01	3.058450e-01	5.811352e-03	-9.493970e-03	-1.237475e-01	-1.985825e-01	6.523125e-02	3.664670e-01	2.366277e-01	1.366721e-01	1.006745e-01	2.318571e-01	3.517324e-01	2.218259e-01	1.722577e-01	7.297098e-02	-3.528766e-01	-1.997656e-01	3.119888e-01	3.097331e-01	-2.044515e-01	3.618734e-01	1.946671e-01	3.432340e-01	3.653980e-01	2.779753e-01	1.545387e-01	-3.873683e-01	-4.386357e-01	2.608457e-01	-4.634976e-01	4.020864e-01	4.787208e-01	4.731811e-01	4.098643e-01	3.607875e-01	-2.506451e-01	2.708032e-01	3.094875e-01	-1.675986e-01	-1.775010e-01	-9.345461e-02	2.939757e-01	3.429090e-01	3.619335e-01	-1.421538e-01	-1.166646e-01	4.487697e-01	-1.624368e-01	-1.776722e-01	-1.655254e-01	4.281405e-01	4.700657e-01	3.592618e-01	3.598875e-01	3.768913e-01	3.590332e-01	3.268215e-01	3.625141e-01	3.870773e-01	4.013580e-01	1.878870e-01	3.689688e-01	3.635400e-01	1.589695e-01	2.393476e-01	6.687697e-02	9.796128e-02	6.521230e-03	3.620720e-02	-4.763015e-02	-2.165193e-02	-1.047709e-01	-7.126125e-02	-1.735414e-01	-1.292334e-01	-1.735714e-01	-5.973520e-02	-8.240970e-02	-7.796083e-03	-3.495830e-02	5.144657e-02	2.121034e-02	1.134482e-01	8.240876e-02	1.736097e-01	1.440186e-01	2.504726e-01	2.017292e-01	3.659090e-01	3.618107e-01	3.815968e-01	3.726736e-01	4.819734e-01	3.936568e-01	2.640410e-01	4.462150e-01	3.378343e-01	2.858653e-02	-5.885432e-02	8.302098e-02	3.264454e-01	2.507340e-01	-8.267800e-02	3.513397e-01	1.298252e-01	4.381487e-01	4.596368e-01	3.594824e-01	4.187930e-01	-1.613709e-01	-1.668867e-01	3.591035e-01	-1.795538e-01	-1.982440e-01	3.591758e-01	3.607317e-01	-1.546462e-01	-3.824810e-01	-2.843295e-01	-3.382742e-01	1.980030e-01	9.473316e-03	-2.220679e-01	2.813780e-01	-3.997180e-01	-2.501609e-01	1.272895e-01	2.639849e-01	3.599805e-01	4.292558e-01	-2.861404e-01	-3.556028e-01	3.414180e-01	1.501052e-01	3.177453e-04	-2.891093e-01	2.266328e-01	1.587916e-01	9.725008e-02	-1.898705e-01	3.173610e-01	4.444933e-02	6.236059e-02	1.581810e-01	-4.370271e-01	3.269887e-01	-1.994167e-01	-5.993070e-02	2.619502e-01	1.414133e-01	1.759766e-01	2.705442e-01	1.357598e-01	2.913877e-01	1.077016e-02	8.854920e-02	6.936052e-02	2.494314e-01	1.460020e-01	-3.975921e-02	3.986065e-01	1.313121e-01	3.692792e-01	-7.430850e-02	-1.767314e-01	3.536162e-01	2.690793e-01	-1.651298e-01	-8.523992e-02	-1.907012e-01	-1.675911e-01	-1.631641e-01	3.543780e-01	3.531829e-01	3.555017e-01	4.058810e-01	1.674426e-01	3.118858e-01	1.423911e-01	3.787856e-01	4.408202e-01	-1.652068e-01	-2.082036e-01	-9.617937e-02	2.732292e-01	-3.084278e-01	-2.556008e-01	-2.300204e-01	-1.921016e-02	-2.021993e-01	-3.333848e-01	-4.553489e-01	-4.361844e-01	-1.560364e-01	-2.696235e-01	8.587116e-02	-2.187512e-01	-2.063643e-01	3.518634e-01	2.301331e-01	-1.767375e-01	2.652886e-02	2.145265e-01	-1.994040e-01	-4.593103e-01	2.760923e-01	3.559837e-01	5.345515e-02	3.531441e-01	3.538991e-02	1.816186e-02	1.117005e-01	4.774128e-03	-2.875721e-03	-2.126929e-02	-7.529111e-02	-3.758292e-02	-8.610403e-02	-1.595852e-01	2.335248e-01	1.149013e-01	1.060187e-01	-2.126831e-01	2.642728e-01	2.574758e-01	2.506411e-01	-1.146654e-01	2.860816e-01	2.811259e-01	3.101041e-01	-4.056497e-03	-6.057498e-03	-1.130381e-02	2.488353e-01	1.790952e-01	2.229955e-01	2.004466e-01	-1.129630e-01	-1.380192e-01	1.327094e-01	1.238808e-01	1.985891e-01	2.167225e-01	2.156849e-01	2.081671e-01	2.798576e-02	5.801536e-02	-2.443038e-01	3.034033e-01	2.971899e-01	2.843735e-01	2.971352e-01	3.397876e-01	3.478539e-01	3.335129e-01	3.252668e-01	3.502698e-01	-4.053270e-01	-3.738842e-01	4.310035e-01	-1.673074e-01	2.590562e-01	2.804583e-01	2.946248e-01	3.114219e-01	-1.631005e-01	-1.672816e-01	-1.303828e-01	3.284787e-01	3.426802e-01	3.566553e-01	-1.188133e-01	-1.596719e-01	4.359972e-01	4.407139e-01	3.536604e-01	3.533119e-01	3.735963e-01	3.849037e-01	3.916340e-01	1.316112e-02	7.147561e-02	8.649036e-02	2.736812e-02	-2.727105e-02	-1.073653e-01	-6.318928e-02	-5.166262e-02	-1.421293e-02	-7.059840e-04	4.184135e-02	5.656160e-02	1.014924e-01	1.164604e-01	1.604551e-01	1.746282e-01	2.382567e-01	2.490742e-01	1.884599e-01	2.017864e-01	3.571706e-01	3.594240e-01	3.622822e-01	3.655971e-01	1.986891e-01	4.049101e-01	3.603473e-01	7.986337e-02	7.115547e-02	2.439046e-01	2.370975e-01	-1.117781e-01	3.045537e-01	4.135987e-01	4.215446e-01	3.530622e-01	3.530881e-01	3.557665e-01	3.545425e-01	-1.515799e-01	-1.415361e-01	1.925035e-01	1.843439e-01	-3.835756e-02	-4.086720e-01	3.475761e-01	-4.319957e-01	2.781582e-01	3.228708e-01	8.645959e-02	2.244788e-01	-7.126825e-03	-1.846598e-01	-1.739104e-01	-1.607212e-01	-1.308435e-01	-1.977087e-01	-2.888210e-01	-3.045795e-01	-2.131510e-01	-2.730018e-01	-1.588293e-01	-3.879906e-01	1.421450e-01	-1.234873e-02	-1.876291e-01	2.245286e-01	-2.240034e-01	-3.167906e-01	1.382644e-01	-3.836480e-01	1.297773e-01	-1.979340e-01	2.634357e-02	-2.780445e-01	3.011691e-01	3.491168e-02	1.467199e-01	-1.964274e-01	-2.381880e-01	-1.632040e-01	2.558869e-01	-1.544447e-01	1.460284e-01	-2.164393e-01	2.666248e-01	3.460573e-01	3.467179e-01	3.602705e-01	4.031558e-01	-3.063653e-01	-4.081015e-01	-2.756730e-01	1.466383e-01	-3.357774e-01	-8.092354e-02	1.198976e-01	-4.242620e-01	2.461329e-01	2.579966e-01	-1.205346e-01	2.357448e-02	-3.394603e-02	1.741080e-02	1.317316e-01	-1.668791e-01	-1.585536e-01	-8.939273e-02	-7.877965e-02	3.463419e-01	3.460613e-01	3.471265e-01	3.841140e-01	1.636571e-01	1.552661e-01	3.002935e-01	8.960050e-02	3.642450e-01	-1.618227e-01	-2.350216e-01	-5.225929e-02	-2.063944e-01	-3.525013e-01	-4.368365e-01	-8.370427e-02	-2.351143e-01	-2.303869e-01	-1.033029e-01	-1.762305e-01	2.125389e-01	2.635070e-01	3.464385e-01	5.244598e-02	4.365302e-02	1.815792e-02	1.056814e-02	7.084954e-02	9.615464e-02	3.808856e-03	-1.901065e-03	-4.193528e-02	-5.987677e-02	-1.622221e-01	1.038990e-01	9.516921e-02	-2.052604e-01	2.516817e-01	2.447626e-01	2.731986e-01	2.684632e-01	-4.912733e-02	-1.880323e-02	-2.825330e-02	2.177028e-01	2.329619e-01	2.175820e-01	2.104499e-01	-1.251140e-01	-1.451490e-01	1.214996e-01	1.127833e-01	1.631048e-01	1.828030e-01	2.010229e-01	2.031845e-01	1.956626e-01	-1.652851e-02	1.456392e-02	4.381404e-02	2.948733e-01	2.890223e-01	2.834898e-01	2.580583e-01	2.706487e-01	2.848819e-01	3.147855e-01	3.258808e-01	3.154880e-01	3.081137e-01	3.318995e-01	3.864414e-01	2.795127e-01	2.952914e-01	-1.614612e-01	3.121067e-01	3.276050e-01	3.394148e-01	3.492679e-01	-1.209738e-01	4.037500e-01	3.995129e-01	3.461415e-01	3.464914e-01	3.689722e-01	3.740446e-01	3.789655e-01	7.387128e-02	-1.105273e-01	-9.993908e-02	-6.805162e-02	-5.702443e-02	-4.574657e-02	-2.165930e-02	-8.805809e-03	4.226693e-03	3.123376e-02	4.514506e-02	5.950340e-02	8.845159e-02	1.028768e-01	1.174232e-01	1.599879e-01	2.359497e-01	2.460363e-01	1.737733e-01	1.870764e-01	2.000562e-01	3.481957e-01	3.496929e-01	3.517489e-01	3.542007e-01	3.569260e-01	3.596920e-01	3.162358e-01	7.805401e-02	6.954584e-02	6.104734e-02	2.380035e-01	2.312653e-01	2.600523e-01	2.016603e-01	3.896510e-01	3.952280e-01	4.000230e-01	3.461704e-01	3.494878e-01	3.485471e-01	3.474266e-01	-1.483087e-01	-1.403740e-01	-1.311426e-01	1.879993e-01	1.800617e-01	1.719861e-01	3.326660e-01	3.290808e-01	-4.006029e-01	1.261779e-01	-2.183571e-01	-1.655205e-01	2.139468e-01	-3.581487e-01	-2.176135e-01	-1.643258e-02	-2.397806e-02	-9.066545e-02	-1.909286e-01	2.628320e-01	-3.795639e-01	4.966645e-02	-2.992525e-01	-1.538531e-01	-2.040665e-01	-2.603493e-01	1.456648e-01	-2.021773e-01	-2.769421e-01	-2.558542e-01	7.746742e-02	2.304233e-01	-1.594925e-01	2.656901e-01	1.042382e-01	2.514843e-01	3.050459e-01	-1.714903e-01	2.215497e-01	-1.502017e-01	-1.452304e-01	1.994221e-02	3.497044e-01	3.376793e-01	-1.760523e-01	3.673949e-01	2.665728e-02	-2.473743e-01	-1.799040e-01	-2.040928e-01	-1.154630e-01	-1.946946e-01	1.365220e-01	-3.305418e-01	1.272574e-01	1.201563e-01	-2.300264e-01	-1.866389e-01	-2.655840e-01	-2.932631e-02	2.531345e-01	3.381816e-01	-3.125215e-01	-9.723820e-03	1.305306e-01	-8.357661e-02	3.386807e-01	3.378962e-01	3.377089e-01	1.533904e-01	1.440282e-01	-1.614351e-01	-7.361796e-02	-1.390460e-01	-3.582135e-01	-4.149521e-01	-1.241085e-01	-9.665326e-02	-1.639284e-01	2.085351e-01	4.366504e-02	3.503741e-02	1.837443e-02	1.065715e-02	5.625709e-02	8.093425e-02	3.327283e-03	-3.076171e-03	-9.393452e-03	-6.040228e-02	-7.790043e-02	9.483520e-02	8.529512e-02	-1.955091e-01	2.462261e-01	2.398561e-01	2.610388e-01	2.563182e-01	-3.330801e-02	-4.530698e-02	2.013629e-01	2.170303e-01	2.058934e-01	-1.334723e-01	-1.498712e-01	1.118824e-01	1.023104e-01	1.470626e-01	1.669778e-01	1.849904e-01	1.999393e-01	1.915666e-01	-5.886376e-02	-2.783193e-02	2.266702e-03	3.014748e-02	2.862775e-01	2.808969e-01	2.758004e-01	2.708268e-01	2.433306e-01	2.573749e-01	2.725329e-01	2.877924e-01	3.010930e-01	2.921954e-01	2.985105e-01	3.103627e-01	2.780849e-01	-1.587232e-01	-1.565028e-01	2.940586e-01	3.097061e-01	3.231844e-01	3.329161e-01	3.385764e-01	3.586142e-01	3.408945e-01	3.377570e-01	3.380922e-01	3.531045e-01	3.568512e-01	3.597681e-01	3.627797e-01	-1.131924e-01	-1.035007e-01	-9.367760e-02	-7.337235e-02	-6.277842e-02	-5.207203e-02	-4.044129e-02	-1.806303e-02	-4.275411e-03	7.609066e-03	3.402779e-02	4.703075e-02	6.174065e-02	7.477611e-02	8.975463e-02	1.026612e-01	1.178537e-01	2.412249e-01	2.329873e-01	1.578010e-01	1.726239e-01	1.842180e-01	1.985664e-01	3.386453e-01	3.395514e-01	3.408724e-01	3.427224e-01	3.444516e-01	3.469081e-01	3.117824e-01	2.695690e-01	6.898737e-02	6.019523e-02	5.210000e-02	2.326703e-01	2.275161e-01	2.196009e-01	2.159331e-01	1.583069e-01	1.039227e-01	3.660874e-01	3.694174e-01	3.715145e-01	3.709776e-01	3.407940e-01	3.411226e-01	3.401105e-01	3.393054e-01	-1.224922e-01	-1.387363e-01	-1.311801e-01	1.851938e-01	1.764794e-01	1.696741e-01	1.606161e-01	3.147772e-01	3.145618e-01	3.107532e-01	-2.215957e-01	-2.092206e-01	-1.088482e-01	-2.989907e-01	-2.528946e-01	1.138592e-01	1.109121e-01	-2.825984e-01	-1.621937e-01	-3.348609e-01	-1.266457e-01	2.152827e-01	3.372411e-01	-3.522764e-02	-1.964028e-01	-3.338702e-01	-4.067365e-01	-4.168459e-01	-3.863532e-01	-3.546159e-01	-1.978743e-01	3.288424e-01	-1.245721e-01	-1.763733e-01	-3.711051e-02	7.235504e-02	2.532412e-01	-1.937230e-01	-1.153935e-01	-1.365566e-01	2.220604e-01	2.409999e-01	1.355382e-01	2.881385e-02	2.589631e-01	2.052235e-01	3.312031e-01	-1.840754e-01	8.951310e-02	-2.757847e-01	-1.680505e-01	-4.039878e-01	-2.463164e-01	-2.305691e-01	-2.713250e-02	-9.699417e-02	-3.720806e-01	1.722435e-02	-3.099823e-01	-1.466697e-01	-2.459278e-01	-2.748270e-01	-2.613505e-01	-1.908475e-01	2.844607e-01	2.881828e-01	-1.752018e-01	2.040377e-01	-1.422040e-01	-1.652827e-01	1.290678e-01	-2.917714e-01	3.298761e-01	3.280350e-01	3.295258e-01	1.456588e-01	-8.956304e-02	-1.434433e-01	-3.886978e-01	-1.585762e-01	3.423660e-02	2.716223e-02	1.814125e-02	1.063836e-02	6.666580e-02	4.238735e-02	2.151309e-03	-4.232205e-03	-1.119264e-02	-2.007121e-02	-7.678318e-02	-9.270681e-02	8.801655e-02	-1.856852e-01	2.408833e-01	2.344227e-01	2.503011e-01	2.441159e-01	-4.884881e-02	-6.185308e-02	1.868001e-01	2.047776e-01	-1.394934e-01	-1.531787e-01	1.008064e-01	1.332948e-01	1.554953e-01	1.685775e-01	1.913252e-01	-6.753540e-02	-3.784791e-02	-9.420332e-03	1.712515e-02	2.772819e-01	2.738505e-01	2.676273e-01	2.646661e-01	2.586903e-01	2.322321e-01	2.443686e-01	2.629861e-01	2.745978e-01	2.897147e-01	-1.576554e-01	-1.539621e-01	-1.504857e-01	2.763309e-01	2.898536e-01	3.063867e-01	3.160733e-01	3.267067e-01	3.177090e-01	2.951687e-01	3.279527e-01	3.296473e-01	3.419794e-01	3.408332e-01	3.415820e-01	-1.061293e-01	-9.726505e-02	-8.755375e-02	-7.802525e-02	-6.791328e-02	-5.767272e-02	-4.696870e-02	-3.082173e-02	-1.375274e-02	4.818209e-03	5.532044e-02	8.200587e-02	1.088252e-01	1.617923e-01	1.862885e-01	3.283020e-01	3.303941e-01	3.295896e-01	3.325543e-01	3.316916e-01	3.331532e-01	3.353420e-01	2.631553e-01	2.219383e-01	5.893210e-02	5.155854e-02	4.345963e-02	2.270546e-01	2.181066e-01	1.728137e-01	1.188206e-01	6.666218e-02	3.426841e-01	3.435845e-01	3.429520e-01	3.385054e-01	3.306041e-01	3.294326e-01	3.333081e-01	3.315010e-01	3.303808e-01	-1.301126e-01	-1.225852e-01	1.768558e-01	1.616781e-01	2.941969e-01	3.004374e-01	2.967375e-01	2.955240e-01	-2.230853e-01	-2.646968e-01	-2.663412e-01	-3.595439e-01	-2.515173e-01	-1.311585e-01	-1.775318e-01	-2.710624e-01	-1.440206e-01	-2.016632e-01	-1.555216e-01	-3.606571e-01	-1.284816e-01	-2.401222e-01	3.195354e-01	-2.769861e-01	-1.011293e-01	-2.317725e-01	-2.132203e-01	-1.179017e-01	2.013562e-01	-1.696572e-01	2.708193e-01	-5.087615e-02	-3.553350e-02	1.598316e-01	9.815308e-02	2.098601e-01	-3.307817e-01	2.390292e-01	5.323391e-02	7.489565e-02	3.233582e-01	-1.573517e-01	-1.111741e-01	-3.082564e-01	-5.473115e-02	-1.040589e-01	-2.839798e-01	-1.629285e-01	-4.025696e-01	-3.454090e-01	-1.667454e-01	9.961518e-02	2.375775e-01	2.636810e-01	-1.861477e-01	-2.610010e-01	-2.147639e-01	-3.897071e-01	-2.392509e-01	-1.018186e-01	-3.123801e-01	-2.903744e-01	2.008509e-01	-1.563665e-01	-1.395636e-01	-1.342200e-01	2.182556e-01	3.180906e-01	3.176868e-01	1.130034e-01	-1.460194e-01	-1.900408e-01	-1.858764e-01	2.096361e-02	5.173099e-03	2.953674e-02	-9.621280e-03	-2.245569e-02	-9.006569e-02	-1.770330e-01	2.306249e-01	-6.340984e-02	-7.627453e-02	1.813821e-01	-1.436795e-01	8.685837e-02	7.281425e-02	1.305127e-01	1.539060e-01	1.883053e-01	-7.411302e-02	-4.501773e-02	-1.674309e-02	4.418246e-03	2.617533e-01	2.537873e-01	2.453378e-01	2.404165e-01	2.670236e-01	-1.526153e-01	-1.483053e-01	2.914764e-01	3.121144e-01	2.521288e-01	3.177797e-01	3.201053e-01	-7.701731e-03	-9.508279e-02	-7.687003e-02	-5.795439e-02	-4.050891e-02	-2.431213e-02	1.199625e-02	3.577024e-02	6.102160e-02	8.640318e-02	1.119187e-01	1.373980e-01	1.618567e-01	1.829363e-01	3.182475e-01	3.191294e-01	3.184411e-01	3.223739e-01	3.210566e-01	2.162654e-01	1.764727e-01	5.835336e-02	4.556824e-02	3.319714e-02	2.214080e-01	2.124488e-01	1.323123e-01	8.436225e-02	3.563351e-02	-9.434870e-03	3.185404e-01	3.167324e-01	3.131950e-01	3.056030e-01	2.920496e-01	2.842617e-01	3.205901e-01	3.198054e-01	-1.292192e-01	-1.220214e-01	1.743572e-01	1.445331e-01	1.284659e-01	2.801347e-01	2.790329e-01	-1.928443e-01	-2.261470e-01	-2.210626e-01	-2.233751e-01	-3.814421e-02	-1.799010e-01	-2.622726e-01	-1.956902e-01	-2.719735e-01	-2.047569e-01	-2.071197e-01	-1.839652e-01	-1.473203e-01	-2.842397e-01	-3.333710e-01	-1.468498e-01	8.565037e-02	3.068059e-01	-2.065788e-01	-2.253629e-02	-1.532755e-01	2.262684e-01	-1.092839e-01	-2.508282e-01	2.301600e-01	-6.393127e-02	1.434163e-01	1.852643e-01	-1.242787e-01	-1.359357e-01	-1.292513e-01	-1.046214e-01	-2.744137e-01	-1.636351e-01	-1.710043e-01	-1.374046e-01	3.038023e-01	1.802211e-01	1.126497e-01	2.044445e-02	-2.536936e-01	-2.625782e-01	-3.754582e-01	-1.122356e-01	-1.421479e-01	-2.513086e-01	-1.470452e-01	-2.521769e-01	-2.278979e-01	1.971033e-01	-3.211088e-01	3.833782e-02	6.117760e-02	-1.573410e-01	-3.326950e-01	-1.000598e-01	-1.581255e-01	9.851897e-02	-3.666904e-01	-2.401743e-01	-6.015157e-03	-3.078646e-01	-2.910763e-01	2.160140e-01	-1.796969e-01	-1.320816e-01	1.977902e-01	3.050954e-01	1.610430e-01	-1.840500e-01	-2.189100e-01	6.710682e-03	-8.529352e-03	-3.622290e-02	-5.071473e-02	-1.695450e-01	2.229059e-01	-7.568769e-02	-8.779083e-02	2.374994e-01	4.472029e-02	3.270430e-02	7.258797e-02	8.840780e-02	1.165266e-01	1.415456e-01	-7.681463e-02	2.513950e-01	2.444588e-01	1.691383e-01	1.993555e-01	1.280390e-01	-1.518241e-01	2.378205e-01	2.634917e-01	2.981812e-01	-1.000722e-01	-8.431782e-02	-1.860797e-02	-6.708881e-02	-5.014208e-02	-3.416314e-02	-1.516391e-03	1.892940e-02	4.206487e-02	6.615922e-02	9.044350e-02	1.149109e-01	1.390059e-01	3.033476e-01	3.031203e-01	3.027424e-01	3.024012e-01	3.043522e-01	3.014138e-01	1.746262e-01	1.345630e-01	5.849404e-02	2.073762e-02	2.154181e-01	2.070571e-01	9.569330e-02	5.472003e-02	1.118438e-02	-3.037428e-02	-6.969185e-02	2.928534e-01	2.877398e-01	2.8