# vtk DataFile Version 3.0
vtk output
ASCII
DATASET UNSTRUCTURED_GRID
POINTS 200 float
9.997500e-01	-3.633236e-05	0.0	9.990000e-01	-1.454683e-04	0.0	9.977600e-01	-3.274632e-04	0.0	9.960200e-01	-5.896883e-04	0.0	9.937800e-01	-9.462313e-04	0.0	9.910500e-01	-1.419708e-03	0.0	9.878400e-01	-2.040082e-03	0.0	9.841300e-01	-2.843000e-03	0.0	9.799500e-01	-3.840385e-03	0.0	9.752800e-01	-5.029377e-03	0.0	9.701500e-01	-6.363792e-03	0.0	9.645400e-01	-7.786123e-03	0.0	9.584700e-01	-9.222233e-03	0.0	9.519400e-01	-1.061770e-02	0.0	9.449600e-01	-1.194507e-02	0.0	9.375400e-01	-1.320871e-02	0.0	9.296900e-01	-1.443553e-02	0.0	9.214000e-01	-1.566329e-02	0.0	9.127000e-01	-1.691884e-02	0.0	9.035800e-01	-1.822296e-02	0.0	8.940600e-01	-1.957928e-02	0.0	8.841500e-01	-2.098329e-02	0.0	8.738500e-01	-2.242693e-02	0.0	8.631800e-01	-2.389824e-02	0.0	8.521600e-01	-2.538667e-02	0.0	8.407700e-01	-2.688908e-02	0.0	8.290500e-01	-2.839625e-02	0.0	8.170100e-01	-2.990435e-02	0.0	8.046400e-01	-3.141253e-02	0.0	7.919700e-01	-3.291515e-02	0.0	7.790100e-01	-3.440895e-02	0.0	7.657800e-01	-3.588936e-02	0.0	7.522800e-01	-3.735384e-02	0.0	7.385200e-01	-3.879858e-02	0.0	7.245300e-01	-4.021774e-02	0.0	7.103200e-01	-4.160772e-02	0.0	6.958900e-01	-4.296599e-02	0.0	6.812700e-01	-4.428737e-02	0.0	6.664700e-01	-4.556884e-02	0.0	6.515000e-01	-4.680764e-02	0.0	6.363800e-01	-4.800042e-02	0.0	6.211300e-01	-4.914423e-02	0.0	6.057600e-01	-5.023717e-02	0.0	5.902800e-01	-5.127754e-02	0.0	5.747100e-01	-5.226321e-02	0.0	5.590600e-01	-5.319293e-02	0.0	5.433600e-01	-5.406451e-02	0.0	5.276100e-01	-5.487765e-02	0.0	5.118400e-01	-5.563059e-02	0.0	4.960500e-01	-5.632315e-02	0.0	4.802700e-01	-5.695389e-02	0.0	4.645100e-01	-5.752226e-02	0.0	4.487800e-01	-5.802771e-02	0.0	4.331100e-01	-5.846902e-02	0.0	4.175000e-01	-5.884587e-02	0.0	4.019700e-01	-5.915726e-02	0.0	3.865400e-01	-5.940221e-02	0.0	3.712300e-01	-5.957976e-02	0.0	3.560400e-01	-5.968905e-02	0.0	3.409900e-01	-5.972888e-02	0.0	3.261100e-01	-5.969811e-02	0.0	3.114000e-01	-5.959555e-02	0.0	2.968700e-01	-5.941986e-02	0.0	2.825500e-01	-5.916994e-02	0.0	2.684500e-01	-5.884454e-02	0.0	2.545700e-01	-5.844202e-02	0.0	2.409400e-01	-5.796158e-02	0.0	2.275700e-01	-5.740201e-02	0.0	2.144700e-01	-5.676211e-02	0.0	2.016600e-01	-5.604130e-02	0.0	1.891400e-01	-5.523801e-02	0.0	1.769300e-01	-5.435194e-02	0.0	1.650400e-01	-5.338240e-02	0.0	1.534900e-01	-5.232975e-02	0.0	1.422900e-01	-5.119386e-02	0.0	1.314400e-01	-4.997363e-02	0.0	1.209500e-01	-4.866896e-02	0.0	1.108500e-01	-4.728283e-02	0.0	1.011300e-01	-4.581321e-02	0.0	9.181000e-02	-4.426239e-02	0.0	8.290000e-02	-4.263165e-02	0.0	7.440000e-02	-4.092053e-02	0.0	6.633000e-02	-3.913271e-02	0.0	5.869000e-02	-3.726805e-02	0.0	5.149000e-02	-3.532873e-02	0.0	4.474000e-02	-3.331738e-02	0.0	3.844000e-02	-3.123383e-02	0.0	3.260000e-02	-2.908103e-02	0.0	2.723000e-02	-2.686273e-02	0.0	2.232000e-02	-2.457400e-02	0.0	1.790000e-02	-2.222879e-02	0.0	1.395000e-02	-1.981634e-02	0.0	1.049000e-02	-1.734777e-02	0.0	7.520000e-03	-1.482384e-02	0.0	5.040000e-03	-1.224448e-02	0.0	3.050000e-03	-9.607783e-03	0.0	1.560000e-03	-6.928203e-03	0.0	5.600000e-04	-4.183623e-03	0.0	6.000000e-05	-1.378924e-03	0.0	0.000000e+00	0.000000e+00	0.0	6.000000e-05	1.261441e-03	0.0	5.600000e-04	3.615992e-03	0.0	1.560000e-03	5.773146e-03	0.0	3.050000e-03	7.785453e-03	0.0	5.040000e-03	9.698075e-03	0.0	7.520000e-03	1.151876e-02	0.0	1.049000e-02	1.326236e-02	0.0	1.395000e-02	1.493919e-02	0.0	1.790000e-02	1.655694e-02	0.0	2.232000e-02	1.811501e-02	0.0	2.723000e-02	1.962629e-02	0.0	3.260000e-02	2.108645e-02	0.0	3.844000e-02	2.250297e-02	0.0	4.474000e-02	2.387702e-02	0.0	5.149000e-02	2.520981e-02	0.0	5.869000e-02	2.650423e-02	0.0	6.633000e-02	2.776090e-02	0.0	7.440000e-02	2.898042e-02	0.0	8.290000e-02	3.016463e-02	0.0	9.181000e-02	3.131246e-02	0.0	1.011300e-01	3.242541e-02	0.0	1.108500e-01	3.350352e-02	0.0	1.209500e-01	3.454574e-02	0.0	1.314400e-01	3.555404e-02	0.0	1.422900e-01	3.652628e-02	0.0	1.534900e-01	3.746237e-02	0.0	1.650400e-01	3.836286e-02	0.0	1.769300e-01	3.922726e-02	0.0	1.891400e-01	4.005434e-02	0.0	2.016600e-01	4.084356e-02	0.0	2.144700e-01	4.159364e-02	0.0	2.275700e-01	4.230443e-02	0.0	2.409400e-01	4.297447e-02	0.0	2.545700e-01	4.360274e-02	0.0	2.684500e-01	4.418805e-02	0.0	2.825500e-01	4.472833e-02	0.0	2.968700e-01	4.522257e-02	0.0	3.114000e-01	4.566917e-02	0.0	3.261100e-01	4.606579e-02	0.0	3.409900e-01	4.641067e-02	0.0	3.560400e-01	4.670199e-02	0.0	3.712300e-01	4.693723e-02	0.0	3.865400e-01	4.711405e-02	0.0	4.019700e-01	4.723026e-02	0.0	4.175000e-01	4.728332e-02	0.0	4.331100e-01	4.727074e-02	0.0	4.487800e-01	4.719010e-02	0.0	4.645100e-01	4.703887e-02	0.0	4.802700e-01	4.681481e-02	0.0	4.960500e-01	4.651564e-02	0.0	5.118400e-01	4.613917e-02	0.0	5.276100e-01	4.568391e-02	0.0	5.433600e-01	4.514789e-02	0.0	5.590600e-01	4.453041e-02	0.0	5.747100e-01	4.383005e-02	0.0	5.902800e-01	4.304713e-02	0.0	6.057600e-01	4.218165e-02	0.0	6.211300e-01	4.123473e-02	0.0	6.363800e-01	4.020753e-02	0.0	6.515000e-01	3.910183e-02	0.0	6.664700e-01	3.792081e-02	0.0	6.812700e-01	3.666858e-02	0.0	6.958900e-01	3.534923e-02	0.0	7.103200e-01	3.396754e-02	0.0	7.245300e-01	3.253108e-02	0.0	7.385200e-01	3.104527e-02	0.0	7.522800e-01	2.951714e-02	0.0	7.657800e-01	2.795668e-02	0.0	7.790100e-01	2.637242e-02	0.0	7.919700e-01	2.477215e-02	0.0	8.046400e-01	2.316652e-02	0.0	8.170100e-01	2.156531e-02	0.0	8.290500e-01	1.998099e-02	0.0	8.407700e-01	1.842047e-02	0.0	8.521600e-01	1.689228e-02	0.0	8.631800e-01	1.540738e-02	0.0	8.738500e-01	1.396637e-02	0.0	8.841500e-01	1.257264e-02	0.0	8.940600e-01	1.122756e-02	0.0	9.035800e-01	9.929633e-03	0.0	9.127000e-01	8.681662e-03	0.0	9.214000e-01	7.494562e-03	0.0	9.296900e-01	6.384627e-03	0.0	9.375400e-01	5.382376e-03	0.0	9.449600e-01	4.516386e-03	0.0	9.519400e-01	3.811142e-03	0.0	9.584700e-01	3.272703e-03	0.0	9.645400e-01	2.881371e-03	0.0	9.701500e-01	2.593232e-03	0.0	9.752800e-01	2.353706e-03	0.0	9.799500e-01	2.111550e-03	0.0	9.841300e-01	1.837704e-03	0.0	9.878400e-01	1.525341e-03	0.0	9.910500e-01	1.192593e-03	0.0	9.937800e-01	8.638867e-04	0.0	9.960200e-01	5.668656e-04	0.0	9.977600e-01	3.232326e-04	0.0	9.990000e-01	1.450824e-04	0.0	9.997500e-01	3.632625e-05	0.0	1.000000e+00	0.000000e+00	0.0	
CELLS 200	600
2	199	0	2	0	1	2	1	2	2	2	3	2	3	4	2	4	5	2	5	6	2	6	7	2	7	8	2	8	9	2	9	10	2	10	11	2	11	12	2	12	13	2	13	14	2	14	15	2	15	16	2	16	17	2	17	18	2	18	19	2	19	20	2	20	21	2	21	22	2	22	23	2	23	24	2	24	25	2	25	26	2	26	27	2	27	28	2	28	29	2	29	30	2	30	31	2	31	32	2	32	33	2	33	34	2	34	35	2	35	36	2	36	37	2	37	38	2	38	39	2	39	40	2	40	41	2	41	42	2	42	43	2	43	44	2	44	45	2	45	46	2	46	47	2	47	48	2	48	49	2	49	50	2	50	51	2	51	52	2	52	53	2	53	54	2	54	55	2	55	56	2	56	57	2	57	58	2	58	59	2	59	60	2	60	61	2	61	62	2	62	63	2	63	64	2	64	65	2	65	66	2	66	67	2	67	68	2	68	69	2	69	70	2	70	71	2	71	72	2	72	73	2	73	74	2	74	75	2	75	76	2	76	77	2	77	78	2	78	79	2	79	80	2	80	81	2	81	82	2	82	83	2	83	84	2	84	85	2	85	86	2	86	87	2	87	88	2	88	89	2	89	90	2	90	91	2	91	92	2	92	93	2	93	94	2	94	95	2	95	96	2	96	97	2	97	98	2	98	99	2	99	100	2	100	101	2	101	102	2	102	103	2	103	104	2	104	105	2	105	106	2	106	107	2	107	108	2	108	109	2	109	110	2	110	111	2	111	112	2	112	113	2	113	114	2	114	115	2	115	116	2	116	117	2	117	118	2	118	119	2	119	120	2	120	121	2	121	122	2	122	123	2	123	124	2	124	125	2	125	126	2	126	127	2	127	128	2	128	129	2	129	130	2	130	131	2	131	132	2	132	133	2	133	134	2	134	135	2	135	136	2	136	137	2	137	138	2	138	139	2	139	140	2	140	141	2	141	142	2	142	143	2	143	144	2	144	145	2	145	146	2	146	147	2	147	148	2	148	149	2	149	150	2	150	151	2	151	152	2	152	153	2	153	154	2	154	155	2	155	156	2	156	157	2	157	158	2	158	159	2	159	160	2	160	161	2	161	162	2	162	163	2	163	164	2	164	165	2	165	166	2	166	167	2	167	168	2	168	169	2	169	170	2	170	171	2	171	172	2	172	173	2	173	174	2	174	175	2	175	176	2	176	177	2	177	178	2	178	179	2	179	180	2	180	181	2	181	182	2	182	183	2	183	184	2	184	185	2	185	186	2	186	187	2	187	188	2	188	189	2	189	190	2	190	191	2	191	192	2	192	193	2	193	194	2	194	195	2	195	196	2	196	197	2	197	198	2	198	199	
CELL_TYPES 200
3	3	3	3	3	3	3	3	3	3	3	3	3	3	3	3	3	3	3	3	3	3	3	3	3	3	3	3	3	3	3	3	3	3	3	3	3	3	3	3	3	3	3	3	3	3	3	3	3	3	3	3	3	3	3	3	3	3	3	3	3	3	3	3	3	3	3	3	3	3	3	3	3	3	3	3	3	3	3	3	3	3	3	3	3	3	3	3	3	3	3	3	3	3	3	3	3	3	3	3	3	3	3	3	3	3	3	3	3	3	3	3	3	3	3	3	3	3	3	3	3	3	3	3	3	3	3	3	3	3	3	3	3	3	3	3	3	3	3	3	3	3	3	3	3	3	3	3	3	3	3	3	3	3	3	3	3	3	3	3	3	3	3	3	3	3	3	3	3	3	3	3	3	3	3	3	3	3	3	3	3	3	3	3	3	3	3	3	3	3	3	3	3	3	3	3	3	3	3	3	
POINT_DATA 200

SCALARS Conservative_1 float 1
LOOKUP_TABLE default
-1.781932e-01	-2.177090e-01	-2.142626e-01	-2.116035e-01	-2.111399e-01	-2.081910e-01	-2.011703e-01	-1.878026e-01	-1.664096e-01	-1.365132e-01	-9.970055e-02	-5.982166e-02	-2.298762e-02	4.425103e-03	1.887824e-02	2.187689e-02	1.877668e-02	1.499392e-02	1.391023e-02	1.643053e-02	2.222300e-02	3.033776e-02	3.969942e-02	4.954888e-02	5.930679e-02	6.879293e-02	7.795171e-02	8.686619e-02	9.572620e-02	1.045910e-01	1.135825e-01	1.226915e-01	1.318830e-01	1.410910e-01	1.502571e-01	1.593406e-01	1.683668e-01	1.773739e-01	1.863182e-01	1.951339e-01	2.037521e-01	2.121471e-01	2.202956e-01	2.282103e-01	2.358925e-01	2.433601e-01	2.506248e-01	2.577122e-01	2.647154e-01	2.716900e-01	2.786572e-01	2.855170e-01	2.919734e-01	2.977769e-01	3.030728e-01	3.083339e-01	3.140446e-01	3.204322e-01	3.275166e-01	3.351799e-01	3.434487e-01	3.523057e-01	3.616107e-01	3.706888e-01	3.782483e-01	3.824464e-01	3.815967e-01	3.748843e-01	3.632439e-01	3.490760e-01	3.352738e-01	3.235718e-01	3.137662e-01	3.041292e-01	2.928329e-01	2.793270e-01	2.640870e-01	2.476847e-01	2.300664e-01	2.110257e-01	1.904291e-01	1.681833e-01	1.441346e-01	1.180558e-01	8.967180e-02	5.875599e-02	2.492282e-02	-1.209672e-02	-5.279409e-02	-9.740147e-02	-1.463389e-01	-1.994037e-01	-2.566351e-01	-3.157128e-01	-3.750773e-01	-4.270870e-01	-4.685547e-01	-4.959297e-01	-4.926518e-01	-4.644901e-01	-4.259346e-01	-3.383506e-01	-1.967848e-01	-4.475815e-02	9.491182e-02	2.121472e-01	2.979490e-01	3.506646e-01	3.822840e-01	4.131333e-01	4.522322e-01	4.912310e-01	5.174539e-01	5.258614e-01	5.202892e-01	5.077716e-01	4.932202e-01	4.786735e-01	4.648479e-01	4.520723e-01	4.403945e-01	4.294519e-01	4.190974e-01	4.096276e-01	4.014136e-01	3.945267e-01	3.886560e-01	3.834676e-01	3.788816e-01	3.749667e-01	3.718172e-01	3.694051e-01	3.676318e-01	3.664408e-01	3.656824e-01	3.652360e-01	3.649174e-01	3.647124e-01	3.646621e-01	3.649460e-01	3.656911e-01	3.669021e-01	3.680993e-01	3.679484e-01	3.643317e-01	3.553995e-01	3.411906e-01	3.241443e-01	3.076416e-01	2.937187e-01	2.822824e-01	2.721420e-01	2.620553e-01	2.513515e-01	2.398556e-01	2.275017e-01	2.143781e-01	2.005894e-01	1.862743e-01	1.714831e-01	1.563156e-01	1.408342e-01	1.250819e-01	1.091574e-01	9.308423e-02	7.697026e-02	6.086892e-02	4.491610e-02	2.915630e-02	1.368929e-02	-1.455622e-03	-1.616092e-02	-3.033641e-02	-4.385517e-02	-5.671385e-02	-6.875478e-02	-8.022158e-02	-9.133883e-02	-1.025671e-01	-1.144401e-01	-1.274047e-01	-1.414922e-01	-1.561308e-01	-1.699975e-01	-1.813839e-01	-1.885283e-01	-1.901557e-01	-1.859747e-01	-1.771543e-01	-1.666384e-01	-1.587491e-01	-1.578365e-01	-1.660587e-01	-1.826368e-01	-2.051138e-01	-2.316285e-01	-2.566115e-01	-2.809089e-01	-3.777662e-01	-2.900890e-01	
SCALARS Conservative_2 float 1
LOOKUP_TABLE default
1.190273e-01	2.284272e-01	2.461456e-01	2.537519e-01	2.607297e-01	2.624269e-01	2.577085e-01	2.436975e-01	2.183078e-01	1.810128e-01	1.341806e-01	8.304677e-02	3.544630e-02	-6.526049e-04	-2.076350e-02	-2.641662e-02	-2.385685e-02	-1.971270e-02	-1.827842e-02	-2.090256e-02	-2.734818e-02	-3.655789e-02	-4.728859e-02	-5.861429e-02	-6.985029e-02	-8.075231e-02	-9.125079e-02	-1.014346e-01	-1.115049e-01	-1.215432e-01	-1.316716e-01	-1.418887e-01	-1.521561e-01	-1.624062e-01	-1.725703e-01	-1.826047e-01	-1.925353e-01	-2.024029e-01	-2.121624e-01	-2.217421e-01	-2.310732e-01	-2.401275e-01	-2.488845e-01	-2.573567e-01	-2.655503e-01	-2.734823e-01	-2.811708e-01	-2.886431e-01	-2.959919e-01	-3.032758e-01	-3.105228e-01	-3.176289e-01	-3.242984e-01	-3.302837e-01	-3.357301e-01	-3.411133e-01	-3.469127e-01	-3.533453e-01	-3.604108e-01	-3.679929e-01	-3.761085e-01	-3.847511e-01	-3.937746e-01	-4.025250e-01	-4.097209e-01	-4.135584e-01	-4.123631e-01	-4.053338e-01	-3.933529e-01	-3.787710e-01	-3.643975e-01	-3.519305e-01	-3.411372e-01	-3.302876e-01	-3.175386e-01	-3.022828e-01	-2.849399e-01	-2.660026e-01	-2.453436e-01	-2.226607e-01	-1.977009e-01	-1.702310e-01	-1.399168e-01	-1.063099e-01	-6.886633e-02	-2.700155e-02	2.011500e-02	7.329221e-02	1.337298e-01	2.025071e-01	2.811031e-01	3.702334e-01	4.714452e-01	5.819664e-01	7.003502e-01	8.159929e-01	9.171840e-01	9.831273e-01	1.008464e+00	9.924661e-01	9.351614e-01	8.109325e-01	5.842031e-01	3.483208e-01	1.321606e-01	-4.262071e-02	-1.705232e-01	-2.554062e-01	-3.112861e-01	-3.587963e-01	-4.085171e-01	-4.549169e-01	-4.875890e-01	-5.022789e-01	-5.026213e-01	-4.952911e-01	-4.851043e-01	-4.742032e-01	-4.634248e-01	-4.532187e-01	-4.437144e-01	-4.346514e-01	-4.259321e-01	-4.178672e-01	-4.108396e-01	-4.049491e-01	-3.999310e-01	-3.954881e-01	-3.915480e-01	-3.881892e-01	-3.855110e-01	-3.834915e-01	-3.820525e-01	-3.811345e-01	-3.806102e-01	-3.803574e-01	-3.802109e-01	-3.801485e-01	-3.802173e-01	-3.805845e-01	-3.813821e-01	-3.826198e-01	-3.838283e-01	-3.836779e-01	-3.800433e-01	-3.710917e-01	-3.568878e-01	-3.398748e-01	-3.233834e-01	-3.093906e-01	-2.977887e-01	-2.873771e-01	-2.769136e-01	-2.657102e-01	-2.535944e-01	-2.404981e-01	-2.265029e-01	-2.117117e-01	-1.962372e-01	-1.801432e-01	-1.635028e-01	-1.463903e-01	-1.288356e-01	-1.109489e-01	-9.274633e-02	-7.435129e-02	-5.581791e-02	-3.730527e-02	-1.886439e-02	-6.196023e-04	1.738862e-02	3.500997e-02	5.212954e-02	6.859490e-02	8.436607e-02	9.929432e-02	1.136483e-01	1.277357e-01	1.421407e-01	1.575489e-01	1.745161e-01	1.930537e-01	2.123591e-01	2.306298e-01	2.455244e-01	2.546450e-01	2.562996e-01	2.502246e-01	2.382364e-01	2.245458e-01	2.150716e-01	2.155340e-01	2.285701e-01	2.531257e-01	2.859475e-01	3.247193e-01	3.603066e-01	3.934449e-01	5.388949e-01	2.855328e-01	
SCALARS Conservative_3 float 1
LOOKUP_TABLE default
-1.177241e-01	-9.723918e-02	-9.708622e-02	-9.757695e-02	-1.036443e-01	-1.152676e-01	-1.317856e-01	-1.516648e-01	-1.723320e-01	-1.903274e-01	-2.019453e-01	-2.042322e-01	-1.963559e-01	-1.807001e-01	-1.621107e-01	-1.455266e-01	-1.338369e-01	-1.272695e-01	-1.245999e-01	-1.241039e-01	-1.243653e-01	-1.244728e-01	-1.239635e-01	-1.228110e-01	-1.210999e-01	-1.190430e-01	-1.167747e-01	-1.143793e-01	-1.119262e-01	-1.093875e-01	-1.067773e-01	-1.040612e-01	-1.012160e-01	-9.821718e-02	-9.505429e-02	-9.172351e-02	-8.824039e-02	-8.460970e-02	-8.084083e-02	-7.694218e-02	-7.292089e-02	-6.878932e-02	-6.455707e-02	-6.023560e-02	-5.583297e-02	-5.135770e-02	-4.681814e-02	-4.220698e-02	-3.754481e-02	-3.282455e-02	-2.802767e-02	-2.312196e-02	-1.809678e-02	-1.295379e-02	-7.700728e-03	-2.316533e-03	3.226585e-03	8.977841e-03	1.496984e-02	2.125701e-02	2.786895e-02	3.486555e-02	4.230904e-02	5.024162e-02	5.867458e-02	6.751709e-02	7.662637e-02	8.584923e-02	9.514180e-02	1.046759e-01	1.147368e-01	1.255976e-01	1.373301e-01	1.497463e-01	1.626164e-01	1.758620e-01	1.896204e-01	2.040681e-01	2.192006e-01	2.349949e-01	2.514672e-01	2.686178e-01	2.864679e-01	3.049391e-01	3.239308e-01	3.432996e-01	3.627600e-01	3.818504e-01	3.998087e-01	4.154789e-01	4.271110e-01	4.317831e-01	4.256213e-01	4.032690e-01	3.576640e-01	2.815618e-01	1.715805e-01	4.162848e-02	-1.031121e-01	-2.021151e-01	-2.948939e-01	-4.655288e-01	-6.199467e-01	-6.836213e-01	-6.843223e-01	-6.493294e-01	-5.946139e-01	-5.312425e-01	-4.707373e-01	-4.213532e-01	-3.834575e-01	-3.514220e-01	-3.205668e-01	-2.899231e-01	-2.608510e-01	-2.346524e-01	-2.116428e-01	-1.914682e-01	-1.737235e-01	-1.580195e-01	-1.440151e-01	-1.313892e-01	-1.199170e-01	-1.095095e-01	-1.000666e-01	-9.144302e-02	-8.347732e-02	-7.602613e-02	-6.902602e-02	-6.244245e-02	-5.621217e-02	-5.028318e-02	-4.458742e-02	-3.907773e-02	-3.371610e-02	-2.843787e-02	-2.320936e-02	-1.797854e-02	-1.273273e-02	-7.466617e-03	-2.200441e-03	3.077103e-03	8.402609e-03	1.383254e-02	1.946936e-02	2.540600e-02	3.159078e-02	3.783573e-02	4.398140e-02	5.003262e-02	5.610428e-02	6.228388e-02	6.857101e-02	7.492704e-02	8.128008e-02	8.758821e-02	9.381296e-02	9.990055e-02	1.058135e-01	1.114976e-01	1.169171e-01	1.220435e-01	1.267989e-01	1.311770e-01	1.350988e-01	1.385656e-01	1.415039e-01	1.439342e-01	1.457810e-01	1.470700e-01	1.477399e-01	1.478330e-01	1.473438e-01	1.463644e-01	1.449600e-01	1.433518e-01	1.416476e-01	1.400298e-01	1.385277e-01	1.369367e-01	1.347315e-01	1.310911e-01	1.251088e-01	1.161567e-01	1.042799e-01	9.044282e-02	7.654263e-02	6.511540e-02	5.881551e-02	5.951224e-02	6.736300e-02	8.024054e-02	9.431876e-02	1.061421e-01	1.141067e-01	1.182431e-01	1.196966e-01	1.330829e-01	1.261187e-01	-2.629462e-01	
SCALARS Conservative_4 float 1
LOOKUP_TABLE default
-1.894511e-02	-4.865911e-02	-5.030143e-02	-5.067966e-02	-5.142785e-02	-5.116887e-02	-4.972358e-02	-4.658795e-02	-4.136601e-02	-3.393710e-02	-2.468883e-02	-1.459667e-02	-5.200959e-03	1.813116e-03	5.485901e-03	6.181433e-03	5.274224e-03	4.212748e-03	3.851977e-03	4.446835e-03	5.887328e-03	7.928273e-03	1.029896e-02	1.278106e-02	1.524667e-02	1.763219e-02	1.994171e-02	2.219507e-02	2.442407e-02	2.666607e-02	2.892590e-02	3.121920e-02	3.353600e-02	3.586454e-02	3.818387e-02	4.048104e-02	4.276372e-02	4.503744e-02	4.729747e-02	4.952196e-02	5.169986e-02	5.381887e-02	5.587885e-02	5.787704e-02	5.981978e-02	6.170590e-02	6.354366e-02	6.533729e-02	6.710503e-02	6.886279e-02	7.062642e-02	7.236231e-02	7.399693e-02	7.547017e-02	7.681528e-02	7.815472e-02	7.960780e-02	8.123561e-02	8.303269e-02	8.498075e-02	8.707172e-02	8.931294e-02	9.164731e-02	9.391405e-02	9.576787e-02	9.676601e-02	9.647833e-02	9.474114e-02	9.178013e-02	8.822281e-02	8.475700e-02	8.181543e-02	7.932329e-02	7.685256e-02	7.396368e-02	7.051589e-02	6.665106e-02	6.248979e-02	5.802302e-02	5.319829e-02	4.798787e-02	4.236585e-02	3.630180e-02	2.973738e-02	2.261795e-02	1.487623e-02	6.443059e-03	-2.750843e-03	-1.278974e-02	-2.376923e-02	-3.564796e-02	-4.853918e-02	-6.214814e-02	-7.619673e-02	-8.980831e-02	-1.021334e-01	-1.106821e-01	-1.118018e-01	-1.081298e-01	-1.042756e-01	-9.739839e-02	-7.314855e-02	-3.780770e-02	-2.197187e-03	3.025480e-02	5.708248e-02	7.685817e-02	8.903341e-02	9.657650e-02	1.039500e-01	1.135097e-01	1.232010e-01	1.299282e-01	1.322917e-01	1.311112e-01	1.280831e-01	1.244698e-01	1.208190e-01	1.173288e-01	1.141069e-01	1.111533e-01	1.083956e-01	1.057831e-01	1.033882e-01	1.013053e-01	9.955503e-02	9.806795e-02	9.676193e-02	9.560226e-02	9.461196e-02	9.381391e-02	9.319758e-02	9.274993e-02	9.244064e-02	9.225032e-02	9.213209e-02	9.205567e-02	9.200198e-02	9.198991e-02	9.205199e-02	9.222686e-02	9.251434e-02	9.279242e-02	9.274145e-02	9.183783e-02	8.962466e-02	8.608855e-02	8.182064e-02	7.765362e-02	7.410333e-02	7.118603e-02	6.859635e-02	6.602553e-02	6.330711e-02	6.038898e-02	5.727153e-02	5.396043e-02	5.048124e-02	4.685488e-02	4.311872e-02	3.928144e-02	3.536667e-02	3.138276e-02	2.735429e-02	2.328981e-02	1.921346e-02	1.514232e-02	1.110819e-02	7.119816e-03	3.202191e-03	-6.347424e-04	-4.361525e-03	-7.948137e-03	-1.138154e-02	-1.461694e-02	-1.767654e-02	-2.057420e-02	-2.339080e-02	-2.623596e-02	-2.926070e-02	-3.257158e-02	-3.618707e-02	-3.994210e-02	-4.350396e-02	-4.642244e-02	-4.825022e-02	-4.866442e-02	-4.759439e-02	-4.535781e-02	-4.272730e-02	-4.084039e-02	-4.081666e-02	-4.313490e-02	-4.758130e-02	-5.351253e-02	-6.093148e-02	-6.752589e-02	-7.458505e-02	-1.252616e-01	-7.751182e-02	
SCALARS Surface_Sensitivity float 1
LOOKUP_TABLE default
-5.055032e+02	1.068620e+02	5.042776e+00	3.445256e+00	2.860007e+00	1.639773e+00	1.224981e+00	9.441732e-01	6.710378e-01	4.092939e-01	2.260897e-01	-2.351074e-04	-2.968958e-01	-3.782456e-01	-1.434567e-01	1.686535e-01	3.060850e-01	2.756473e-01	1.887466e-01	1.146015e-01	5.973601e-02	2.626060e-02	1.365527e-02	1.023550e-02	1.587968e-02	2.312298e-02	3.005738e-02	3.387133e-02	2.790759e-02	1.766980e-02	7.571022e-03	7.312702e-03	1.623808e-02	2.549548e-02	2.986084e-02	2.853856e-02	2.000825e-02	9.040034e-03	2.926632e-03	1.569061e-03	5.352775e-03	1.172120e-02	1.986971e-02	2.206413e-02	1.477238e-02	-1.715651e-03	-1.195947e-02	-1.800719e-03	2.318237e-02	1.659514e-02	-6.442748e-02	-1.911872e-01	-2.624698e-01	-1.886455e-01	5.809265e-02	4.278068e-01	7.919356e-01	9.632789e-01	8.071034e-01	3.611585e-01	-2.120070e-01	-7.376489e-01	-1.107544e+00	-1.253796e+00	-1.139186e+00	-7.629861e-01	-1.999489e-01	3.991621e-01	8.211574e-01	9.102161e-01	6.503534e-01	2.065674e-01	-1.616506e-01	-2.641750e-01	-1.355953e-01	2.149889e-02	6.136816e-02	2.053324e-02	-1.071215e-02	-2.062914e-02	-2.562854e-02	-3.037312e-02	-2.640041e-02	3.230917e-03	3.478397e-02	7.652522e-02	1.582622e-01	2.749561e-01	4.557097e-01	7.697713e-01	1.249271e+00	1.949790e+00	3.034571e+00	4.118715e+00	4.539234e+00	5.034657e+00	4.418267e+00	1.194402e+01	7.646963e+00	-7.457958e+00	3.029709e+01	3.238852e+01	2.269648e+01	1.812519e+01	9.744114e+00	4.940041e+00	7.183930e-01	-2.543961e+00	-1.130199e+00	3.931715e+00	7.559166e+00	6.898240e+00	3.308647e+00	-3.946009e-01	-2.466922e+00	-2.955515e+00	-2.711267e+00	-2.344553e+00	-2.065571e+00	-1.845248e+00	-1.587332e+00	-1.257006e+00	-9.124247e-01	-6.491921e-01	-4.918152e-01	-3.806607e-01	-2.824992e-01	-1.798318e-01	-5.274762e-02	1.092175e-01	2.805030e-01	4.296505e-01	5.407239e-01	6.150655e-01	6.573138e-01	6.776025e-01	7.294252e-01	9.223202e-01	1.366895e+00	1.998979e+00	2.449413e+00	2.243848e+00	1.302449e+00	-2.240342e-02	-1.321589e+00	-2.285536e+00	-2.682006e+00	-2.398772e+00	-1.530558e+00	-4.060288e-01	5.346603e-01	9.574263e-01	8.271414e-01	4.289674e-01	7.558496e-02	-1.077969e-01	-1.396359e-01	-8.662733e-02	-2.808031e-02	-5.871387e-04	-1.114369e-03	-8.124063e-03	-1.139293e-02	-1.511702e-02	-1.986210e-02	-2.392780e-02	-2.369593e-02	-2.310186e-02	-1.920229e-02	-2.032432e-02	-2.304272e-02	-2.712248e-02	-3.227092e-02	-3.494906e-02	-3.144588e-02	-3.357303e-02	-3.632778e-02	-4.733585e-02	-6.889705e-02	-1.021849e-01	-1.397195e-01	-1.716186e-01	-1.791928e-01	-1.549542e-01	-9.390113e-02	-7.863776e-03	8.034626e-02	1.316908e-01	9.094945e-02	-1.282897e-01	-6.236345e-01	-1.269296e+00	-1.876233e+00	-2.597647e+00	-4.581378e+00	-5.880141e+00	-9.624296e+00	-1.921058e+02	3.271525e+02	4.198995e+02	