# vtk DataFile Version 3.0
vtk output
ASCII
DATASET UNSTRUCTURED_GRID
POINTS 5233 float
9.997500e-01	-3.632248e-05	0.0	9.990000e-01	-1.448452e-04	0.0	9.977600e-01	-3.206537e-04	0.0	9.960200e-01	-5.531330e-04	0.0	9.937800e-01	-8.153267e-04	0.0	9.910500e-01	-1.062627e-03	0.0	9.878400e-01	-1.243456e-03	0.0	9.841300e-01	-1.321536e-03	0.0	9.799500e-01	-1.303894e-03	0.0	9.752800e-01	-1.269995e-03	0.0	9.701500e-01	-1.374947e-03	0.0	9.645400e-01	-1.821479e-03	0.0	9.584700e-01	-2.801904e-03	0.0	9.519400e-01	-4.438008e-03	0.0	9.449600e-01	-6.736763e-03	0.0	9.375400e-01	-9.587403e-03	0.0	9.296900e-01	-1.279450e-02	0.0	9.214000e-01	-1.613774e-02	0.0	9.127000e-01	-1.939674e-02	0.0	9.035800e-01	-2.241657e-02	0.0	8.940600e-01	-2.509494e-02	0.0	8.841500e-01	-2.739467e-02	0.0	8.738500e-01	-2.932853e-02	0.0	8.631800e-01	-3.093743e-02	0.0	8.521600e-01	-3.228108e-02	0.0	8.407700e-01	-3.342933e-02	0.0	8.290500e-01	-3.444339e-02	0.0	8.170100e-01	-3.538141e-02	0.0	8.046400e-01	-3.629382e-02	0.0	7.919700e-01	-3.721831e-02	0.0	7.790100e-01	-3.818448e-02	0.0	7.657800e-01	-3.921200e-02	0.0	7.522800e-01	-4.031368e-02	0.0	7.385200e-01	-4.149400e-02	0.0	7.245300e-01	-4.274895e-02	0.0	7.103200e-01	-4.407043e-02	0.0	6.958900e-01	-4.544671e-02	0.0	6.812700e-01	-4.685975e-02	0.0	6.664700e-01	-4.829118e-02	0.0	6.515000e-01	-4.972158e-02	0.0	6.363800e-01	-5.113071e-02	0.0	6.211300e-01	-5.249943e-02	0.0	6.057600e-01	-5.381146e-02	0.0	5.902800e-01	-5.505289e-02	0.0	5.747100e-01	-5.621185e-02	0.0	5.590600e-01	-5.728027e-02	0.0	5.433600e-01	-5.825182e-02	0.0	5.276100e-01	-5.912503e-02	0.0	5.118400e-01	-5.989931e-02	0.0	4.960500e-01	-6.057797e-02	0.0	4.802700e-01	-6.116486e-02	0.0	4.645100e-01	-6.166625e-02	0.0	4.487800e-01	-6.208940e-02	0.0	4.331100e-01	-6.244172e-02	0.0	4.175000e-01	-6.273158e-02	0.0	4.019700e-01	-6.296676e-02	0.0	3.865400e-01	-6.315454e-02	0.0	3.712300e-01	-6.330148e-02	0.0	3.560400e-01	-6.341314e-02	0.0	3.409900e-01	-6.349356e-02	0.0	3.261100e-01	-6.354530e-02	0.0	3.114000e-01	-6.356942e-02	0.0	2.968700e-01	-6.356524e-02	0.0	2.825500e-01	-6.353044e-02	0.0	2.684500e-01	-6.346117e-02	0.0	2.545700e-01	-6.335196e-02	0.0	2.409400e-01	-6.319631e-02	0.0	2.275700e-01	-6.298651e-02	0.0	2.144700e-01	-6.271396e-02	0.0	2.016600e-01	-6.236975e-02	0.0	1.891400e-01	-6.194409e-02	0.0	1.769300e-01	-6.142766e-02	0.0	1.650400e-01	-6.081107e-02	0.0	1.534900e-01	-6.008594e-02	0.0	1.422900e-01	-5.924418e-02	0.0	1.314400e-01	-5.827753e-02	0.0	1.209500e-01	-5.717917e-02	0.0	1.108500e-01	-5.594591e-02	0.0	1.011300e-01	-5.457118e-02	0.0	9.181000e-02	-5.305324e-02	0.0	8.290000e-02	-5.139056e-02	0.0	7.440000e-02	-4.958070e-02	0.0	6.633000e-02	-4.762666e-02	0.0	5.869000e-02	-4.552825e-02	0.0	5.149000e-02	-4.328874e-02	0.0	4.474000e-02	-4.091294e-02	0.0	3.844000e-02	-3.840319e-02	0.0	3.260000e-02	-3.576645e-02	0.0	2.723000e-02	-3.301176e-02	0.0	2.232000e-02	-3.013834e-02	0.0	1.790000e-02	-2.717032e-02	0.0	1.395000e-02	-2.410207e-02	0.0	1.049000e-02	-2.095743e-02	0.0	7.520000e-03	-1.774916e-02	0.0	5.040000e-03	-1.449175e-02	0.0	3.050000e-03	-1.120123e-02	0.0	1.560000e-03	-7.919532e-03	0.0	5.600000e-04	-4.653723e-03	0.0	6.000000e-05	-1.468470e-03	0.0	0.000000e+00	0.000000e+00	0.0	6.000000e-05	1.369535e-03	0.0	5.600000e-04	4.044650e-03	0.0	1.560000e-03	6.529418e-03	0.0	3.050000e-03	8.844288e-03	0.0	5.040000e-03	1.103034e-02	0.0	7.520000e-03	1.309529e-02	0.0	1.049000e-02	1.505911e-02	0.0	1.395000e-02	1.693833e-02	0.0	1.790000e-02	1.874702e-02	0.0	2.232000e-02	2.048981e-02	0.0	2.723000e-02	2.218585e-02	0.0	3.260000e-02	2.383413e-02	0.0	3.844000e-02	2.544593e-02	0.0	4.474000e-02	2.702435e-02	0.0	5.149000e-02	2.857147e-02	0.0	5.869000e-02	3.009021e-02	0.0	6.633000e-02	3.157991e-02	0.0	7.440000e-02	3.303892e-02	0.0	8.290000e-02	3.446633e-02	0.0	9.181000e-02	3.585699e-02	0.0	1.011300e-01	3.720841e-02	0.0	1.108500e-01	3.851591e-02	0.0	1.209500e-01	3.977339e-02	0.0	1.314400e-01	4.097837e-02	0.0	1.422900e-01	4.212367e-02	0.0	1.534900e-01	4.320504e-02	0.0	1.650400e-01	4.421949e-02	0.0	1.769300e-01	4.516365e-02	0.0	1.891400e-01	4.603424e-02	0.0	2.016600e-01	4.682987e-02	0.0	2.144700e-01	4.754964e-02	0.0	2.275700e-01	4.819493e-02	0.0	2.409400e-01	4.876720e-02	0.0	2.545700e-01	4.926957e-02	0.0	2.684500e-01	4.970617e-02	0.0	2.825500e-01	5.008161e-02	0.0	2.968700e-01	5.040214e-02	0.0	3.114000e-01	5.067424e-02	0.0	3.261100e-01	5.090440e-02	0.0	3.409900e-01	5.109955e-02	0.0	3.560400e-01	5.126638e-02	0.0	3.712300e-01	5.141064e-02	0.0	3.865400e-01	5.153727e-02	0.0	4.019700e-01	5.165008e-02	0.0	4.175000e-01	5.175112e-02	0.0	4.331100e-01	5.184059e-02	0.0	4.487800e-01	5.191665e-02	0.0	4.645100e-01	5.197530e-02	0.0	4.802700e-01	5.201013e-02	0.0	4.960500e-01	5.201253e-02	0.0	5.118400e-01	5.197168e-02	0.0	5.276100e-01	5.187487e-02	0.0	5.433600e-01	5.170762e-02	0.0	5.590600e-01	5.145444e-02	0.0	5.747100e-01	5.109867e-02	0.0	5.902800e-01	5.062407e-02	0.0	6.057600e-01	5.001449e-02	0.0	6.211300e-01	4.925534e-02	0.0	6.363800e-01	4.833360e-02	0.0	6.515000e-01	4.723882e-02	0.0	6.664700e-01	4.596485e-02	0.0	6.812700e-01	4.451035e-02	0.0	6.958900e-01	4.287852e-02	0.0	7.103200e-01	4.107850e-02	0.0	7.245300e-01	3.912899e-02	0.0	7.385200e-01	3.705204e-02	0.0	7.522800e-01	3.487802e-02	0.0	7.657800e-01	3.264719e-02	0.0	7.790100e-01	3.040180e-02	0.0	7.919700e-01	2.818489e-02	0.0	8.046400e-01	2.604191e-02	0.0	8.170100e-01	2.401099e-02	0.0	8.290500e-01	2.212235e-02	0.0	8.407700e-01	2.038328e-02	0.0	8.521600e-01	1.878329e-02	0.0	8.631800e-01	1.729205e-02	0.0	8.738500e-01	1.584840e-02	0.0	8.841500e-01	1.438032e-02	0.0	8.940600e-01	1.281227e-02	0.0	9.035800e-01	1.108071e-02	0.0	9.127000e-01	9.160865e-03	0.0	9.214000e-01	7.088878e-03	0.0	9.296900e-01	4.963236e-03	0.0	9.375400e-01	2.953838e-03	0.0	9.449600e-01	1.250041e-03	0.0	9.519400e-01	2.436363e-05	0.0	9.584700e-01	-6.298100e-04	0.0	9.645400e-01	-7.362835e-04	0.0	9.701500e-01	-4.331849e-04	0.0	9.752800e-01	7.070761e-05	0.0	9.799500e-01	5.692375e-04	0.0	9.841300e-01	9.114864e-04	0.0	9.878400e-01	1.039901e-03	0.0	9.910500e-01	9.748316e-04	0.0	9.937800e-01	7.840109e-04	0.0	9.960200e-01	5.445514e-04	0.0	9.977600e-01	3.190749e-04	0.0	9.990000e-01	1.447019e-04	0.0	9.997500e-01	3.632021e-05	0.0	1.000000e+00	0.000000e+00	0.0	1.984229e+01	2.506660e+00	0.0	1.937166e+01	4.973800e+00	0.0	1.859553e+01	7.362490e+00	0.0	1.752613e+01	9.635070e+00	0.0	1.618034e+01	1.175571e+01	0.0	1.457937e+01	1.369094e+01	0.0	1.274848e+01	1.541027e+01	0.0	1.071654e+01	1.688656e+01	0.0	8.515590e+00	1.809654e+01	0.0	6.180340e+00	1.902113e+01	0.0	3.747630e+00	1.964575e+01	0.0	1.255810e+00	1.996053e+01	0.0	-1.255810e+00	1.996053e+01	0.0	-3.747630e+00	1.964574e+01	0.0	-6.180340e+00	1.902113e+01	0.0	-8.515590e+00	1.809654e+01	0.0	-1.071654e+01	1.688656e+01	0.0	-1.274848e+01	1.541026e+01	0.0	-1.457937e+01	1.369094e+01	0.0	-1.618034e+01	1.175570e+01	0.0	-1.752613e+01	9.635070e+00	0.0	-1.859553e+01	7.362490e+00	0.0	-1.937166e+01	4.973800e+00	0.0	-1.984229e+01	2.506660e+00	0.0	-2.000000e+01	0.000000e+00	0.0	-1.984229e+01	-2.506670e+00	0.0	-1.937166e+01	-4.973800e+00	0.0	-1.859553e+01	-7.362490e+00	0.0	-1.752613e+01	-9.635080e+00	0.0	-1.618034e+01	-1.175571e+01	0.0	-1.457937e+01	-1.369094e+01	0.0	-1.274848e+01	-1.541027e+01	0.0	-1.071653e+01	-1.688656e+01	0.0	-8.515580e+00	-1.809654e+01	0.0	-6.180340e+00	-1.902113e+01	0.0	-3.747620e+00	-1.964575e+01	0.0	-1.255810e+00	-1.996053e+01	0.0	1.255810e+00	-1.996053e+01	0.0	3.747630e+00	-1.964574e+01	0.0	6.180340e+00	-1.902113e+01	0.0	8.515590e+00	-1.809654e+01	0.0	1.071654e+01	-1.688656e+01	0.0	1.274848e+01	-1.541026e+01	0.0	1.457937e+01	-1.369094e+01	0.0	1.618034e+01	-1.175570e+01	0.0	1.752614e+01	-9.635070e+00	0.0	1.859553e+01	-7.362490e+00	0.0	1.937166e+01	-4.973790e+00	0.0	1.984229e+01	-2.506660e+00	0.0	2.000000e+01	0.000000e+00	0.0	6.044212e-02	-5.336423e-02	0.0	6.602483e-01	-6.277617e-02	0.0	4.255220e-01	6.619466e-02	0.0	6.899712e-01	5.663228e-02	0.0	3.791986e-01	-7.740385e-02	0.0	9.994669e-01	-6.979152e-04	0.0	9.985594e-01	-1.277515e-03	0.0	7.737990e-01	-5.091770e-02	0.0	6.898912e-01	-5.967617e-02	0.0	-1.394109e-03	6.106663e-03	0.0	7.467621e-01	-5.367635e-02	0.0	5.832965e-01	6.482661e-02	0.0	9.927671e-01	-3.363209e-03	0.0	9.898372e-01	-4.048765e-03	0.0	5.988975e-01	6.415553e-02	0.0	7.187660e-01	-5.660560e-02	0.0	-1.644866e-03	6.560128e-04	0.0	9.864078e-01	-4.698635e-03	0.0	9.824944e-01	-5.305217e-03	0.0	-1.627271e-03	-7.266459e-03	0.0	6.451763e-01	-6.429710e-02	0.0	8.245823e-01	-4.562817e-02	0.0	7.997667e-01	-4.829709e-02	0.0	3.485068e-01	6.509577e-02	0.0	8.481067e-01	-4.265632e-02	0.0	2.473787e-01	6.157148e-02	0.0	8.702608e-01	-3.900090e-02	0.0	1.024186e-02	1.923704e-02	0.0	8.908951e-01	-3.430523e-02	0.0	7.679002e-02	-5.810001e-02	0.0	9.098787e-01	-2.844550e-02	0.0	-2.010992e-03	-3.559997e-03	0.0	9.424778e-01	-1.544542e-02	0.0	9.270913e-01	-2.181876e-02	0.0	1.751128e-02	-3.248956e-02	0.0	4.257970e-01	-7.694327e-02	0.0	8.593662e-01	-4.093674e-02	0.0	9.560854e-01	-1.051383e-02	0.0	9.781017e-01	-5.924995e-03	0.0	9.679662e-01	-7.526472e-03	0.0	1.583210e-01	-7.107903e-02	0.0	9.006038e-01	-3.151118e-02	0.0	7.604096e-01	-5.227552e-02	0.0	9.971369e-01	-1.986868e-03	0.0	5.991366e-01	-6.854351e-02	0.0	4.414969e-01	-7.665047e-02	0.0	5.363918e-01	-7.300414e-02	0.0	4.730694e-01	-7.581843e-02	0.0	5.047377e-01	-7.461572e-02	0.0	4.888909e-01	-7.526536e-02	0.0	1.249070e-01	-6.728843e-02	0.0	2.742266e-02	-3.908281e-02	0.0	3.946357e-01	-7.731442e-02	0.0	4.585845e-02	-4.806026e-02	0.0	4.101698e-01	-7.716354e-02	0.0	3.188356e-01	-7.724747e-02	0.0	3.487096e-01	-7.742580e-02	0.0	3.310302e-02	-4.219068e-02	0.0	2.896529e-01	-7.688755e-02	0.0	9.350123e-01	-1.851887e-02	0.0	1.468313e-01	-6.994527e-02	0.0	1.947711e-01	-7.375521e-02	0.0	8.560128e-02	-6.024195e-02	0.0	1.044693e-01	-6.407272e-02	0.0	5.679049e-01	-7.097959e-02	0.0	1.701510e-01	-7.208887e-02	0.0	6.146121e-01	-6.719274e-02	0.0	8.807804e-01	-3.680036e-02	0.0	2.223650e-02	-3.584642e-02	0.0	9.952054e-01	-2.678172e-03	0.0	6.316152e-03	-2.195478e-02	0.0	1.828761e-02	2.380684e-02	0.0	9.187105e-01	-2.517726e-02	0.0	9.49
[...]
POINT_DATA 5233

SCALARS Conservative_1 float 1
LOOKUP_TABLE default
1.165482e+00	1.148378e+00	1.131253e+00	1.115359e+00	1.104001e+00	1.099291e+00	1.105348e+00	1.122649e+00	1.146145e+00	1.170836e+00	1.188440e+00	1.198645e+00	1.197179e+00	1.186331e+00	1.164374e+00	1.132002e+00	1.092148e+00	1.046703e+00	9.914178e-01	9.233829e-01	8.674188e-01	8.319253e-01	8.326503e-01	8.479119e-01	8.721758e-01	8.987718e-01	9.198014e-01	9.382221e-01	9.520188e-01	9.640205e-01	9.724567e-01	9.802713e-01	9.844907e-01	9.899739e-01	9.902240e-01	9.940719e-01	9.909141e-01	9.977163e-01	9.894678e-01	9.892805e-01	9.640779e-01	9.359371e-01	9.041667e-01	8.665838e-01	8.484017e-01	8.263750e-01	8.220514e-01	8.169047e-01	8.196166e-01	8.210325e-01	8.251760e-01	8.272672e-01	8.308227e-01	8.331362e-01	8.363265e-01	8.369807e-01	8.379377e-01	8.357317e-01	8.341917e-01	8.278753e-01	8.219205e-01	8.109974e-01	8.032616e-01	7.913410e-01	7.816873e-01	7.697023e-01	7.612115e-01	7.527415e-01	7.458009e-01	7.416376e-01	7.395542e-01	7.418776e-01	7.437947e-01	7.467261e-01	7.502442e-01	7.578344e-01	7.692754e-01	7.811309e-01	7.925078e-01	8.053952e-01	8.209962e-01	8.383142e-01	8.587389e-01	8.802598e-01	9.043453e-01	9.310691e-01	9.612721e-01	9.939003e-01	1.029086e+00	1.067325e+00	1.108270e+00	1.155921e+00	1.199735e+00	1.250803e+00	1.284100e+00	1.333864e+00	1.336938e+00	1.364509e+00	1.337668e+00	1.288406e+00	1.299273e+00	1.236628e+00	1.136004e+00	1.044186e+00	9.583028e-01	9.047629e-01	8.666931e-01	8.345234e-01	8.164303e-01	8.028420e-01	7.955681e-01	7.940936e-01	7.955073e-01	7.960414e-01	7.945551e-01	7.934313e-01	7.932328e-01	7.939673e-01	7.922860e-01	7.901349e-01	7.867258e-01	7.826773e-01	7.771331e-01	7.707839e-01	7.638955e-01	7.564760e-01	7.504916e-01	7.450693e-01	7.418154e-01	7.385822e-01	7.341270e-01	7.288137e-01	7.242520e-01	7.199811e-01	7.190772e-01	7.182704e-01	7.199366e-01	7.196100e-01	7.224945e-01	7.255133e-01	7.309617e-01	7.398201e-01	7.501816e-01	7.647864e-01	7.744386e-01	7.878168e-01	7.933671e-01	8.023095e-01	8.053656e-01	8.112724e-01	8.115555e-01	8.124480e-01	8.085142e-01	8.052148e-01	7.979993e-01	7.929561e-01	7.842564e-01	7.826630e-01	7.792924e-01	8.001294e-01	8.189453e-01	8.807783e-01	9.380818e-01	9.882039e-01	1.020287e+00	9.882494e-01	9.850426e-01	9.811497e-01	9.913373e-01	1.008961e+00	1.020713e+00	1.035265e+00	1.041805e+00	1.045778e+00	1.045985e+00	1.043551e+00	1.039795e+00	1.037550e+00	1.037740e+00	1.046972e+00	1.062054e+00	1.086971e+00	1.113925e+00	1.140513e+00	1.163109e+00	1.177664e+00	1.184396e+00	1.178154e+00	1.163862e+00	1.136165e+00	1.105376e+00	1.075317e+00	1.057225e+00	1.054445e+00	1.067388e+00	1.087647e+00	1.109014e+00	1.130533e+00	1.152823e+00	1.146174e+00	9.997072e-01	9.995143e-01	9.997054e-01	9.996099e-01	1.000103e+00	1.000089e+00	9.996020e-01	9.998964e-01	9.996512e-01	9.997035e-01	9.997254e-01	9.997220e-01	9.998352e-01	9.999190e-01	9.999826e-01	1.000037e+00	1.000059e+00	1.000065e+00	1.000063e+00	1.000060e+00	1.000055e+00	1.000048e+00	1.000041e+00	1.000045e+00	1.000043e+00	1.000042e+00	1.000054e+00	1.000062e+00	1.000075e+00	1.000092e+00	1.000123e+00	1.000154e+00	1.000193e+00	1.000242e+00	1.000289e+00	1.000329e+00	1.000359e+00	1.000379e+00	1.000320e+00	1.000305e+00	1.000173e+00	1.000148e+00	1.000176e+00	1.000165e+00	1.000192e+00	1.000189e+00	1.000330e+00	1.000745e+00	1.000195e+00	9.999488e-01	8.941074e-01	1.004180e+00	7.859147e-01	9.082696e-01	8.399031e-01	1.155692e+00	1.141865e+00	9.752908e-01	1.001001e+00	1.238062e+00	9.862798e-01	8.051291e-01	1.111925e+00	1.111291e+00	7.976096e-01	9.937472e-01	1.285837e+00	1.120005e+00	1.133661e+00	1.340128e+00	9.860775e-01	9.340847e-01	9.587203e-01	7.319974e-01	8.964947e-01	7.303386e-01	8.578888e-01	9.074521e-01	8.680588e-01	8.516212e-01	9.764922e-01	1.322716e+00	1.140547e+00	1.077546e+00	1.109263e+00	8.391331e-01	8.733085e-01	1.175619e+00	1.150703e+00	1.176650e+00	7.562221e-01	9.182851e-01	9.798585e-01	1.128809e+00	8.857826e-01	8.360739e-01	8.228167e-01	8.309233e-01	8.251875e-01	8.287906e-01	7.781247e-01	1.036868e+00	8.416572e-01	9.432878e-01	8.404925e-01	8.184288e-01	8.338222e-01	1.004727e+00	7.991861e-01	1.111524e+00	7.602568e-01	7.469338e-01	8.329020e-01	8.047848e-01	8.379882e-01	7.516239e-01	9.274158e-01	8.521317e-01	1.072821e+00	1.117793e+00	1.224110e+00	8.508780e-01	1.035690e+00	1.163521e+00	1.166552e+00	1.164565e+00	9.163200e-01	7.690720e-01	8.298204e-01	9.883285e-01	9.679418e-01	7.920028e-01	7.539116e-01	8.636827e-01	9.975488e-01	9.172473e-01	1.270942e+00	1.148696e+00	8.387804e-01	7.494483e-01	1.181514e+00	7.607101e-01	8.182687e-01	8.107187e-01	7.780739e-01	8.339450e-01	9.925474e-01	1.283788e+00	1.323647e+00	8.162510e-01	1.272425e+00	8.248621e-01	8.136479e-01	8.184096e-01	7.941250e-01	7.716649e-01	1.108197e+00	8.179784e-01	8.066976e-01	1.136285e+00	1.161289e+00	1.045488e+00	8.136078e-01	7.927169e-01	7.472118e-01	1.101772e+00	1.063452e+00	8.095480e-01	1.117508e+00	1.162512e+00	1.141691e+00	8.033068e-01	8.114723e-01	7.258213e-01	7.275527e-01	7.592111e-01	7.268349e-01	8.026825e-01	7.610396e-01	7.725800e-01	7.878084e-01	7.901610e-01	7.510713e-01	7.413176e-01	8.133385e-01	8.093400e-01	1.006546e+00	1.014950e+00	1.017005e+00	9.964617e-01	1.045826e+00	1.037184e+00	1.052498e+00	1.045154e+00	1.155638e+00	1.082419e+00	1.153748e+00	1.045829e+00	1.044240e+00	1.030434e+00	1.042970e+00	9.935313e-01	1.009248e+00	9.643795e-01	9.986996e-01	8.048689e-01	8.628647e-01	8.143204e-01	7.952016e-01	7.470319e-01	7.360859e-01	7.658470e-01	7.550679e-01	8.165771e-01	7.809474e-01	8.758103e-01	8.212411e-01	7.499743e-01	1.016541e+00	1.180958e+00	9.467592e-01	8.292338e-01	8.238057e-01	1.083429e+00	8.347308e-01	9.597151e-01	8.065617e-01	8.108673e-01	7.252528e-01	7.990703e-01	1.094724e+00	1.080385e+00	7.246161e-01	1.073591e+00	1.078126e+00	7.282936e-01	7.385271e-01	1.124950e+00	1.173220e+00	1.126853e+00	1.142350e+00	9.607460e-01	9.720459e-01	1.092372e+00	8.157611e-01	1.305074e+00	1.189959e+00	8.712002e-01	7.675601e-01	7.901124e-01	8.224221e-01	1.220220e+00	1.276965e+00	7.970778e-01	9.916803e-01	1.015097e+00	1.206153e+00	8.156195e-01	9.972564e-01	9.718120e-01	1.121316e+00	8.265051e-01	8.982665e-01	9.317520e-01	8.458762e-01	1.308754e+00	7.589353e-01	1.141348e+00	1.160789e+00	7.734840e-01	9.936563e-01	9.893780e-01	8.403466e-01	8.648077e-01	8.437767e-01	9.180213e-01	9.648635e-01	9.823151e-01	8.807544e-01	8.559883e-01	1.042682e+00	8.070745e-01	8.953886e-01	7.730193e-01	1.047576e+00	1.087689e+00	7.359692e-01	8.230983e-01	1.144330e+00	1.050397e+00	1.085288e+00	1.147205e+00	1.108144e+00	7.420541e-01	7.329986e-01	7.470507e-01	8.118170e-01	1.000984e+00	7.574360e-01	9.398284e-01	7.869682e-01	8.293752e-01	1.135270e+00	1.091801e+00	1.055240e+00	7.659741e-01	1.184509e+00	1.115308e+00	1.102204e+00	1.038153e+00	1.156926e+00	1.243625e+00	1.351358e+00	1.278889e+00	1.107800e+00	1.186656e+00	9.056284e-01	1.132658e+00	1.118485e+00	7.843229e-01	8.338614e-01	1.129691e+00	8.788900e-01	8.106909e-01	1.117244e+00	1.325453e+00	8.414764e-01	7.700153e-01	9.171092e-01	7.338255e-01	8.851616e-01	8.891402e-01	8.850741e-01	9.698463e-01	1.056417e+00	1.136778e+00	1.041667e+00	1.151937e+00	1.163128e+00	1.140523e+00	7.893388e-01	9.816861e-01	9.772947e-01	1.123671e+00	8.379802e-01	8.352742e-01	8.327698e-01	1.071214e+00	8.450075e-01	8.437302e-01	8.352921e-01	9.815141e-01	1.087415e+00	1.113574e+00	7.807250e-01	8.309489e-01	8.380628e-01	9.101291e-01	1.159589e+00	1.151607e+00	9.891638e-01	9.883491e-01	8.175532e-01	8.025436e-01	8.564225e-01	8.850740e-01	9.534979e-01	9.297644e-01	1.175091e+00	8.387431e-01	8.426131e-01	7.611611e-01	7.570951e-01	7.629984e-01	7.695498e-01	8.079036e-01	8.159703e-01	7.771587e-01	1.301683e+00	1.270338e+00	8.348230e-01	1.094795e+00	8.225688e-01	8.205143e-01	8.141284e-01	8.099066e-01	1.123307e+00	1.144053e+00	1.093007e+00	8.010965e-01	7.916491e-01	7.589503e-01	1.077201e+00	1.136867e+00	8.246601e-01	8.265026e-01	7.375631e-01	7.353309e-01	7.799984e-01	7.945985e-01	8.012929e-01	1.009953e+00	1.002188e+00	1.012439e+00	1.002765e+00	1.037191e+00	1.063792e+00	1.046470e+00	1.045123e+00	1.031405e+00	1.022660e+00	9.951049e-01	1.000828e+00	1.005523e+00	9.568418e-01	8.204741e-01	8.040564e-01	8.187966e-01	8.222253e-01	8.046941e-01	8.042597e-01	7.533928e-01	7.585215e-01	7.636316e-01	7.680466e-01	9.068056e-01	8.410355e-01	8.504109e-01	9.548403e-01	9.429460e-01	8.308523e-01	8.284494e-01	1.097690e+00	8.618582e-01	8.154840e-01	8.193421e-01	7.321804e-01	7.314971e-01	7.473767e-01	7.403841e-01	1.124717e+00	1.108938e+00	9.476998e-01	9.763895e-01	1.011083e+00	1.301593e+00	7.883227e-01	1.328008e+00	8.487302e-01	8.034106e-01	9.681007e-01	8.406357e-01	1.041126e+00	1.092772e+00	1.096137e+00	1.134013e+00	1.099815e+00	1.096300e+00	1.126653e+00	1.146952e+00	1.128483e+00	1.172495e+00	1.108867e+00	1.294566e+00	8.599295e-01	1.071170e+00	1.121387e+00	8.267960e-01	1.142021e+00	1.234581e+00	9.941930e-01	1.278907e+00	9.901576e-01	1.141891e+00	9.012294e-01	1.202199e+00	8.320527e-01	9.068290e-01	9.991909e-01	1.120864e+00	1.171586e+00	1.111559e+00	8.292662e-01	1.130804e+00	8.453645e-01	1.103038e+00	8.270856e-01	7.421155e-01	7.389442e-01	7.877274e-01	8.376316e-01	1.137451e+00	1.301541e+00	1.193305e+00	9.335469e-01	1.237999e+00	1.148889e+00	8.785904e-01	1.305232e+00	7.845170e-01	8.442268e-01	1.077175e+00	1.004354e+00	1.041453e+00	1.009912e+00	8.927006e-01	1.103387e+00	1.134315e+00	1.058222e+00	1.053857e+00	7.383595e-01	7.405789e-01	7.530028e-01	8.208618e-01	9.966397e-01	9.949871e-01	7.667264e-01	9.658810e-01	7.934974e-01	1.121970e+00	1.111000e+00	1.045004e+00	1.135288e+00	1.252844e+00	1.327158e+00	1.047309e+00	1.156009e+00	1.149321e+00	1.149376e+00	1.125470e+00	8.217239e-01	8.450774e-01	7.825196e-01	9.319580e-01	9.169507e-01	9.049682e-01	9.262359e-01	9.179176e-01	8.974135e-01	9.657064e-01	1.003637e+00	1.132972e+00	1.144004e+00	1.131524e+00	9.802016e-01	9.744824e-01	1.123621e+00	8.422229e-01	8.402253e-01	8.481663e-01	8.472954e-01	1.019261e+00	1.095809e+00	1.117481e+00	8.024301e-01	7.930434e-01	8.437401e-01	8.582117e-01	1.145754e+00	1.139102e+00	9.893034e-01	9.837813e-01	8.438072e-01	8.275516e-01	8.136567e-01	8.713472e-01	9.041791e-01	9.924211e-01	9.656475e-01	9.413401e-01	8.395844e-01	8.425826e-01	8.465270e-01	7.751706e-01	7.699442e-01	7.663177e-01	7.677083e-01	7.711152e-01	8.140872e-01	8.249076e-01	7.775163e-01	8.501674e-01	8.249096e-01	8.170561e-01	1.129804e+00	8.075786e-01	8.008547e-01	7.905383e-01	7.681149e-01	1.086721e+00	8.407352e-01	8.441993e-01	7.447447e-01	7.490411e-01	8.001653e-01	8.078273e-01	8.149347e-01	1.022501e+00	1.075675e+00	1.065584e+00	1.050218e+00	1.047806e+00	1.045013e+00	1.035835e+00	1.028324e+00	1.021571e+00	1.001542e+00	9.978764e-01	1.003123e+00	1.001064e+00	9.892071e-01	9.464223e-01	8.317621e-01	8.284442e-01	8.301866e-01	8.185368e-01	8.188367e-01	8.179872e-01	7.593602e-01	7.650929e-01	7.697792e-01	7.748950e-01	7.810264e-01	8.594681e-01	8.716387e-01	9.606110e-01	9.524363e-01	9.420365e-01	8.368941e-01	8.362566e-01	8.866482e-01	9.062939e-01	8.251332e-01	8.289822e-01	8.332238e-01	7.376255e-01	7.552420e-01	7.470918e-01	7.424200e-01	1.123064e+00	1.112736e+00	1.100350e+00	9.387107e-01	9.644239e-01	9.857304e-01	7.852719e-01	7.958423e-01	1.308577e+00	8.734363e-01	1.108409e+00	1.106659e+00	8.475745e-01	1.264907e+00	1.134499e+00	1.056725e+00	1.079192e+00	1.052865e+00	1.098997e+00	8.309926e-01	1.294943e+00	9.863753e-01	1.217914e+00	1.123917e+00	1.101938e+00	1.179502e+00	8.542880e-01	1.140125e+00	1.153135e+00	1.158956e+00	9.646521e-01	7.956576e-01	1.108368e+00	8.526249e-01	8.929687e-01	8.502110e-01	8.124670e-01	1.100866e+00	8.373423e-01	1.123223e+00	1.118418e+00	1.009427e+00	8.003287e-01	7.517770e-01	1.123201e+00	8.535251e-01	9.238750e-01	1.119831e+00	1.098560e+00	1.125439e+00	1.136873e+00	1.136881e+00	9.948858e-01	1.248424e+00	9.945498e-01	9.874103e-01	1.168088e+00	1.121677e+00	1.192548e+00	1.039807e+00	8.349488e-01	7.436843e-01	1.225906e+00	1.020880e+00	8.776217e-01	1.059824e+00	7.426713e-01	7.445833e-01	7.482313e-01	9.976899e-01	1.002964e+00	1.113663e+00	1.056523e+00	1.100908e+00	1.266599e+00	1.315916e+00	1.081203e+00	1.136828e+00	1.126375e+00	8.347331e-01	9.346709e-01	9.259763e-01	9.280515e-01	9.426405e-01	9.310530e-01	9.110657e-01	9.648487e-01	9.995144e-01	1.031570e+00	1.125081e+00	1.133317e+00	9.762065e-01	9.703954e-01	1.122293e+00	8.489290e-01	8.478635e-01	8.517789e-01	8.503075e-01	1.097899e+00	1.113578e+00	8.185286e-01	8.061508e-01	8.646625e-01	1.134414e+00	1.130429e+00	9.811422e-01	9.795087e-01	8.551975e-01	8.403728e-01	8.283577e-01	8.713517e-01	8.885183e-01	1.026802e+00	1.001374e+00	9.759583e-01	9.523386e-01	8.397822e-01	8.441163e-01	8.490074e-01	8.505398e-01	7.870466e-01	7.824448e-01	7.783710e-01	7.781637e-01	7.788840e-01	8.312158e-01	8.204175e-01	7.818521e-01	8.267185e-01	1.118802e+00	1.123009e+00	8.149168e-01	8.077587e-01	7.955416e-01	7.884178e-01	7.765614e-01	8.591620e-01	8.668895e-01	7.549251e-01	7.599737e-01	8.064579e-01	8.133139e-01	8.206808e-01	8.276699e-01	1.083465e+00	1.073708e+00	1.066202e+00	1.055905e+00	1.051767e+00	1.048371e+00	1.043181e+00	1.033977e+00	1.026232e+00	1.016407e+00	1.003943e+00	1.018196e+00	1.020866e+00	1.006906e+00	1.005631e+00	9.724766e-01	9.319161e-01	8.359121e-01	8.361881e-01	8.487110e-01	8.300330e-01	8.292659e-01	8.315876e-01	7.646299e-01	7.712314e-01	7.760412e-01	7.813148e-01	7.871750e-01	7.944936e-01	8.778333e-01	8.920748e-01	9.586478e-01	9.514253e-01	9.424040e-01	8.453288e-01	8.439907e-01	8.440602e-01	9.096087e-01	9.295305e-01	9.556324e-01	8.333270e-01	8.375685e-01	8.428223e-01	8.486768e-01	7.652618e-01	7.539922e-01	7.483991e-01	7.447145e-01	1.093071e+00	1.111340e+00	1.102449e+00	9.269836e-01	9.521538e-01	9.749445e-01	9.843116e-01	7.875921e-01	7.959752e-01	8.029350e-01	1.155867e+00	1.105743e+00	1.126601e+00	1.147101e+00	1.180646e+00	9.850492e-01	8.874391e-01	1.205494e+00	1.106814e+00	1.243343e+00	1.079853e+00	8.101623e-01	8.138748e-01	1.035324e+00	1.140710e+00	1.235232e+00	1.303200e+00	1.297386e+00	1.279923e+00	1.256302e+00	1.123504e+00	7.485857e-01	1.127038e+00	1.121000e+00	1.083349e+00	9.662769e-01	8.561821e-01	1.101860e+00	1.089428e+00	1.108975e+00	8.421557e-01	8.406407e-01	8.735825e-01	1.009963e+00	8.330998e-01	8.559832e-01	7.474105e-01	1.099762e+00	9.062809e-01	1.134645e+00	1.103631e+00	1.290088e+00	1.155172e+00	1.146991e+00	1.068618e+00	1.055377e+00	1.279056e+00	1.004029e+00	1.225073e+00	1.115226e+00	1.171444e+00	1.144891e+00	1.151333e+00	1.131430e+00	8.287399e-01	8.165765e-01	1.100412e+00	8.443591e-01	1.113081e+00	1.122269e+00	1.005237e+00	1.208815e+00	7.493920e-01	7.542540e-01	7.561108e-01	9.973757e-01	1.067942e+00	1.103672e+00	1.297431e+00	1.106772e+00	9.428997e-01	9.372368e-01	9.457976e-01	9.527244e-01	9.247389e-01	9.428426e-01	9.782105e-01	9.966192e-01	1.024015e+00	1.051083e+00	1.117687e+00	1.123301e+00	9.734918e-01	1.121082e+00	8.547634e-01	8.544712e-01	8.548034e-01	8.564138e-01	1.098581e+00	1.109756e+00	8.333109e-01	8.172848e-01	1.125690e+00	1.124114e+00	9.781594e-01	8.687749e-01	8.533687e-01	8.460822e-01	8.812825e-01	1.032888e+00	1.008985e+00	9.849966e-01	9.641868e-01	8.358506e-01	8.437231e-01	8.507790e-01	8.530858e-01	8.545303e-01	7.989284e-01	7.948647e-01	7.895351e-01	7.901537e-01	7.877002e-01	1.110984e+00	1.114732e+00	1.116073e+00	8.264813e-01	8.134345e-01	8.044564e-01	7.915117e-01	7.846542e-01	8.745580e-01	8.837591e-01	7.626496e-01	7.652817e-01	8.188064e-01	8.272527e-01	8.355500e-01	1.080203e+00	1.072646e+00	1.066773e+00	1.060477e+00	1.055768e+00	1.051780e+00	1.047572e+00	1.040365e+00	1.029921e+00	1.014924e+00	1.022127e+00	1.005002e+00	9.376244e-01	8.449672e-01	8.441784e-01	7.717691e-01	7.766169e-01	7.839148e-01	7.874537e-01	7.953321e-01	8.014289e-01	8.078685e-01	8.967004e-01	9.112879e-01	9.581331e-01	9.524150e-01	9.477189e-01	8.530767e-01	8.534725e-01	9.303897e-01	9.525590e-01	9.765133e-01	8.426521e-01	8.483107e-01	8.536618e-01	8.606715e-01	8.678967e-01	7.752402e-01	7.600993e-01	7.539977e-01	7.504420e-01	1.103422e+00	1.095374e+00	9.279448e-01	9.745272e-01	7.911560e-01	7.948939e-01	8.041825e-01	8.096062e-01	1.139295e+00	1.126257e+00	1.189592e+00	1.262148e+00	1.152277e+00	1.119139e+00	1.101092e+00	1.190338e+00	1.108846e+00	1.124637e+00	1.118769e+00	1.254600e+00	1.079904e+00	1.169178e+00	7.532169e-01	1.147634e+00	1.075558e+00	1.164449e+00	1.146652e+00	1.117664e+00	8.619174e-01	1.101956e+00	8.305866e-01	1.085213e+00	1.066955e+00	9.564377e-01	9.003382e-01	8.186482e-01	1.241713e+00	8.601116e-01	9.376589e-01	9.201603e-01	8.315889e-01	1.105767e+00	1.086099e+00	1.216345e+00	1.046099e+00	1.115377e+00	1.139772e+00	1.103080e+00	1.284027e+00	1.251522e+00	1.118767e+00	9.834430e-01	8.380338e-01	8.271061e-01	1.100618e+00	1.145059e+00	1.109053e+00	1.277993e+00	1.149895e+00	1.059291e+00	1.224604e+00	1.206781e+00	8.527865e-01	1.102755e+00	1.108059e+00	1.104045e+00	8.483787e-01	7.585346e-01	7.649792e-01	9.878911e-01	1.103487e+00	1.132172e+00	1.126874e+00	9.553625e-01	9.751990e-01	9.557349e-01	1.008822e+00	1.043253e+00	1.111189e+00	1.118646e+00	8.604800e-01	1.096797e+00	1.104791e+00	8.378720e-01	1.119243e+00	9.743280e-01	9.705566e-01	8.755901e-01	8.601154e-01	8.797457e-01	1.037656e+00	1.014438e+00	9.925232e-01	9.775576e-01	8.435077e-01	8.560888e-01	8.606134e-01	8.039901e-01	7.986305e-01	1.107149e+00	1.108365e+00	8.004509e-01	7.846741e-01	9.017439e-01	7.762020e-01	8.443498e-01	1.024785e+00	1.073831e+00	1.062001e+00	1.053136e+00	1.045140e+00	1.035362e+00	1.011088e+00	1.023186e+00	1.007754e+00	9.828861e-01	9.126597e-01	8.777851e-01	8.555439e-01	8.520059e-01	7.882136e-01	7.994232e-01	8.100173e-01	8.141744e-01	8.230070e-01	9.158941e-01	9.319889e-01	9.653571e-01	9.591399e-01	9.541715e-01	8.607582e-01	8.589995e-01	9.507587e-01	9.723334e-01	9.954600e-01	1.018916e+00	8.535190e-01	8.602681e-01	8.659607e-01	8.736714e-01	8.840976e-01	8.894341e-01	7.645371e-01	7.559037e-01	1.101727e+00	1.096001e+00	9.048079e-01	9.815789e-01	1.002155e+00	8.012256e-01	8.126347e-01	1.102554e+00	1.140932e+00	1.136312e+00	1.113454e+00	1.011410e+00	1.100048e+00	1.145465e+00	1.122011e+00	1.194076e+00	1.140578e+00	1.128184e+00	1.119936e+00	1.104624e+00	1.203773e+00	1.243257e+00	1.103203e+00	9.761143e-01	7.613745e-01	1.106437e+00	1.033311e+00	1.100720e+00	9.121744e-01	1.079113e+00	1.176404e+00	8.650406e-01	1.086142e+00	9.755392e-01	8.750514e-01	1.111458e+00	1.113246e+00	1.080469e+00	1.062862e+00	1.138511e+00	1.100517e+00	1.099708e+00	1.102382e+00	7.709971e-01	8.603951e-01	1.001918e+00	9.660247e-01	1.123905e+00	1.129907e+00	1.282379e+00	1.108688e+00	1.102765e+00	1.148540e+00	1.114432e+00	1.182219e+00	1.159363e+00	8.702442e-01	1.237394e+00	9.533584e-01	9.315337e-01	1.101392e+00	1.247557e+00	1.105007e+00	1.115039e+00	9.850754e-01	1.280308e+00	1.148868e+00	9.853474e-01	1.219585e+00	1.212101e+00	8.508532e-01	1.121547e+00	1.100541e+00	8.562460e-01	7.630233e-01	8.677842e-01	1.128738e+00	1.153164e+00	9.788379e-01	1.001103e+00	1.057091e+00	1.073205e+00	1.116370e+00	8.668603e-01	1.094420e+00	1.100328e+00	8.613460e-01	9.669009e-01	9.654219e-01	9.716524e-01	9.106681e-01	8.898061e-01	8.711145e-01	1.041374e+00	8.392340e-01	8.548888e-01	8.486242e-01	8.290059e-01	9.935838e-01	1.102232e+00	8.358338e-01	8.205183e-01	8.528312e-01	1.079435e+00	1.067611e+00	1.029969e+00	1.057538e+00	1.049408e+00	1.041428e+00	1.016820e+00	1.013757e+00	1.017769e+00	1.006625e+00	9.564099e-01	9.094639e-01	8.756546e-01	7.823973e-01	7.941220e-01	8.063275e-01	8.182895e-01	8.276974e-01	8.407074e-01	9.337233e-01	9.512242e-01	9.698957e-01	9.680495e-01	8.672057e-01	8.662607e-01	9.679296e-01	9.871857e-01	1.009675e+00	1.032435e+00	1.056029e+00	8.651327e-01	8.738352e-01	8.797696e-01	8.872804e-01	8.982187e-01	7.949283e-01	7.798909e-01	7.641272e-01	1.096592e+00	1.089138e+00	8.998951e-01	9.374060e-01	8.157949e-01	8.086529e-01	8.129893e-01	8.221569e-01	1.125371e+00	1.130435e+00	1.127473e+00	1.104257e+00	1.164870e+00	1.116827e+00	1.125948e+00	1.085117e+00	1.147389e+00	1.117181e+00	1.115269e+00	1.100226e+00	1.134919e+00	1.097984e+00	7.883615e-01	1.122793e+00	1.124641e+00	1.133840e+00	1.138439e+00	1.083401e+00	8.814694e-01	1.014830e+00	1.047949e+00	9.746012e-01	1.122097e+00	1.111334e+00	1.108819e+00	1.144975e+00	1.181144e+00	8.698813e-01	9.