# vtk DataFile Version 3.0
vtk output
ASCII
DATASET UNSTRUCTURED_GRID
POINTS 200 float
9.997500e-01	-3.632248e-05	0.0	9.990000e-01	-1.448452e-04	0.0	9.977600e-01	-3.206537e-04	0.0	9.960200e-01	-5.531330e-04	0.0	9.937800e-01	-8.153267e-04	0.0	9.910500e-01	-1.062627e-03	0.0	9.878400e-01	-1.243456e-03	0.0	9.841300e-01	-1.321536e-03	0.0	9.799500e-01	-1.303894e-03	0.0	9.752800e-01	-1.269995e-03	0.0	9.701500e-01	-1.374947e-03	0.0	9.645400e-01	-1.821479e-03	0.0	9.584700e-01	-2.801904e-03	0.0	9.519400e-01	-4.438008e-03	0.0	9.449600e-01	-6.736763e-03	0.0	9.375400e-01	-9.587403e-03	0.0	9.296900e-01	-1.279450e-02	0.0	9.214000e-01	-1.613774e-02	0.0	9.127000e-01	-1.939674e-02	0.0	9.035800e-01	-2.241657e-02	0.0	8.940600e-01	-2.509494e-02	0.0	8.841500e-01	-2.739467e-02	0.0	8.738500e-01	-2.932853e-02	0.0	8.631800e-01	-3.093743e-02	0.0	8.521600e-01	-3.228108e-02	0.0	8.407700e-01	-3.342933e-02	0.0	8.290500e-01	-3.444339e-02	0.0	8.170100e-01	-3.538141e-02	0.0	8.046400e-01	-3.629382e-02	0.0	7.919700e-01	-3.721831e-02	0.0	7.790100e-01	-3.818448e-02	0.0	7.657800e-01	-3.921200e-02	0.0	7.522800e-01	-4.031368e-02	0.0	7.385200e-01	-4.149400e-02	0.0	7.245300e-01	-4.274895e-02	0.0	7.103200e-01	-4.407043e-02	0.0	6.958900e-01	-4.544671e-02	0.0	6.812700e-01	-4.685975e-02	0.0	6.664700e-01	-4.829118e-02	0.0	6.515000e-01	-4.972158e-02	0.0	6.363800e-01	-5.113071e-02	0.0	6.211300e-01	-5.249943e-02	0.0	6.057600e-01	-5.381146e-02	0.0	5.902800e-01	-5.505289e-02	0.0	5.747100e-01	-5.621185e-02	0.0	5.590600e-01	-5.728027e-02	0.0	5.433600e-01	-5.825182e-02	0.0	5.276100e-01	-5.912503e-02	0.0	5.118400e-01	-5.989931e-02	0.0	4.960500e-01	-6.057797e-02	0.0	4.802700e-01	-6.116486e-02	0.0	4.645100e-01	-6.166625e-02	0.0	4.487800e-01	-6.208940e-02	0.0	4.331100e-01	-6.244172e-02	0.0	4.175000e-01	-6.273158e-02	0.0	4.019700e-01	-6.296676e-02	0.0	3.865400e-01	-6.315454e-02	0.0	3.712300e-01	-6.330148e-02	0.0	3.560400e-01	-6.341314e-02	0.0	3.409900e-01	-6.349356e-02	0.0	3.261100e-01	-6.354530e-02	0.0	3.114000e-01	-6.356942e-02	0.0	2.968700e-01	-6.356524e-02	0.0	2.825500e-01	-6.353044e-02	0.0	2.684500e-01	-6.346117e-02	0.0	2.545700e-01	-6.335196e-02	0.0	2.409400e-01	-6.319631e-02	0.0	2.275700e-01	-6.298651e-02	0.0	2.144700e-01	-6.271396e-02	0.0	2.016600e-01	-6.236975e-02	0.0	1.891400e-01	-6.194409e-02	0.0	1.769300e-01	-6.142766e-02	0.0	1.650400e-01	-6.081107e-02	0.0	1.534900e-01	-6.008594e-02	0.0	1.422900e-01	-5.924418e-02	0.0	1.314400e-01	-5.827753e-02	0.0	1.209500e-01	-5.717917e-02	0.0	1.108500e-01	-5.594591e-02	0.0	1.011300e-01	-5.457118e-02	0.0	9.181000e-02	-5.305324e-02	0.0	8.290000e-02	-5.139056e-02	0.0	7.440000e-02	-4.958070e-02	0.0	6.633000e-02	-4.762666e-02	0.0	5.869000e-02	-4.552825e-02	0.0	5.149000e-02	-4.328874e-02	0.0	4.474000e-02	-4.091294e-02	0.0	3.844000e-02	-3.840319e-02	0.0	3.260000e-02	-3.576645e-02	0.0	2.723000e-02	-3.301176e-02	0.0	2.232000e-02	-3.013834e-02	0.0	1.790000e-02	-2.717032e-02	0.0	1.395000e-02	-2.410207e-02	0.0	1.049000e-02	-2.095743e-02	0.0	7.520000e-03	-1.774916e-02	0.0	5.040000e-03	-1.449175e-02	0.0	3.050000e-03	-1.120123e-02	0.0	1.560000e-03	-7.919532e-03	0.0	5.600000e-04	-4.653723e-03	0.0	6.000000e-05	-1.468470e-03	0.0	0.000000e+00	0.000000e+00	0.0	6.000000e-05	1.369535e-03	0.0	5.600000e-04	4.044650e-03	0.0	1.560000e-03	6.529418e-03	0.0	3.050000e-03	8.844288e-03	0.0	5.040000e-03	1.103034e-02	0.0	7.520000e-03	1.309529e-02	0.0	1.049000e-02	1.505911e-02	0.0	1.395000e-02	1.693833e-02	0.0	1.790000e-02	1.874702e-02	0.0	2.232000e-02	2.048981e-02	0.0	2.723000e-02	2.218585e-02	0.0	3.260000e-02	2.383413e-02	0.0	3.844000e-02	2.544593e-02	0.0	4.474000e-02	2.702435e-02	0.0	5.149000e-02	2.857147e-02	0.0	5.869000e-02	3.009021e-02	0.0	6.633000e-02	3.157991e-02	0.0	7.440000e-02	3.303892e-02	0.0	8.290000e-02	3.446633e-02	0.0	9.181000e-02	3.585699e-02	0.0	1.011300e-01	3.720841e-02	0.0	1.108500e-01	3.851591e-02	0.0	1.209500e-01	3.977339e-02	0.0	1.314400e-01	4.097837e-02	0.0	1.422900e-01	4.212367e-02	0.0	1.534900e-01	4.320504e-02	0.0	1.650400e-01	4.421949e-02	0.0	1.769300e-01	4.516365e-02	0.0	1.891400e-01	4.603424e-02	0.0	2.016600e-01	4.682987e-02	0.0	2.144700e-01	4.754964e-02	0.0	2.275700e-01	4.819493e-02	0.0	2.409400e-01	4.876720e-02	0.0	2.545700e-01	4.926957e-02	0.0	2.684500e-01	4.970617e-02	0.0	2.825500e-01	5.008161e-02	0.0	2.968700e-01	5.040214e-02	0.0	3.114000e-01	5.067424e-02	0.0	3.261100e-01	5.090440e-02	0.0	3.409900e-01	5.109955e-02	0.0	3.560400e-01	5.126638e-02	0.0	3.712300e-01	5.141064e-02	0.0	3.865400e-01	5.153727e-02	0.0	4.019700e-01	5.165008e-02	0.0	4.175000e-01	5.175112e-02	0.0	4.331100e-01	5.184059e-02	0.0	4.487800e-01	5.191665e-02	0.0	4.645100e-01	5.197530e-02	0.0	4.802700e-01	5.201013e-02	0.0	4.960500e-01	5.201253e-02	0.0	5.118400e-01	5.197168e-02	0.0	5.276100e-01	5.187487e-02	0.0	5.433600e-01	5.170762e-02	0.0	5.590600e-01	5.145444e-02	0.0	5.747100e-01	5.109867e-02	0.0	5.902800e-01	5.062407e-02	0.0	6.057600e-01	5.001449e-02	0.0	6.211300e-01	4.925534e-02	0.0	6.363800e-01	4.833360e-02	0.0	6.515000e-01	4.723882e-02	0.0	6.664700e-01	4.596485e-02	0.0	6.812700e-01	4.451035e-02	0.0	6.958900e-01	4.287852e-02	0.0	7.103200e-01	4.107850e-02	0.0	7.245300e-01	3.912899e-02	0.0	7.385200e-01	3.705204e-02	0.0	7.522800e-01	3.487802e-02	0.0	7.657800e-01	3.264719e-02	0.0	7.790100e-01	3.040180e-02	0.0	7.919700e-01	2.818489e-02	0.0	8.046400e-01	2.604191e-02	0.0	8.170100e-01	2.401099e-02	0.0	8.290500e-01	2.212235e-02	0.0	8.407700e-01	2.038328e-02	0.0	8.521600e-01	1.878329e-02	0.0	8.631800e-01	1.729205e-02	0.0	8.738500e-01	1.584840e-02	0.0	8.841500e-01	1.438032e-02	0.0	8.940600e-01	1.281227e-02	0.0	9.035800e-01	1.108071e-02	0.0	9.127000e-01	9.160865e-03	0.0	9.214000e-01	7.088878e-03	0.0	9.296900e-01	4.963236e-03	0.0	9.375400e-01	2.953838e-03	0.0	9.449600e-01	1.250041e-03	0.0	9.519400e-01	2.436363e-05	0.0	9.584700e-01	-6.298100e-04	0.0	9.645400e-01	-7.362835e-04	0.0	9.701500e-01	-4.331849e-04	0.0	9.752800e-01	7.070761e-05	0.0	9.799500e-01	5.692375e-04	0.0	9.841300e-01	9.114864e-04	0.0	9.878400e-01	1.039901e-03	0.0	9.910500e-01	9.748316e-04	0.0	9.937800e-01	7.840109e-04	0.0	9.960200e-01	5.445514e-04	0.0	9.977600e-01	3.190749e-04	0.0	9.990000e-01	1.447019e-04	0.0	9.997500e-01	3.632021e-05	0.0	1.000000e+00	0.000000e+00	0.0	
CELLS 200	600
2	199	0	2	0	1	2	1	2	2	2	3	2	3	4	2	4	5	2	5	6	2	6	7	2	7	8	2	8	9	2	9	10	2	10	11	2	11	12	2	12	13	2	13	14	2	14	15	2	15	16	2	16	17	2	17	18	2	18	19	2	19	20	2	20	21	2	21	22	2	22	23	2	23	24	2	24	25	2	25	26	2	26	27	2	27	28	2	28	29	2	29	30	2	30	31	2	31	32	2	32	33	2	33	34	2	34	35	2	35	36	2	36	37	2	37	38	2	38	39	2	39	40	2	40	41	2	41	42	2	42	43	2	43	44	2	44	45	2	45	46	2	46	47	2	47	48	2	48	49	2	49	50	2	50	51	2	51	52	2	52	53	2	53	54	2	54	55	2	55	56	2	56	57	2	57	58	2	58	59	2	59	60	2	60	61	2	61	62	2	62	63	2	63	64	2	64	65	2	65	66	2	66	67	2	67	68	2	68	69	2	69	70	2	70	71	2	71	72	2	72	73	2	73	74	2	74	75	2	75	76	2	76	77	2	77	78	2	78	79	2	79	80	2	80	81	2	81	82	2	82	83	2	83	84	2	84	85	2	85	86	2	86	87	2	87	88	2	88	89	2	89	90	2	90	91	2	91	92	2	92	93	2	93	94	2	94	95	2	95	96	2	96	97	2	97	98	2	98	99	2	99	100	2	100	101	2	101	102	2	102	103	2	103	104	2	104	105	2	105	106	2	106	107	2	107	108	2	108	109	2	109	110	2	110	111	2	111	112	2	112	113	2	113	114	2	114	115	2	115	116	2	116	117	2	117	118	2	118	119	2	119	120	2	120	121	2	121	122	2	122	123	2	123	124	2	124	125	2	125	126	2	126	127	2	127	128	2	128	129	2	129	130	2	130	131	2	131	132	2	132	133	2	133	134	2	134	135	2	135	136	2	136	137	2	137	138	2	138	139	2	139	140	2	140	141	2	141	142	2	142	143	2	143	144	2	144	145	2	145	146	2	146	147	2	147	148	2	148	149	2	149	150	2	150	151	2	151	152	2	152	153	2	153	154	2	154	155	2	155	156	2	156	157	2	157	158	2	158	159	2	159	160	2	160	161	2	161	162	2	162	163	2	163	164	2	164	165	2	165	166	2	166	167	2	167	168	2	168	169	2	169	170	2	170	171	2	171	172	2	172	173	2	173	174	2	174	175	2	175	176	2	176	177	2	177	178	2	178	179	2	179	180	2	180	181	2	181	182	2	182	183	2	183	184	2	184	185	2	185	186	2	186	187	2	187	188	2	188	189	2	189	190	2	190	191	2	191	192	2	192	193	2	193	194	2	194	195	2	195	196	2	196	197	2	197	198	2	198	199	
CELL_TYPES 200
3	3	3	3	3	3	3	3	3	3	3	3	3	3	3	3	3	3	3	3	3	3	3	3	3	3	3	3	3	3	3	3	3	3	3	3	3	3	3	3	3	3	3	3	3	3	3	3	3	3	3	3	3	3	3	3	3	3	3	3	3	3	3	3	3	3	3	3	3	3	3	3	3	3	3	3	3	3	3	3	3	3	3	3	3	3	3	3	3	3	3	3	3	3	3	3	3	3	3	3	3	3	3	3	3	3	3	3	3	3	3	3	3	3	3	3	3	3	3	3	3	3	3	3	3	3	3	3	3	3	3	3	3	3	3	3	3	3	3	3	3	3	3	3	3	3	3	3	3	3	3	3	3	3	3	3	3	3	3	3	3	3	3	3	3	3	3	3	3	3	3	3	3	3	3	3	3	3	3	3	3	3	3	3	3	3	3	3	3	3	3	3	3	3	3	3	3	3	3	3	
POINT_DATA 200

SCALARS Conservative_1 float 1
LOOKUP_TABLE default
1.165482e+00	1.148378e+00	1.131253e+00	1.115359e+00	1.104001e+00	1.099291e+00	1.105348e+00	1.122649e+00	1.146145e+00	1.170836e+00	1.188440e+00	1.198645e+00	1.197179e+00	1.186331e+00	1.164374e+00	1.132002e+00	1.092148e+00	1.046703e+00	9.914178e-01	9.233829e-01	8.674188e-01	8.319253e-01	8.326503e-01	8.479119e-01	8.721758e-01	8.987718e-01	9.198014e-01	9.382221e-01	9.520188e-01	9.640205e-01	9.724567e-01	9.802713e-01	9.844907e-01	9.899739e-01	9.902240e-01	9.940719e-01	9.909141e-01	9.977163e-01	9.894678e-01	9.892805e-01	9.640779e-01	9.359371e-01	9.041667e-01	8.665838e-01	8.484017e-01	8.263750e-01	8.220514e-01	8.169047e-01	8.196166e-01	8.210325e-01	8.251760e-01	8.272672e-01	8.308227e-01	8.331362e-01	8.363265e-01	8.369807e-01	8.379377e-01	8.357317e-01	8.341917e-01	8.278753e-01	8.219205e-01	8.109974e-01	8.032616e-01	7.913410e-01	7.816873e-01	7.697023e-01	7.612115e-01	7.527415e-01	7.458009e-01	7.416376e-01	7.395542e-01	7.418776e-01	7.437947e-01	7.467261e-01	7.502442e-01	7.578344e-01	7.692754e-01	7.811309e-01	7.925078e-01	8.053952e-01	8.209962e-01	8.383142e-01	8.587389e-01	8.802598e-01	9.043453e-01	9.310691e-01	9.612721e-01	9.939003e-01	1.029086e+00	1.067325e+00	1.108270e+00	1.155921e+00	1.199735e+00	1.250803e+00	1.284100e+00	1.333864e+00	1.336938e+00	1.364509e+00	1.337668e+00	1.288406e+00	1.299273e+00	1.236628e+00	1.136004e+00	1.044186e+00	9.583028e-01	9.047629e-01	8.666931e-01	8.345234e-01	8.164303e-01	8.028420e-01	7.955681e-01	7.940936e-01	7.955073e-01	7.960414e-01	7.945551e-01	7.934313e-01	7.932328e-01	7.939673e-01	7.922860e-01	7.901349e-01	7.867258e-01	7.826773e-01	7.771331e-01	7.707839e-01	7.638955e-01	7.564760e-01	7.504916e-01	7.450693e-01	7.418154e-01	7.385822e-01	7.341270e-01	7.288137e-01	7.242520e-01	7.199811e-01	7.190772e-01	7.182704e-01	7.199366e-01	7.196100e-01	7.224945e-01	7.255133e-01	7.309617e-01	7.398201e-01	7.501816e-01	7.647864e-01	7.744386e-01	7.878168e-01	7.933671e-01	8.023095e-01	8.053656e-01	8.112724e-01	8.115555e-01	8.124480e-01	8.085142e-01	8.052148e-01	7.979993e-01	7.929561e-01	7.842564e-01	7.826630e-01	7.792924e-01	8.001294e-01	8.189453e-01	8.807783e-01	9.380818e-01	9.882039e-01	1.020287e+00	9.882494e-01	9.850426e-01	9.811497e-01	9.913373e-01	1.008961e+00	1.020713e+00	1.035265e+00	1.041805e+00	1.045778e+00	1.045985e+00	1.043551e+00	1.039795e+00	1.037550e+00	1.037740e+00	1.046972e+00	1.062054e+00	1.086971e+00	1.113925e+00	1.140513e+00	1.163109e+00	1.177664e+00	1.184396e+00	1.178154e+00	1.163862e+00	1.136165e+00	1.105376e+00	1.075317e+00	1.057225e+00	1.054445e+00	1.067388e+00	1.087647e+00	1.109014e+00	1.130533e+00	1.152823e+00	1.146174e+00	
SCALARS Conservative_2 float 1
LOOKUP_TABLE default
6.890203e-01	7.372386e-01	7.649136e-01	7.911943e-01	8.109860e-01	8.235004e-01	8.236101e-01	8.062949e-01	7.773500e-01	7.364097e-01	7.002259e-01	6.705801e-01	6.555920e-01	6.584212e-01	6.755528e-01	7.126352e-01	7.558073e-01	8.089562e-01	8.586540e-01	9.040478e-01	9.312961e-01	9.532004e-01	9.656166e-01	9.723844e-01	9.761536e-01	9.737440e-01	9.714971e-01	9.665397e-01	9.629416e-01	9.574586e-01	9.543472e-01	9.518432e-01	9.500153e-01	9.469505e-01	9.461549e-01	9.442131e-01	9.441639e-01	9.432961e-01	9.458358e-01	9.462886e-01	9.512639e-01	9.584351e-01	9.603308e-01	9.684061e-01	9.671502e-01	9.708732e-01	9.711673e-01	9.718339e-01	9.721929e-01	9.717980e-01	9.722530e-01	9.717353e-01	9.720792e-01	9.713392e-01	9.716668e-01	9.709374e-01	9.710280e-01	9.708171e-01	9.707366e-01	9.704379e-01	9.702107e-01	9.709801e-01	9.710620e-01	9.711665e-01	9.704127e-01	9.699692e-01	9.692542e-01	9.683897e-01	9.676476e-01	9.669080e-01	9.672490e-01	9.674611e-01	9.692300e-01	9.688956e-01	9.697789e-01	9.690829e-01	9.715466e-01	9.708131e-01	9.731502e-01	9.720578e-01	9.718825e-01	9.641472e-01	9.606668e-01	9.495359e-01	9.416452e-01	9.216042e-01	9.033645e-01	8.689487e-01	8.380583e-01	7.829568e-01	7.310778e-01	6.511756e-01	5.659786e-01	4.569373e-01	3.463656e-01	2.831844e-01	1.730964e-01	1.746042e-01	1.471217e-01	9.707571e-02	1.601764e-01	2.178738e-01	4.178153e-01	5.806387e-01	7.239187e-01	8.060983e-01	8.645115e-01	8.951778e-01	9.144827e-01	9.289162e-01	9.372570e-01	9.459678e-01	9.515971e-01	9.557376e-01	9.573615e-01	9.603616e-01	9.613323e-01	9.623981e-01	9.621983e-01	9.629144e-01	9.625473e-01	9.620571e-01	9.601281e-01	9.585734e-01	9.575396e-01	9.563914e-01	9.544540e-01	9.527738e-01	9.518135e-01	9.511686e-01	9.498825e-01	9.483296e-01	9.462841e-01	9.446310e-01	9.436079e-01	9.431894e-01	9.430547e-01	9.416667e-01	9.414679e-01	9.432233e-01	9.443168e-01	9.465183e-01	9.485721e-01	9.506522e-01	9.521334e-01	9.535374e-01	9.544146e-01	9.541015e-01	9.548243e-01	9.539498e-01	9.546309e-01	9.538317e-01	9.535194e-01	9.530926e-01	9.517150e-01	9.513194e-01	9.491978e-01	9.492725e-01	9.465178e-01	9.496266e-01	9.546192e-01	9.507512e-01	9.568505e-01	9.381114e-01	9.288146e-01	9.216286e-01	9.056290e-01	9.052675e-01	8.939952e-01	8.885174e-01	8.813472e-01	8.754132e-01	8.717202e-01	8.691775e-01	8.686809e-01	8.701029e-01	8.708242e-01	8.701697e-01	8.637156e-01	8.486737e-01	8.260385e-01	7.922842e-01	7.588103e-01	7.204794e-01	6.983460e-01	6.836285e-01	6.853987e-01	7.025908e-01	7.299217e-01	7.707258e-01	8.077819e-01	8.376606e-01	8.467600e-01	8.383589e-01	8.176972e-01	7.838197e-01	7.523680e-01	7.167412e-01	6.751657e-01	6.278510e-01	
SCALARS Conservative_3 float 1
LOOKUP_TABLE default
9.533545e-02	1.022703e-01	1.022852e-01	9.707293e-02	8.263014e-02	5.893438e-02	3.175461e-02	6.631733e-03	-2.312335e-03	7.141014e-03	3.792096e-02	8.416414e-02	1.368152e-01	1.936015e-01	2.406705e-01	2.831575e-01	3.041011e-01	3.118556e-01	2.973079e-01	2.771161e-01	2.372716e-01	2.011943e-01	1.644391e-01	1.329198e-01	1.102239e-01	9.093156e-02	8.107349e-02	7.280245e-02	7.159812e-02	7.066511e-02	7.327657e-02	7.565438e-02	8.102519e-02	8.436284e-02	8.913014e-02	9.165228e-02	9.504952e-02	9.349199e-02	9.468440e-02	8.925458e-02	8.551688e-02	8.241853e-02	7.442014e-02	7.431523e-02	6.525149e-02	6.274128e-02	5.498756e-02	5.091497e-02	4.420597e-02	3.892853e-02	3.336564e-02	2.851733e-02	2.389547e-02	1.973637e-02	1.610668e-02	1.301915e-02	1.004532e-02	7.824076e-03	5.398514e-03	3.938865e-03	1.371775e-03	2.669801e-04	-2.554157e-03	-3.268820e-03	-6.665474e-03	-8.444779e-03	-1.288343e-02	-1.634946e-02	-2.180707e-02	-2.796003e-02	-3.555712e-02	-4.487245e-02	-5.418770e-02	-6.540125e-02	-7.784568e-02	-9.297698e-02	-1.089343e-01	-1.271408e-01	-1.465591e-01	-1.686131e-01	-1.921214e-01	-2.178092e-01	-2.462594e-01	-2.763411e-01	-3.096243e-01	-3.427976e-01	-3.801823e-01	-4.149724e-01	-4.554131e-01	-4.829461e-01	-5.217201e-01	-5.290420e-01	-5.436128e-01	-4.955160e-01	-4.756696e-01	-3.661963e-01	-2.593268e-01	-1.080416e-01	2.058980e-01	3.303828e-01	4.704609e-01	6.583804e-01	7.331129e-01	7.339495e-01	6.527018e-01	5.755382e-01	4.915649e-01	4.317588e-01	3.746706e-01	3.332081e-01	2.962594e-01	2.688655e-01	2.447074e-01	2.263097e-01	2.084535e-01	1.923854e-01	1.781240e-01	1.659255e-01	1.543014e-01	1.437396e-01	1.335263e-01	1.239974e-01	1.147486e-01	1.050082e-01	9.637911e-02	8.717454e-02	7.942293e-02	7.110297e-02	6.357934e-02	5.631747e-02	5.006471e-02	4.322472e-02	3.754097e-02	3.150325e-02	2.688797e-02	2.273669e-02	1.949070e-02	1.632601e-02	1.357887e-02	1.098590e-02	8.682083e-03	6.744587e-03	4.833276e-03	4.950150e-03	3.311965e-03	3.676253e-03	1.918182e-03	1.435072e-03	-8.740848e-04	-1.936671e-03	-5.229949e-03	-7.945528e-03	-1.261968e-02	-1.810573e-02	-2.490722e-02	-3.334846e-02	-4.243120e-02	-5.375073e-02	-6.628753e-02	-7.995513e-02	-9.847565e-02	-9.804224e-02	-1.146044e-01	-1.008455e-01	-1.051932e-01	-1.190242e-01	-1.232754e-01	-1.490492e-01	-1.486884e-01	-1.529558e-01	-1.490207e-01	-1.408969e-01	-1.336727e-01	-1.248774e-01	-1.192838e-01	-1.174873e-01	-1.204315e-01	-1.308815e-01	-1.464122e-01	-1.661206e-01	-1.853227e-01	-1.955148e-01	-1.950686e-01	-1.746652e-01	-1.437497e-01	-9.543507e-02	-4.316860e-02	1.126345e-02	5.403856e-02	7.782193e-02	7.678629e-02	4.951522e-02	9.126397e-03	-3.513839e-02	-6.905118e-02	-8.845074e-02	-9.859440e-02	-9.608001e-02	-9.084515e-02	4.634588e-03	
SCALARS Conservative_4 float 1
LOOKUP_TABLE default
3.346624e+00	3.308084e+00	3.265522e+00	3.228992e+00	3.201246e+00	3.192276e+00	3.209513e+00	3.254462e+00	3.314766e+00	3.374484e+00	3.418087e+00	3.440266e+00	3.434318e+00	3.405080e+00	3.347189e+00	3.266652e+00	3.164576e+00	3.053897e+00	2.911878e+00	2.740826e+00	2.593649e+00	2.512468e+00	2.516457e+00	2.559607e+00	2.625472e+00	2.694313e+00	2.750410e+00	2.797528e+00	2.834502e+00	2.864678e+00	2.887591e+00	2.908425e+00	2.920144e+00	2.934169e+00	2.935173e+00	2.945154e+00	2.936897e+00	2.955415e+00	2.934656e+00	2.932027e+00	2.864169e+00	2.787923e+00	2.699893e+00	2.605068e+00	2.553619e+00	2.498479e+00	2.486851e+00	2.473236e+00	2.480402e+00	2.483326e+00	2.494071e+00	2.498986e+00	2.508299e+00	2.513640e+00	2.522094e+00	2.523310e+00	2.525839e+00	2.520113e+00	2.515936e+00	2.499449e+00	2.483650e+00	2.456327e+00	2.436536e+00	2.406630e+00	2.381572e+00	2.351654e+00	2.329984e+00	2.308851e+00	2.291363e+00	2.281324e+00	2.277308e+00	2.283991e+00	2.290793e+00	2.298611e+00	2.309020e+00	2.328604e+00	2.360549e+00	2.391493e+00	2.424475e+00	2.459653e+00	2.503367e+00	2.546742e+00	2.603068e+00	2.658255e+00	2.724880e+00	2.792723e+00	2.874134e+00	2.954678e+00	3.050446e+00	3.142792e+00	3.252534e+00	3.363950e+00	3.469372e+00	3.573040e+00	3.646771e+00	3.759184e+00	3.695910e+00	3.762218e+00	3.701887e+00	3.636938e+00	3.725736e+00	3.571777e+00	3.326087e+00	3.085845e+00	2.862463e+00	2.720489e+00	2.613207e+00	2.531104e+00	2.478710e+00	2.446168e+00	2.426293e+00	2.424433e+00	2.428268e+00	2.431258e+00	2.426586e+00	2.425154e+00	2.423817e+00	2.425828e+00	2.420153e+00	2.414666e+00	2.404494e+00	2.393766e+00	2.376760e+00	2.359300e+00	2.339571e+00	2.320620e+00	2.302790e+00	2.287815e+00	2.278006e+00	2.269648e+00	2.256824e+00	2.243025e+00	2.229301e+00	2.217826e+00	2.214007e+00	2.211695e+00	2.215044e+00	2.213248e+00	2.219718e+00	2.227866e+00	2.242334e+00	2.264346e+00	2.293097e+00	2.329220e+00	2.356545e+00	2.389845e+00	2.405923e+00	2.427840e+00	2.436912e+00	2.451022e+00	2.452746e+00	2.454377e+00	2.444108e+00	2.435210e+00	2.415999e+00	2.402810e+00	2.379661e+00	2.375104e+00	2.368219e+00	2.418955e+00	2.484911e+00	2.631531e+00	2.809590e+00	2.937471e+00	3.016702e+00	2.934383e+00	2.908669e+00	2.902320e+00	2.924547e+00	2.971274e+00	3.003682e+00	3.041009e+00	3.058143e+00	3.067514e+00	3.066831e+00	3.060276e+00	3.049181e+00	3.042400e+00	3.042254e+00	3.062018e+00	3.101389e+00	3.160511e+00	3.231395e+00	3.294934e+00	3.355177e+00	3.392637e+00	3.410937e+00	3.398231e+00	3.360288e+00	3.293422e+00	3.212148e+00	3.134693e+00	3.085358e+00	3.072937e+00	3.106107e+00	3.151563e+00	3.207896e+00	3.261113e+00	3.316267e+00	3.280023e+00	
SCALARS Pressure float 1
LOOKUP_TABLE default
1.255622e+00	1.226753e+00	1.200918e+00	1.177658e+00	1.160113e+00	1.152898e+00	1.160886e+00	1.185960e+00	1.220461e+00	1.257150e+00	1.284478e+00	1.299893e+00	1.298798e+00	1.282627e+00	1.250537e+00	1.202770e+00	1.144286e+00	1.077934e+00	9.981861e-01	9.026740e-01	8.245037e-01	7.768249e-01	7.761244e-01	7.966495e-01	8.288973e-01	8.648913e-01	8.935153e-01	9.187391e-01	9.379258e-01	9.546470e-01	9.666171e-01	9.773542e-01	9.833746e-01	9.910703e-01	9.916553e-01	9.970008e-01	9.930114e-01	1.002045e+00	9.912247e-01	9.901674e-01	9.564265e-01	9.174229e-01	8.747352e-01	8.243140e-01	7.999401e-01	7.703111e-01	7.645383e-01	7.574306e-01	7.610494e-01	7.629117e-01	7.682495e-01	7.711113e-01	7.757117e-01	7.788690e-01	7.829937e-01	7.840169e-01	7.852603e-01	7.824830e-01	7.804412e-01	7.722657e-01	7.644086e-01	7.500264e-01	7.398295e-01	7.242782e-01	7.116767e-01	6.961743e-01	6.851188e-01	6.743060e-01	6.653208e-01	6.601980e-01	6.575720e-01	6.607259e-01	6.629292e-01	6.668657e-01	6.712819e-01	6.813167e-01	6.957338e-01	7.111472e-01	7.253758e-01	7.421596e-01	7.622554e-01	7.856051e-01	8.121646e-01	8.410986e-01	8.726538e-01	9.094002e-01	9.497922e-01	9.952782e-01	1.043372e+00	1.098541e+00	1.155441e+00	1.223787e+00	1.285085e+00	1.356570e+00	1.404782e+00	1.471542e+00	1.463821e+00	1.498708e+00	1.471180e+00	1.436368e+00	1.452275e+00	1.350929e+00	1.205079e+00	1.066586e+00	9.467015e-01	8.713348e-01	8.170553e-01	7.757176e-01	7.522336e-01	7.358509e-01	7.276165e-01	7.261887e-01	7.285894e-01	7.301414e-01	7.289913e-01	7.282493e-01	7.285163e-01	7.300841e-01	7.283410e-01	7.259414e-01	7.217328e-01	7.170677e-01	7.100727e-01	7.024359e-01	6.933419e-01	6.844111e-01	6.766654e-01	6.700927e-01	6.658607e-01	6.620114e-01	6.562373e-01	6.499046e-01	6.440545e-01	6.389792e-01	6.377520e-01	6.368263e-01	6.388479e-01	6.387762e-01	6.424747e-01	6.458606e-01	6.529236e-01	6.635329e-01	6.773468e-01	6.953439e-01	7.084953e-01	7.251108e-01	7.327377e-01	7.442133e-01	7.483606e-01	7.560639e-01	7.565056e-01	7.577714e-01	7.526976e-01	7.483769e-01	7.392359e-01	7.325813e-01	7.216395e-01	7.190336e-01	7.162344e-01	7.405729e-01	7.690420e-01	8.451730e-01	9.258367e-01	9.948187e-01	1.035403e+00	9.989863e-01	9.938586e-01	9.893486e-01	1.004116e+00	1.027382e+00	1.044920e+00	1.064520e+00	1.073946e+00	1.079543e+00	1.079725e+00	1.076368e+00	1.071020e+00	1.067700e+00	1.068995e+00	1.081949e+00	1.105594e+00	1.141673e+00	1.182345e+00	1.221596e+00	1.254658e+00	1.276139e+00	1.284733e+00	1.275473e+00	1.252059e+00	1.211737e+00	1.165731e+00	1.122915e+00	1.098489e+00	1.095629e+00	1.116266e+00	1.146214e+00	1.179322e+00	1.211932e+00	1.245991e+00	1.243221e+00	
SCALARS Temperature float 1
LOOKUP_TABLE default
1.077341e+00	1.068249e+00	1.061582e+00	1.055856e+00	1.050827e+00	1.048765e+00	1.050245e+00	1.056394e+00	1.064840e+00	1.073720e+00	1.080810e+00	1.084469e+00	1.084882e+00	1.081172e+00	1.074000e+00	1.062515e+00	1.047739e+00	1.029837e+00	1.006827e+00	9.775728e-01	9.505256e-01	9.337676e-01	9.321133e-01	9.395428e-01	9.503787e-01	9.623036e-01	9.714220e-01	9.792341e-01	9.851967e-01	9.902766e-01	9.939950e-01	9.970242e-01	9.988663e-01	1.001107e+00	1.001445e+00	1.002946e+00	1.002117e+00	1.004339e+00	1.001776e+00	1.000896e+00	9.920635e-01	9.802186e-01	9.674490e-01	9.512226e-01	9.428790e-01	9.321569e-01	9.300370e-01	9.271959e-01	9.285431e-01	9.292101e-01	9.310130e-01	9.321188e-01	9.336669e-01	9.348639e-01	9.362297e-01	9.367204e-01	9.371344e-01	9.362849e-01	9.355657e-01	9.328285e-01	9.300275e-01	9.248197e-01	9.210318e-01	9.152543e-01	9.104366e-01	9.044722e-01	9.000375e-01	8.958001e-01	8.920890e-01	8.901895e-01	8.891465e-01	8.906131e-01	8.912798e-01	8.930527e-01	8.947512e-01	8.990311e-01	9.044014e-01	9.104072e-01	9.152917e-01	9.214850e-01	9.284518e-01	9.371249e-01	9.457643e-01	9.555117e-01	9.649565e-01	9.767269e-01	9.880576e-01	1.001386e+00	1.013883e+00	1.029247e+00	1.042563e+00	1.058712e+00	1.071141e+00	1.084560e+00	1.093982e+00	1.103217e+00	1.094906e+00	1.098349e+00	1.099809e+00	1.114842e+00	1.117760e+00	1.092430e+00	1.060805e+00	1.021452e+00	9.878940e-01	9.630532e-01	9.427274e-01	9.295337e-01	9.213690e-01	9.165576e-01	9.145874e-01	9.144876e-01	9.158802e-01	9.172154e-01	9.174836e-01	9.178480e-01	9.184142e-01	9.195393e-01	9.192905e-01	9.187563e-01	9.173880e-01	9.161728e-01	9.137080e-01	9.113266e-01	9.076397e-01	9.047360e-01	9.016296e-01	8.993697e-01	8.976097e-01	8.963273e-01	8.939016e-01	8.917293e-01	8.892685e-01	8.874945e-01	8.869034e-01	8.866108e-01	8.873670e-01	8.876699e-01	8.892451e-01	8.902119e-01	8.932391e-01	8.968840e-01	9.029104e-01	9.092001e-01	9.148501e-01	9.204054e-01	9.235797e-01	9.275888e-01	9.292185e-01	9.319483e-01	9.321674e-01	9.327014e-01	9.309640e-01	9.294128e-01	9.263615e-01	9.238612e-01	9.201575e-01	9.187013e-01	9.190830e-01	9.255664e-01	9.390639e-01	9.595752e-01	9.869467e-01	1.006694e+00	1.014816e+00	1.010865e+00	1.008950e+00	1.008356e+00	1.012891e+00	1.018257e+00	1.023716e+00	1.028258e+00	1.030851e+00	1.032287e+00	1.032257e+00	1.031448e+00	1.030031e+00	1.029058e+00	1.030119e+00	1.033408e+00	1.040996e+00	1.050325e+00	1.061423e+00	1.071094e+00	1.078711e+00	1.083620e+00	1.084716e+00	1.082603e+00	1.075779e+00	1.066515e+00	1.054601e+00	1.044265e+00	1.039030e+00	1.039058e+00	1.045792e+00	1.053847e+00	1.063397e+00	1.072000e+00	1.080817e+00	1.084671e+00	
SCALARS Pressure_Coefficient float 1
LOOKUP_TABLE default
5.705841e-01	5.061457e-01	4.484770e-01	3.965587e-01	3.573960e-01	3.412909e-01	3.591203e-01	4.150886e-01	4.921009e-01	5.739960e-01	6.349964e-01	6.694049e-01	6.669591e-01	6.308647e-01	5.592349e-01	4.526105e-01	3.220676e-01	1.739597e-01	-4.048804e-03	-2.172456e-01	-3.917328e-01	-4.981586e-01	-4.997224e-01	-4.539074e-01	-3.819256e-01	-3.015819e-01	-2.376891e-01	-1.813860e-01	-1.385585e-01	-1.012344e-01	-7.451542e-02	-5.054859e-02	-3.711033e-02	-1.993240e-02	-1.862652e-02	-6.694748e-03	-1.559958e-02	4.564444e-03	-1.958783e-02	-2.194783e-02	-9.726226e-02	-1.843238e-01	-2.796089e-01	-3.921561e-01	-4.465622e-01	-5.126984e-01	-5.255842e-01	-5.414495e-01	-5.333720e-01	-5.292149e-01	-5.173002e-01	-5.109123e-01	-5.006436e-01	-4.935960e-01	-4.843890e-01	-4.821052e-01	-4.793297e-01	-4.855290e-01	-4.900867e-01	-5.083356e-01	-5.258736e-01	-5.579767e-01	-5.807378e-01	-6.154504e-01	-6.435788e-01	-6.781824e-01	-7.028597e-01	-7.269956e-01	-7.470518e-01	-7.584866e-01	-7.643482e-01	-7.573083e-01	-7.523901e-01	-7.436033e-01	-7.337458e-01	-7.113467e-01	-6.791657e-01	-6.447608e-01	-6.130005e-01	-5.755367e-01	-5.306799e-01	-4.785601e-01	-4.192754e-01	-3.546906e-01	-2.842549e-01	-2.022317e-01	-1.120710e-01	-1.053978e-02	9.681288e-02	2.199582e-01	3.469676e-01	4.995251e-01	6.363507e-01	7.959158e-01	9.035324e-01	1.052550e+00	1.035315e+00	1.113187e+00	1.051741e+00	9.740367e-01	1.009542e+00	7.833245e-01	4.577655e-01	1.486284e-01	-1.189698e-01	-2.871991e-01	-4.083588e-01	-5.006303e-01	-5.530501e-01	-5.896185e-01	-6.079989e-01	-6.111859e-01	-6.058272e-01	-6.023629e-01	-6.049302e-01	-6.065863e-01	-6.059905e-01	-6.024908e-01	-6.063817e-01	-6.117379e-01	-6.211322e-01	-6.315454e-01	-6.471591e-01	-6.642056e-01	-6.845046e-01	-7.044396e-01	-7.217289e-01	-7.364001e-01	-7.458467e-01	-7.544388e-01	-7.673274e-01	-7.814630e-01	-7.945212e-01	-8.058499e-01	-8.085894e-01	-8.106556e-01	-8.061430e-01	-8.063032e-01	-7.980475e-01	-7.904898e-01	-7.747241e-01	-7.510427e-01	-7.202080e-01	-6.800360e-01	-6.506801e-01	-6.135919e-01	-5.965675e-01	-5.709525e-01	-5.616950e-01	-5.445002e-01	-5.435143e-01	-5.406889e-01	-5.520142e-01	-5.616586e-01	-5.820628e-01	-5.969167e-01	-6.213405e-01	-6.271572e-01	-6.334053e-01	-5.790783e-01	-5.155313e-01	-3.455959e-01	-1.655431e-01	-1.156545e-02	7.902453e-02	-2.262620e-03	-1.370840e-02	-2.377547e-02	9.188060e-03	6.112052e-02	1.002670e-01	1.440177e-01	1.650584e-01	1.775523e-01	1.779584e-01	1.704649e-01	1.585274e-01	1.511152e-01	1.540070e-01	1.829215e-01	2.357002e-01	3.162342e-01	4.070205e-01	4.946342e-01	5.684338e-01	6.163822e-01	6.355658e-01	6.148949e-01	5.626306e-01	4.726279e-01	3.699352e-01	2.743645e-01	2.198408e-01	2.134586e-01	2.595228e-01	3.263701e-01	4.002728e-01	4.730616e-01	5.490869e-01	5.429035e-01	
SCALARS Mach float 1
LOOKUP_TABLE default
4.859636e-01	5.299830e-01	5.595777e-01	5.878230e-01	6.087754e-01	6.198082e-01	6.149446e-01	5.905922e-01	5.554854e-01	5.130200e-01	4.796871e-01	4.575952e-01	4.539169e-01	4.702116e-01	5.022815e-01	5.554178e-01	6.159152e-01	6.898267e-01	7.719824e-01	8.753296e-01	9.604387e-01	1.024192e+00	1.029797e+00	1.009218e+00	9.764565e-01	9.374772e-01	9.088381e-01	8.823385e-01	8.636268e-01	8.458066e-01	8.343657e-01	8.244602e-01	8.189835e-01	8.111773e-01	8.105309e-01	8.053520e-01	8.084960e-01	8.012344e-01	8.112041e-01	8.116501e-01	8.406263e-01	8.773854e-01	9.153653e-01	9.712183e-01	9.944583e-01	1.030580e+00	1.036993e+00	1.045601e+00	1.041418e+00	1.038587e+00	1.032634e+00	1.028702e+00	1.023681e+00	1.019310e+00	1.014953e+00	1.013085e+00	1.011762e+00	1.014651e+00	1.016813e+00	1.025750e+00	1.034486e+00	1.052200e+00	1.064609e+00	1.084171e+00	1.099626e+00	1.119928e+00	1.134427e+00	1.148938e+00	1.161279e+00	1.168341e+00	1.173035e+00	1.169121e+00	1.168370e+00	1.163055e+00	1.158643e+00	1.145051e+00	1.129406e+00	1.110255e+00	1.096990e+00	1.078480e+00	1.058407e+00	1.029396e+00	1.003635e+00	9.713432e-01	9.430355e-01	9.031301e-01	8.669043e-01	8.182695e-01	7.779468e-01	7.180106e-01	6.707896e-01	5.961822e-01	5.341505e-01	4.373257e-01	3.702669e-01	2.792530e-01	1.883640e-01	1.213494e-01	1.524581e-01	2.139321e-01	3.057744e-01	4.534639e-01	6.095167e-01	7.494755e-01	8.648837e-01	9.427990e-01	9.988018e-01	1.043976e+00	1.065788e+00	1.085141e+00	1.091903e+00	1.094513e+00	1.090763e+00	1.088804e+00	1.088045e+00	1.088980e+00	1.086975e+00	1.084086e+00	1.084191e+00	1.086445e+00	1.089926e+00	1.094317e+00	1.100134e+00	1.107598e+00	1.117611e+00	1.128008e+00	1.135872e+00	1.142789e+00	1.147136e+00	1.151652e+00	1.158223e+00	1.165770e+00	1.171906e+00	1.177703e+00	1.178122e+00	1.178980e+00	1.175492e+00	1.174020e+00	1.167996e+00	1.164630e+00	1.155297e+00	1.141778e+00	1.124665e+00	1.101777e+00	1.086362e+00	1.066258e+00	1.057944e+00	1.043545e+00	1.039460e+00	1.029437e+00	1.029705e+00	1.027439e+00	1.033117e+00	1.037847e+00	1.047608e+00	1.055544e+00	1.067424e+00	1.071174e+00	1.073370e+00	1.046306e+00	1.022027e+00	9.362540e-01	8.739477e-01	8.042482e-01	7.686291e-01	7.904433e-01	7.806982e-01	7.870073e-01	7.677036e-01	7.484111e-01	7.314939e-01	7.138382e-01	7.046534e-01	6.984596e-01	6.973218e-01	7.001527e-01	7.040569e-01	7.065919e-01	7.029532e-01	6.867052e-01	6.602810e-01	6.191184e-01	5.769859e-01	5.308171e-01	4.988212e-01	4.758692e-01	4.705263e-01	4.844597e-01	5.124319e-01	5.579736e-01	6.041284e-01	6.453864e-01	6.641101e-01	6.597862e-01	6.353696e-01	5.970670e-01	5.607623e-01	5.221378e-01	4.804008e-01	4.445341e-01	