# vtk DataFile Version 3.0
vtk output
ASCII
DATASET UNSTRUCTURED_GRID
POINTS 5233 float
9.997500e-01	-3.632564e-05	0.0	9.990000e-01	-1.450444e-04	0.0	9.977600e-01	-3.228299e-04	0.0	9.960200e-01	-5.648157e-04	0.0	9.937800e-01	-8.571635e-04	0.0	9.910500e-01	-1.176751e-03	0.0	9.878400e-01	-1.498049e-03	0.0	9.841300e-01	-1.807682e-03	0.0	9.799500e-01	-2.113889e-03	0.0	9.752800e-01	-2.468791e-03	0.0	9.701500e-01	-2.960773e-03	0.0	9.645400e-01	-3.704672e-03	0.0	9.584700e-01	-4.799807e-03	0.0	9.519400e-01	-6.300119e-03	0.0	9.449600e-01	-8.186763e-03	0.0	9.375400e-01	-1.036897e-02	0.0	9.296900e-01	-1.270568e-02	0.0	9.214000e-01	-1.504414e-02	0.0	9.127000e-01	-1.723437e-02	0.0	9.035800e-01	-1.917386e-02	0.0	8.940600e-01	-2.079921e-02	0.0	8.841500e-01	-2.209510e-02	0.0	8.738500e-01	-2.308382e-02	0.0	8.631800e-01	-2.381058e-02	0.0	8.521600e-01	-2.433531e-02	0.0	8.407700e-01	-2.472353e-02	0.0	8.290500e-01	-2.503557e-02	0.0	8.170100e-01	-2.532607e-02	0.0	8.046400e-01	-2.564091e-02	0.0	7.919700e-01	-2.601546e-02	0.0	7.790100e-01	-2.647640e-02	0.0	7.657800e-01	-2.704188e-02	0.0	7.522800e-01	-2.772390e-02	0.0	7.385200e-01	-2.852838e-02	0.0	7.245300e-01	-2.945507e-02	0.0	7.103200e-01	-3.050076e-02	0.0	6.958900e-01	-3.166000e-02	0.0	6.812700e-01	-3.292237e-02	0.0	6.664700e-01	-3.427697e-02	0.0	6.515000e-01	-3.571149e-02	0.0	6.363800e-01	-3.721157e-02	0.0	6.211300e-01	-3.876214e-02	0.0	6.057600e-01	-4.034875e-02	0.0	5.902800e-01	-4.195691e-02	0.0	5.747100e-01	-4.357116e-02	0.0	5.590600e-01	-4.517738e-02	0.0	5.433600e-01	-4.675973e-02	0.0	5.276100e-01	-4.830592e-02	0.0	5.118400e-01	-4.980117e-02	0.0	4.960500e-01	-5.123416e-02	0.0	4.802700e-01	-5.259134e-02	0.0	4.645100e-01	-5.386168e-02	0.0	4.487800e-01	-5.503467e-02	0.0	4.331100e-01	-5.609905e-02	0.0	4.175000e-01	-5.704649e-02	0.0	4.019700e-01	-5.786801e-02	0.0	3.865400e-01	-5.855566e-02	0.0	3.712300e-01	-5.910262e-02	0.0	3.560400e-01	-5.950369e-02	0.0	3.409900e-01	-5.975395e-02	0.0	3.261100e-01	-5.984978e-02	0.0	3.114000e-01	-5.978907e-02	0.0	2.968700e-01	-5.957053e-02	0.0	2.825500e-01	-5.919448e-02	0.0	2.684500e-01	-5.866230e-02	0.0	2.545700e-01	-5.797585e-02	0.0	2.409400e-01	-5.713954e-02	0.0	2.275700e-01	-5.615811e-02	0.0	2.144700e-01	-5.503723e-02	0.0	2.016600e-01	-5.378452e-02	0.0	1.891400e-01	-5.240659e-02	0.0	1.769300e-01	-5.091291e-02	0.0	1.650400e-01	-4.931273e-02	0.0	1.534900e-01	-4.761746e-02	0.0	1.422900e-01	-4.583790e-02	0.0	1.314400e-01	-4.398351e-02	0.0	1.209500e-01	-4.206552e-02	0.0	1.108500e-01	-4.009941e-02	0.0	1.011300e-01	-3.809323e-02	0.0	9.181000e-02	-3.606083e-02	0.0	8.290000e-02	-3.401404e-02	0.0	7.440000e-02	-3.196196e-02	0.0	6.633000e-02	-2.991801e-02	0.0	5.869000e-02	-2.789011e-02	0.0	5.149000e-02	-2.588786e-02	0.0	4.474000e-02	-2.392002e-02	0.0	3.844000e-02	-2.199125e-02	0.0	3.260000e-02	-2.010777e-02	0.0	2.723000e-02	-1.827446e-02	0.0	2.232000e-02	-1.648732e-02	0.0	1.790000e-02	-1.475479e-02	0.0	1.395000e-02	-1.306390e-02	0.0	1.049000e-02	-1.141456e-02	0.0	7.520000e-03	-9.795069e-03	0.0	5.040000e-03	-8.188255e-03	0.0	3.050000e-03	-6.568636e-03	0.0	1.560000e-03	-4.909399e-03	0.0	5.600000e-04	-3.139684e-03	0.0	6.000000e-05	-1.148420e-03	0.0	0.000000e+00	0.000000e+00	0.0	6.000000e-05	1.132449e-03	0.0	5.600000e-04	3.185021e-03	0.0	1.560000e-03	5.138514e-03	0.0	3.050000e-03	7.069040e-03	0.0	5.040000e-03	9.014243e-03	0.0	7.520000e-03	1.096606e-02	0.0	1.049000e-02	1.292003e-02	0.0	1.395000e-02	1.486683e-02	0.0	1.790000e-02	1.679540e-02	0.0	2.232000e-02	1.868646e-02	0.0	2.723000e-02	2.053934e-02	0.0	3.260000e-02	2.233486e-02	0.0	3.844000e-02	2.407085e-02	0.0	4.474000e-02	2.573986e-02	0.0	5.149000e-02	2.733689e-02	0.0	5.869000e-02	2.886107e-02	0.0	6.633000e-02	3.031080e-02	0.0	7.440000e-02	3.168622e-02	0.0	8.290000e-02	3.299034e-02	0.0	9.181000e-02	3.422411e-02	0.0	1.011300e-01	3.539232e-02	0.0	1.108500e-01	3.649885e-02	0.0	1.209500e-01	3.754701e-02	0.0	1.314400e-01	3.854340e-02	0.0	1.422900e-01	3.949063e-02	0.0	1.534900e-01	4.039327e-02	0.0	1.650400e-01	4.125629e-02	0.0	1.769300e-01	4.208331e-02	0.0	1.891400e-01	4.287687e-02	0.0	2.016600e-01	4.363968e-02	0.0	2.144700e-01	4.437327e-02	0.0	2.275700e-01	4.507967e-02	0.0	2.409400e-01	4.575916e-02	0.0	2.545700e-01	4.641189e-02	0.0	2.684500e-01	4.703730e-02	0.0	2.825500e-01	4.763332e-02	0.0	2.968700e-01	4.819854e-02	0.0	3.114000e-01	4.873035e-02	0.0	3.261100e-01	4.922476e-02	0.0	3.409900e-01	4.967786e-02	0.0	3.560400e-01	5.008529e-02	0.0	3.712300e-01	5.044116e-02	0.0	3.865400e-01	5.073937e-02	0.0	4.019700e-01	5.097365e-02	0.0	4.175000e-01	5.113684e-02	0.0	4.331100e-01	5.122156e-02	0.0	4.487800e-01	5.122041e-02	0.0	4.645100e-01	5.112598e-02	0.0	4.802700e-01	5.093125e-02	0.0	4.960500e-01	5.062970e-02	0.0	5.118400e-01	5.021550e-02	0.0	5.276100e-01	4.968453e-02	0.0	5.433600e-01	4.903314e-02	0.0	5.590600e-01	4.826038e-02	0.0	5.747100e-01	4.736574e-02	0.0	5.902800e-01	4.635219e-02	0.0	6.057600e-01	4.522354e-02	0.0	6.211300e-01	4.398612e-02	0.0	6.363800e-01	4.264714e-02	0.0	6.515000e-01	4.121498e-02	0.0	6.664700e-01	3.969985e-02	0.0	6.812700e-01	3.811248e-02	0.0	6.958900e-01	3.646227e-02	0.0	7.103200e-01	3.475766e-02	0.0	7.245300e-01	3.300797e-02	0.0	7.385200e-01	3.121693e-02	0.0	7.522800e-01	2.938712e-02	0.0	7.657800e-01	2.752168e-02	0.0	7.790100e-01	2.561965e-02	0.0	7.919700e-01	2.367810e-02	0.0	8.046400e-01	2.169820e-02	0.0	8.170100e-01	1.968300e-02	0.0	8.290500e-01	1.764434e-02	0.0	8.407700e-01	1.559445e-02	0.0	8.521600e-01	1.355647e-02	0.0	8.631800e-01	1.156592e-02	0.0	8.738500e-01	9.651887e-03	0.0	8.841500e-01	7.851269e-03	0.0	8.940600e-01	6.197473e-03	0.0	9.035800e-01	4.714346e-03	0.0	9.127000e-01	3.421290e-03	0.0	9.214000e-01	2.335058e-03	0.0	9.296900e-01	1.468351e-03	0.0	9.375400e-01	8.390759e-04	0.0	9.449600e-01	4.577313e-04	0.0	9.519400e-01	3.230694e-04	0.0	9.584700e-01	4.071630e-04	0.0	9.645400e-01	6.484852e-04	0.0	9.701500e-01	9.585223e-04	0.0	9.752800e-01	1.239902e-03	0.0	9.799500e-01	1.415219e-03	0.0	9.841300e-01	1.443127e-03	0.0	9.878400e-01	1.327277e-03	0.0	9.910500e-01	1.106479e-03	0.0	9.937800e-01	8.329946e-04	0.0	9.960200e-01	5.583665e-04	0.0	9.977600e-01	3.216648e-04	0.0	9.990000e-01	1.449398e-04	0.0	9.997500e-01	3.632399e-05	0.0	1.000000e+00	0.000000e+00	0.0	1.984229e+01	2.506660e+00	0.0	1.937166e+01	4.973800e+00	0.0	1.859553e+01	7.362490e+00	0.0	1.752613e+01	9.635070e+00	0.0	1.618034e+01	1.175571e+01	0.0	1.457937e+01	1.369094e+01	0.0	1.274848e+01	1.541027e+01	0.0	1.071654e+01	1.688656e+01	0.0	8.515590e+00	1.809654e+01	0.0	6.180340e+00	1.902113e+01	0.0	3.747630e+00	1.964575e+01	0.0	1.255810e+00	1.996053e+01	0.0	-1.255810e+00	1.996053e+01	0.0	-3.747630e+00	1.964574e+01	0.0	-6.180340e+00	1.902113e+01	0.0	-8.515590e+00	1.809654e+01	0.0	-1.071654e+01	1.688656e+01	0.0	-1.274848e+01	1.541026e+01	0.0	-1.457937e+01	1.369094e+01	0.0	-1.618034e+01	1.175570e+01	0.0	-1.752613e+01	9.635070e+00	0.0	-1.859553e+01	7.362490e+00	0.0	-1.937166e+01	4.973800e+00	0.0	-1.984229e+01	2.506660e+00	0.0	-2.000000e+01	0.000000e+00	0.0	-1.984229e+01	-2.506670e+00	0.0	-1.937166e+01	-4.973800e+00	0.0	-1.859553e+01	-7.362490e+00	0.0	-1.752613e+01	-9.635080e+00	0.0	-1.618034e+01	-1.175571e+01	0.0	-1.457937e+01	-1.369094e+01	0.0	-1.274848e+01	-1.541027e+01	0.0	-1.071653e+01	-1.688656e+01	0.0	-8.515580e+00	-1.809654e+01	0.0	-6.180340e+00	-1.902113e+01	0.0	-3.747620e+00	-1.964575e+01	0.0	-1.255810e+00	-1.996053e+01	0.0	1.255810e+00	-1.996053e+01	0.0	3.747630e+00	-1.964574e+01	0.0	6.180340e+00	-1.902113e+01	0.0	8.515590e+00	-1.809654e+01	0.0	1.071654e+01	-1.688656e+01	0.0	1.274848e+01	-1.541026e+01	0.0	1.457937e+01	-1.369094e+01	0.0	1.618034e+01	-1.175570e+01	0.0	1.752614e+01	-9.635070e+00	0.0	1.859553e+01	-7.362490e+00	0.0	1.937166e+01	-4.973790e+00	0.0	1.984229e+01	-2.506660e+00	0.0	2.000000e+01	0.000000e+00	0.0	6.095015e-02	-3.600753e-02	0.0	6.601527e-01	-4.901173e-02	0.0	4.255286e-01	6.535054e-02	0.0	6.899704e-01	5.045840e-02	0.0	3.792476e-01	-7.261490e-02	0.0	9.994661e-01	-6.997266e-04	0.0	9.985585e-01	-1.282385e-03	0.0	7.733885e-01	-3.922598e-02	0.0	6.897011e-01	-4.605389e-02	0.0	-8.622215e-04	5.067188e-03	0.0	7.464134e-01	-4.113320e-02	0.0	5.834590e-01	6.083768e-02	0.0	9.927839e-01	-3.456860e-03	0.0	9.898686e-01	-4.239534e-03	0.0	5.990512e-01	5.968688e-02	0.0	7.184904e-01	-4.340704e-02	0.0	-1.224429e-03	6.287015e-04	0.0	9.864579e-01	-5.045043e-03	0.0	9.825646e-01	-5.868343e-03	0.0	-8.216993e-04	-4.859403e-03	0.0	6.451294e-01	-5.058160e-02	0.0	8.240907e-01	-3.619545e-02	0.0	7.993068e-01	-3.764125e-02	0.0	3.484300e-01	6.367354e-02	0.0	8.476026e-01	-3.464146e-02	0.0	2.473127e-01	5.868893e-02	0.0	8.697668e-01	-3.261119e-02	0.0	1.047489e-02	1.707049e-02	0.0	8.904451e-01	-2.973521e-02	0.0	7.711075e-02	-4.082083e-02	0.0	9.095153e-01	-2.581608e-02	0.0	-1.430317e-03	-2.454110e-03	0.0	9.423840e-01	-1.613802e-02	0.0	9.268542e-01	-2.105552e-02	0.0	1.850481e-02	-1.986781e-02	0.0	4.259559e-01	-7.068308e-02	0.0	8.588637e-01	-3.370854e-02	0.0	9.561132e-01	-1.192105e-02	0.0	9.781889e-01	-6.753235e-03	0.0	9.680566e-01	-8.860897e-03	0.0	1.580067e-01	-5.885588e-02	0.0	9.001915e-01	-2.790525e-02	0.0	7.600286e-01	-4.013487e-02	0.0	9.971382e-01	-2.001840e-03	0.0	5.992285e-01	-5.549392e-02	0.0	4.416816e-01	-6.976236e-02	0.0	5.366068e-01	-6.197644e-02	0.0	4.732890e-01	-6.755753e-02	0.0	5.049691e-01	-6.493371e-02	0.0	4.891195e-01	-6.629270e-02	0.0	1.247849e-01	-5.251169e-02	0.0	2.832835e-02	-2.432414e-02	0.0	3.947266e-01	-7.211760e-02	0.0	4.654657e-02	-3.125377e-02	0.0	4.102974e-01	-7.147203e-02	0.0	3.186834e-01	-7.301490e-02	0.0	3.486622e-01	-7.314561e-02	0.0	3.394330e-02	-2.658843e-02	0.0	2.893982e-01	-7.221494e-02	0.0	9.348470e-01	-1.855891e-02	0.0	1.465723e-01	-5.682023e-02	0.0	1.943603e-01	-6.432450e-02	0.0	8.582739e-02	-4.322030e-02	0.0	1.045118e-01	-4.795648e-02	0.0	5.680716e-01	-5.879857e-02	0.0	1.697923e-01	-6.079493e-02	0.0	6.146598e-01	-5.383350e-02	0.0	8.803033e-01	-3.129924e-02	0.0	2.319259e-02	-2.208213e-02	0.0	9.952125e-01	-2.718411e-03	0.0	7.333389e-03	-1.345434e-02	0.0	1.842847e-02	2.176980e-02	0.0	9.184061e-01	-2.350830e-02	0.0	9.49475
[...]
POINT_DATA 5233

SCALARS Conservative_1 float 1
LOOKUP_TABLE default
1.166137e+00	1.144570e+00	1.127566e+00	1.113274e+00	1.101750e+00	1.094898e+00	1.094463e+00	1.100977e+00	1.112574e+00	1.125623e+00	1.135654e+00	1.139131e+00	1.133879e+00	1.118923e+00	1.094089e+00	1.060136e+00	1.019219e+00	9.735712e-01	9.222919e-01	8.735855e-01	8.456943e-01	8.436654e-01	8.599394e-01	8.848492e-01	9.116203e-01	9.361029e-01	9.568115e-01	9.736316e-01	9.868777e-01	9.969716e-01	1.004304e+00	1.009263e+00	1.012224e+00	1.013407e+00	1.013129e+00	1.011515e+00	1.008791e+00	1.005079e+00	1.000533e+00	9.952887e-01	9.894482e-01	9.831271e-01	9.765378e-01	9.701336e-01	9.638518e-01	9.567115e-01	9.500237e-01	9.514985e-01	9.622727e-01	9.505126e-01	8.481178e-01	7.195000e-01	6.795477e-01	6.908542e-01	7.020039e-01	7.082842e-01	7.133731e-01	7.199218e-01	7.277952e-01	7.364285e-01	7.456798e-01	7.555606e-01	7.660315e-01	7.770535e-01	7.885355e-01	8.004538e-01	8.128112e-01	8.255802e-01	8.386610e-01	8.519709e-01	8.654186e-01	8.789787e-01	8.926452e-01	9.064529e-01	9.203776e-01	9.343246e-01	9.482265e-01	9.620663e-01	9.758358e-01	9.894681e-01	1.002983e+00	1.016346e+00	1.029556e+00	1.042608e+00	1.055523e+00	1.068340e+00	1.081104e+00	1.093915e+00	1.106947e+00	1.120361e+00	1.134517e+00	1.150011e+00	1.167564e+00	1.188742e+00	1.215886e+00	1.251431e+00	1.294070e+00	1.342632e+00	1.350041e+00	1.332130e+00	1.314163e+00	1.258771e+00	1.164333e+00	1.096698e+00	1.042667e+00	9.977088e-01	9.595992e-01	9.266590e-01	8.974246e-01	8.713589e-01	8.481071e-01	8.273184e-01	8.089695e-01	7.927849e-01	7.787059e-01	7.668267e-01	7.569622e-01	7.487835e-01	7.420064e-01	7.363657e-01	7.318276e-01	7.286047e-01	7.268245e-01	7.261932e-01	7.262484e-01	7.267198e-01	7.276527e-01	7.290054e-01	7.306351e-01	7.325169e-01	7.347960e-01	7.375769e-01	7.407775e-01	7.441713e-01	7.475265e-01	7.506651e-01	7.534852e-01	7.558172e-01	7.574565e-01	7.583102e-01	7.584579e-01	7.582136e-01	7.579759e-01	7.579610e-01	7.582708e-01	7.589052e-01	7.597515e-01	7.608708e-01	7.618582e-01	7.616904e-01	7.589654e-01	7.548721e-01	7.571835e-01	7.821905e-01	8.326425e-01	8.767052e-01	8.919915e-01	8.915165e-01	8.917571e-01	8.985563e-01	9.093332e-01	9.200782e-01	9.295845e-01	9.385394e-01	9.473680e-01	9.560395e-01	9.645087e-01	9.729909e-01	9.817453e-01	9.911616e-01	1.001495e+00	1.012899e+00	1.025444e+00	1.038946e+00	1.053069e+00	1.067299e+00	1.081098e+00	1.094035e+00	1.105755e+00	1.116143e+00	1.125180e+00	1.132913e+00	1.139128e+00	1.143309e+00	1.144401e+00	1.141082e+00	1.131986e+00	1.116277e+00	1.094453e+00	1.069552e+00	1.047014e+00	1.032877e+00	1.032024e+00	1.044865e+00	1.066612e+00	1.091455e+00	1.116224e+00	1.140898e+00	1.170231e+00	1.153280e+00	9.998592e-01	9.999010e-01	9.998626e-01	9.998013e-01	9.997404e-01	9.996684e-01	9.995799e-01	9.994669e-01	9.993432e-01	9.992487e-01	9.991881e-01	9.992143e-01	9.993128e-01	9.995187e-01	9.996972e-01	9.998478e-01	9.999361e-01	9.999944e-01	1.000035e+00	1.000055e+00	1.000068e+00	1.000075e+00	1.000082e+00	1.000088e+00	1.000092e+00	1.000099e+00	1.000109e+00	1.000121e+00	1.000139e+00	1.000165e+00	1.000194e+00	1.000242e+00	1.000289e+00	1.000368e+00	1.000440e+00	1.000528e+00	1.000619e+00	1.000656e+00	1.000671e+00	1.000628e+00	1.000581e+00	1.000504e+00	1.000431e+00	1.000357e+00	1.000285e+00	1.000206e+00	1.000150e+00	1.000116e+00	9.999753e-01	9.998188e-01	1.041948e+00	9.968835e-01	7.630736e-01	9.285590e-01	7.242828e-01	1.149716e+00	1.136099e+00	1.004219e+00	1.005165e+00	1.245563e+00	1.010124e+00	8.643752e-01	1.102908e+00	1.099237e+00	8.965166e-01	1.009960e+00	1.325678e+00	1.100475e+00	1.106022e+00	1.322344e+00	9.917617e-01	9.663871e-01	9.903921e-01	7.615738e-01	9.304699e-01	7.448103e-01	8.863954e-01	9.818778e-01	8.640202e-01	1.015639e+00	9.176909e-01	1.342200e+00	1.072959e+00	1.005844e+00	1.138116e+00	7.039148e-01	9.085433e-01	1.113886e+00	1.113846e+00	1.124750e+00	9.075645e-01	8.798448e-01	1.008009e+00	1.121983e+00	9.738827e-01	6.904308e-01	9.507877e-01	7.664668e-01	9.736000e-01	9.289411e-01	9.484342e-01	1.108333e+00	7.179841e-01	1.068059e+00	7.129683e-01	7.596331e-01	7.406733e-01	1.094590e+00	7.808445e-01	1.041859e+00	9.211324e-01	8.675066e-01	1.002369e+00	9.755273e-01	9.618366e-01	8.941143e-01	9.800079e-01	8.689450e-01	1.122729e+00	1.110907e+00	1.196986e+00	9.163434e-01	9.642922e-01	1.097289e+00	1.121036e+00	1.180845e+00	9.499279e-01	8.159784e-01	9.545302e-01	1.010681e+00	9.984328e-01	9.620240e-01	8.412734e-01	9.680897e-01	1.001407e+00	1.055004e+00	1.224122e+00	1.155049e+00	7.320701e-01	8.807749e-01	1.179818e+00	8.284629e-01	9.889968e-01	7.699833e-01	8.038686e-01	6.865988e-01	1.008059e+00	1.301193e+00	1.291638e+00	7.606235e-01	1.335912e+00	8.644494e-01	7.911119e-01	8.231764e-01	7.355288e-01	7.622528e-01	1.107592e+00	7.638399e-01	7.669192e-01	1.082544e+00	1.115564e+00	1.095595e+00	7.679970e-01	7.641487e-01	7.616825e-01	1.127901e+00	1.114413e+00	7.586060e-01	1.064738e+00	1.126132e+00	1.133711e+00	7.444246e-01	7.783945e-01	7.545337e-01	7.481700e-01	7.323406e-01	7.594213e-01	7.654603e-01	7.618098e-01	7.316694e-01	7.332989e-01	8.962729e-01	7.347371e-01	7.387872e-01	9.075498e-01	8.076516e-01	9.632209e-01	9.460399e-01	9.992164e-01	9.803389e-01	1.046492e+00	1.021371e+00	1.105633e+00	1.072291e+00	1.132011e+00	1.121898e+00	1.100542e+00	1.059513e+00	1.084422e+00	1.009840e+00	1.033657e+00	9.717035e-01	9.894441e-01	9.373989e-01	9.546834e-01	8.985508e-01	9.185973e-01	7.693529e-01	9.000240e-01	7.365051e-01	7.416041e-01	7.317434e-01	7.333715e-01	8.060061e-01	7.321707e-01	9.471037e-01	8.426352e-01	8.543174e-01	1.067777e+00	1.122819e+00	9.798174e-01	7.498771e-01	9.603092e-01	1.121362e+00	8.888951e-01	1.021570e+00	7.509240e-01	7.676543e-01	7.514630e-01	7.392304e-01	1.051467e+00	1.046752e+00	7.572532e-01	1.052639e+00	1.067174e+00	7.608732e-01	7.617084e-01	1.132057e+00	1.186314e+00	1.129528e+00	1.148788e+00	9.860726e-01	1.081228e+00	1.086618e+00	7.673975e-01	1.256567e+00	1.174363e+00	1.028831e+00	9.347968e-01	7.921630e-01	7.801777e-01	1.223684e+00	1.274648e+00	7.968643e-01	1.004508e+00	9.588406e-01	1.194204e+00	8.456998e-01	1.001508e+00	9.988245e-01	1.102166e+00	7.649933e-01	9.271330e-01	9.600342e-01	1.001784e+00	1.298769e+00	8.574664e-01	1.154505e+00	1.106153e+00	9.224569e-01	1.006612e+00	9.933435e-01	6.917085e-01	1.014876e+00	7.303748e-01	8.960266e-01	9.924691e-01	1.033366e+00	9.319131e-01	9.177377e-01	1.040676e+00	7.484129e-01	9.275374e-01	7.375691e-01	1.075368e+00	1.062088e+00	7.642381e-01	7.727397e-01	1.119240e+00	1.085828e+00	1.070085e+00	1.112551e+00	1.066573e+00	7.462183e-01	7.629667e-01	7.434819e-01	7.541408e-01	9.977846e-01	8.703380e-01	9.958176e-01	7.391415e-01	8.206119e-01	1.090308e+00	1.083526e+00	1.095326e+00	9.093186e-01	1.193955e+00	1.117171e+00	1.099619e+00	1.075429e+00	1.171964e+00	1.217967e+00	1.331147e+00	1.324583e+00	1.137647e+00	1.191056e+00	1.040896e+00	1.126394e+00	1.108561e+00	7.677882e-01	9.543231e-01	1.103663e+00	8.942301e-01	8.884143e-01	1.103637e+00	1.321912e+00	7.034407e-01	7.667325e-01	9.445373e-01	7.555273e-01	9.092961e-01	8.875682e-01	1.027902e+00	9.222969e-01	9.945249e-01	1.077042e+00	1.107615e+00	1.094535e+00	1.112217e+00	1.107289e+00	9.490236e-01	1.006160e+00	1.003359e+00	1.116326e+00	7.266841e-01	8.666812e-01	9.634111e-01	1.122219e+00	7.240294e-01	7.175587e-01	7.553676e-01	1.080235e+00	1.026027e+00	1.053883e+00	9.356995e-01	9.886600e-01	9.603613e-01	9.771993e-01	1.113464e+00	1.111227e+00	1.007655e+00	1.007612e+00	9.755277e-01	9.622801e-01	9.662347e-01	9.715175e-01	1.067010e+00	1.053947e+00	1.173083e+00	7.462995e-01	7.377820e-01	8.962970e-01	8.833011e-01	8.447601e-01	8.323122e-01	7.857832e-01	7.751188e-01	8.201543e-01	1.310901e+00	1.244964e+00	8.381633e-01	1.060702e+00	7.693686e-01	7.742853e-01	7.738032e-01	7.722504e-01	1.077385e+00	1.102624e+00	1.116684e+00	7.706190e-01	7.690843e-01	7.659947e-01	1.110901e+00	1.122614e+00	7.917396e-01	8.051576e-01	7.492426e-01	7.524012e-01	7.379458e-01	7.413377e-01	7.442949e-01	9.972610e-01	9.620956e-01	9.535612e-01	9.879713e-01	1.029047e+00	1.103708e+00	1.064150e+00	1.052458e+00	1.017914e+00	1.007270e+00	9.791062e-01	9.705542e-01	9.449990e-01	9.364213e-01	9.080958e-01	9.017874e-01	7.959095e-01	7.720744e-01	9.014018e-01	9.022881e-01	7.411956e-01	7.394830e-01	7.383528e-01	7.377559e-01	9.622683e-01	8.580178e-01	8.802539e-01	9.840119e-01	9.732065e-01	9.658566e-01	9.539712e-01	1.122447e+00	9.047781e-01	7.614484e-01	7.701406e-01	7.610114e-01	7.584675e-01	7.654671e-01	7.649806e-01	1.122987e+00	1.120846e+00	9.829313e-01	9.884057e-01	1.093713e+00	1.273485e+00	8.083448e-01	1.297404e+00	7.370834e-01	8.023247e-01	9.934993e-01	9.546451e-01	9.884260e-01	1.074880e+00	1.070202e+00	1.101335e+00	1.122111e+00	1.084319e+00	1.134450e+00	1.158811e+00	1.119074e+00	1.176446e+00	1.136066e+00	1.288694e+00	1.001928e+00	1.015833e+00	1.103237e+00	8.302678e-01	1.138139e+00	1.210543e+00	1.003216e+00	1.256997e+00	1.004594e+00	1.152196e+00	9.158056e-01	1.189330e+00	7.710802e-01	9.281346e-01	1.001139e+00	1.106891e+00	1.170012e+00	1.075775e+00	7.797668e-01	1.111978e+00	9.180257e-01	1.096580e+00	7.812693e-01	7.567492e-01	7.668299e-01	7.447037e-01	8.056414e-01	1.146972e+00	1.275950e+00	1.204650e+00	9.757874e-01	1.251098e+00	1.099676e+00	1.014696e+00	1.315748e+00	9.246227e-01	7.078743e-01	1.120839e+00	1.042543e+00	1.035952e+00	9.958445e-01	9.273454e-01	1.070597e+00	1.107837e+00	1.085963e+00	1.077035e+00	7.650208e-01	7.597793e-01	7.484194e-01	7.647119e-01	9.944878e-01	9.980299e-01	8.739272e-01	1.007830e+00	7.462987e-01	1.083873e+00	1.108449e+00	1.080771e+00	1.164344e+00	1.233292e+00	1.308136e+00	1.106338e+00	1.155213e+00	1.146774e+00	1.103875e+00	1.102098e+00	8.764514e-01	7.047326e-01	7.728790e-01	9.558534e-01	9.421739e-01	9.091178e-01	9.128351e-01	1.040298e+00	1.027533e+00	9.303058e-01	9.582722e-01	1.078897e+00	1.091511e+00	1.102689e+00	1.002078e+00	9.983904e-01	1.112337e+00	7.959756e-01	9.323525e-01	7.299182e-01	7.200529e-01	1.092632e+00	1.040478e+00	1.061741e+00	9.503493e-01	9.374266e-01	9.589966e-01	9.649208e-01	1.104969e+00	1.104085e+00	1.004889e+00	1.003970e+00	9.890943e-01	9.761554e-01	9.633148e-01	9.697603e-01	9.749369e-01	1.079346e+00	1.066168e+00	1.053088e+00	7.616409e-01	7.526125e-01	7.442265e-01	9.119768e-01	8.992779e-01	8.865806e-01	8.614078e-01	8.490679e-01	7.914426e-01	7.810384e-01	8.369460e-01	8.536525e-01	7.811293e-01	7.797330e-01	1.092969e+00	7.779963e-01	7.761838e-01	7.744264e-01	7.715094e-01	1.106362e+00	8.198374e-01	8.358574e-01	7.537550e-01	7.509489e-01	7.491252e-01	7.535222e-01	7.586794e-01	9.615410e-01	1.100816e+00	1.093875e+00	1.067335e+00	1.057127e+00	1.046697e+00	1.025297e+00	1.015108e+00	1.005241e+00	9.869930e-01	9.783836e-01	9.699579e-01	9.531307e-01	9.446750e-01	9.361980e-01	9.101601e-01	7.925282e-01	7.801744e-01	9.061686e-01	9.057763e-01	9.009479e-01	7.462657e-01	7.445736e-01	7.435650e-01	7.432630e-01	7.437283e-01	8.734914e-01	8.957396e-01	9.868214e-01	9.782652e-01	9.679938e-01	9.683300e-01	9.588898e-01	9.202522e-01	9.466718e-01	7.725296e-01	7.821755e-01	7.931877e-01	7.626248e-01	7.703792e-01	7.692823e-01	7.681528e-01	1.113658e+00	1.113093e+00	1.110610e+00	9.802023e-01	9.854658e-01	9.901236e-01	8.251038e-01	8.135424e-01	1.275067e+00	1.002299e+00	1.103227e+00	1.077383e+00	9.573140e-01	1.263516e+00	1.126540e+00	1.010057e+00	1.031408e+00	1.104269e+00	1.085321e+00	7.895440e-01	1.255668e+00	1.017691e+00	1.200694e+00	1.098259e+00	1.093770e+00	1.188244e+00	9.188027e-01	1.154596e+00	1.163322e+00	1.157899e+00	9.889028e-01	9.278266e-01	1.133293e+00	7.448877e-01	1.014870e+00	7.188564e-01	8.092595e-01	1.076471e+00	8.208065e-01	1.102263e+00	1.104587e+00	9.950176e-01	7.549991e-01	7.587137e-01	1.101582e+00	8.346385e-01	9.343744e-01	1.120611e+00	1.079117e+00	1.113715e+00	1.097344e+00	1.148400e+00	1.000267e+00	1.220148e+00	1.001224e+00	1.002510e+00	1.164951e+00	1.104227e+00	1.182454e+00	1.031724e+00	7.884285e-01	7.670203e-01	1.227642e+00	1.049390e+00	9.275837e-01	1.077578e+00	7.692903e-01	7.643729e-01	7.614882e-01	9.950031e-01	9.974701e-01	1.081272e+00	1.082783e+00	1.118674e+00	1.239704e+00	1.285938e+00	1.118396e+00	1.093811e+00	1.100201e+00	8.640746e-01	9.540638e-01	9.434335e-01	9.290384e-01	9.313045e-01	1.039769e+00	1.027306e+00	9.431384e-01	9.633306e-01	9.872073e-01	1.078344e+00	1.087681e+00	9.981379e-01	9.937520e-01	1.108356e+00	7.594392e-01	8.825591e-01	7.353319e-01	7.236618e-01	1.050141e+00	1.065705e+00	9.523198e-01	9.396662e-01	9.622801e-01	1.098937e+00	1.099588e+00	1.001414e+00	1.000261e+00	9.898618e-01	9.774113e-01	9.649151e-01	9.677119e-01	9.726124e-01	1.091280e+00	1.077999e+00	1.064841e+00	1.052168e+00	7.789449e-01	7.695147e-01	7.608846e-01	7.523709e-01	9.155281e-01	9.032369e-01	8.908449e-01	8.786664e-01	8.665764e-01	7.885509e-01	7.987813e-01	8.546711e-01	7.880156e-01	1.086871e+00	1.092900e+00	7.864489e-01	7.844612e-01	7.824562e-01	7.803773e-01	7.784661e-01	8.513955e-01	8.698603e-01	7.561396e-01	7.539819e-01	7.584034e-01	7.632734e-01	7.697516e-01	7.770167e-01	1.096854e+00	1.091370e+00	1.085134e+00	1.069481e+00	1.060673e+00	1.051749e+00	1.041049e+00	1.023083e+00	1.012687e+00	1.003469e+00	9.859991e-01	9.781467e-01	9.693848e-01	9.617027e-01	9.528039e-01	9.449119e-01	9.356999e-01	7.916505e-01	7.954530e-01	9.148025e-01	9.112307e-01	9.080886e-01	8.949165e-01	7.520730e-01	7.506798e-01	7.495908e-01	7.494674e-01	7.500980e-01	7.520162e-01	8.892914e-01	9.107172e-01	9.821051e-01	9.735793e-01	9.643246e-01	9.597793e-01	9.655904e-01	9.581149e-01	9.348615e-01	9.606126e-01	9.877718e-01	7.850903e-01	7.949922e-01	8.070571e-01	8.202062e-01	7.765491e-01	7.748123e-01	7.729761e-01	7.710940e-01	1.100921e+00	1.105036e+00	1.103883e+00	9.779019e-01	9.825521e-01	9.873424e-01	9.910251e-01	8.429310e-01	8.313990e-01	8.202256e-01	1.159139e+00	1.100371e+00	1.089302e+00	1.154214e+00	1.175024e+00	9.993278e-01	1.003297e+00	1.191025e+00	1.081155e+00	1.224080e+00	1.115295e+00	9.327674e-01	7.690763e-01	1.055043e+00	1.146016e+00	1.235687e+00	1.292114e+00	1.293663e+00	1.279777e+00	1.237947e+00	1.110437e+00	7.714308e-01	1.092622e+00	1.101189e+00	1.041616e+00	9.878500e-01	7.511107e-01	1.091933e+00	1.093131e+00	1.097116e+00	8.121978e-01	7.997325e-01	9.258537e-01	9.895193e-01	7.974553e-01	9.600298e-01	7.733128e-01	1.086184e+00	1.015418e+00	1.140976e+00	1.080465e+00	1.287137e+00	1.151215e+00	1.141241e+00	1.025517e+00	1.102379e+00	1.253097e+00	1.026194e+00	1.207562e+00	1.094107e+00	1.174780e+00	1.152127e+00	1.149564e+00	1.144136e+00	8.056378e-01	8.177908e-01	1.082109e+00	8.507491e-01	1.096363e+00	1.098634e+00	9.973875e-01	1.206537e+00	7.684829e-01	7.662088e-01	7.631880e-01	9.927381e-01	1.084446e+00	1.115138e+00	1.262939e+00	1.129966e+00	9.555502e-01	9.481465e-01	9.472212e-01	9.458054e-01	1.027489e+00	1.039611e+00	9.571768e-01	9.694021e-01	9.899280e-01	1.009644e+00	1.077301e+00	1.084359e+00	9.952705e-01	1.104370e+00	7.476647e-01	8.243458e-01	7.399507e-01	7.384200e-01	1.056868e+00	1.067889e+00	9.542577e-01	9.424276e-01	1.094917e+00	1.096703e+00	9.981108e-01	9.908461e-01	9.787432e-01	9.685502e-01	9.663160e-01	1.089601e+00	1.076706e+00	1.063813e+00	1.051660e+00	7.976774e-01	7.863586e-01	7.789949e-01	7.682950e-01	7.615234e-01	9.194123e-01	9.088881e-01	8.951017e-01	8.849701e-01	8.715997e-01	1.083676e+00	1.087202e+00	1.090898e+00	7.947296e-01	7.939894e-01	7.907073e-01	7.893579e-01	7.857676e-01	8.675421e-01	8.862119e-01	7.614640e-01	7.589739e-01	7.723059e-01	7.814340e-01	7.903711e-01	1.087718e+00	1.083694e+00	1.076665e+00	1.070695e+00	1.062385e+00	1.055191e+00	1.045686e+00	1.032576e+00	1.020220e+00	1.005757e+00	9.734606e-01	9.570473e-01	9.398218e-01	9.179997e-01	8.957028e-01	7.582569e-01	7.564146e-01	7.569062e-01	7.558444e-01	7.583185e-01	7.602876e-01	7.640753e-01	9.058637e-01	9.261466e-01	9.785718e-01	9.708056e-01	9.638527e-01	9.312364e-01	9.634574e-01	9.487456e-01	9.738764e-01	9.992182e-01	7.995444e-01	8.098142e-01	8.221788e-01	8.370679e-01	8.519019e-01	7.841486e-01	7.806838e-01	7.790675e-01	7.759889e-01	1.096979e+00	1.094314e+00	9.770232e-01	9.859378e-01	8.617855e-01	8.485604e-01	8.392259e-01	8.265262e-01	1.132783e+00	1.128490e+00	1.181033e+00	1.252620e+00	1.150368e+00	1.089333e+00	1.086571e+00	1.188457e+00	1.087693e+00	1.112750e+00	1.094883e+00	1.243348e+00	1.112036e+00	1.166741e+00	7.765353e-01	1.154630e+00	1.084973e+00	1.162299e+00	1.152581e+00	1.086019e+00	9.606036e-01	1.083641e+00	8.193604e-01	1.049224e+00	1.029787e+00	9.800560e-01	1.003948e+00	9.305580e-01	1.220894e+00	7.566437e-01	1.028291e+00	1.016433e+00	7.888885e-01	1.082508e+00	1.085532e+00	1.213177e+00	1.058982e+00	1.081791e+00	1.147070e+00	1.082303e+00	1.289196e+00	1.233233e+00	1.097592e+00	9.961346e-01	8.087097e-01	8.036450e-01	1.090940e+00	1.146802e+00	1.105324e+00	1.265712e+00	1.145563e+00	1.100152e+00	1.208862e+00	1.195200e+00	8.411703e-01	1.125309e+00	1.089397e+00	1.089580e+00	8.168260e-01	7.714734e-01	7.669466e-01	9.957592e-01	1.111320e+00	1.137463e+00	1.139348e+00	9.598767e-01	9.639026e-01	1.039537e+00	9.839008e-01	1.010131e+00	1.076188e+00	1.100702e+00	7.768321e-01	1.060931e+00	1.068996e+00	9.515476e-01	1.092108e+00	9.943186e-01	9.901867e-01	9.873830e-01	9.701852e-01	9.609688e-01	1.087827e+00	1.074595e+00	1.062588e+00	1.052921e+00	8.001620e-01	7.822136e-01	7.679400e-01	9.070075e-01	8.838814e-01	1.083827e+00	1.085739e+00	7.990327e-01	7.931595e-01	9.021203e-01	7.640445e-01	8.040187e-01	1.014691e+00	1.077739e+00	1.066284e+00	1.052739e+00	1.039283e+00	1.027297e+00	1.000024e+00	9.846893e-01	9.690582e-01	9.522923e-01	9.368960e-01	9.270573e-01	9.138983e-01	8.819976e-01	7.632401e-01	7.650484e-01	7.699515e-01	7.720862e-01	7.800505e-01	9.223522e-01	9.418910e-01	9.830829e-01	9.739295e-01	9.656402e-01	8.751004e-01	9.480932e-01	9.623701e-01	9.856384e-01	1.009687e+00	1.033598e+00	8.155135e-01	8.260840e-01	8.383394e-01	8.535039e-01	8.713208e-01	8.826346e-01	7.867330e-01	7.817968e-01	1.091079e+00	1.089048e+00	9.698163e-01	9.874263e-01	9.926417e-01	8.614387e-01	8.398529e-01	1.095577e+00	1.134376e+00	1.129177e+00	1.111616e+00	1.068172e+00	1.089532e+00	1.150005e+00	1.109250e+00	1.183289e+00	1.145922e+00	1.117820e+00	1.103829e+00	1.107489e+00	1.193634e+00	1.225008e+00	1.082464e+00	9.929369e-01	7.827824e-01	1.101796e+00	1.006696e+00	1.120683e+00	9.089094e-01	1.085040e+00	1.171086e+00	7.764309e-01	1.054744e+00	9.822688e-01	9.591773e-01	1.083883e+00	1.087361e+00	1.108505e+00	1.097593e+00	1.147873e+00	1.083823e+00	1.086111e+00	1.083944e+00	7.728447e-01	8.721647e-01	9.918220e-01	1.039743e+00	1.125381e+00	1.132615e+00	1.266140e+00	1.079898e+00	1.083119e+00	1.145806e+00	1.090432e+00	1.172854e+00	1.158271e+00	9.531188e-01	1.215356e+00	1.030440e+00	1.016894e+00	1.082516e+00	1.230196e+00	1.075253e+00	1.093403e+00	9.935015e-01	1.244329e+00	1.145375e+00	1.051891e+00	1.205269e+00	1.194695e+00	8.232287e-01	1.133406e+00	1.083981e+00	8.403939e-01	7.771835e-01	9.054107e-01	1.129634e+00	1.151044e+00	9.728470e-01	9.854139e-01	1.025943e+00	1.041824e+00	1.096954e+00	7.797001e-01	1.062807e+00	1.069403e+00	7.891084e-01	9.802400e-01	9.743965e-01	9.904790e-01	1.003163e+00	9.869787e-01	9.697848e-01	1.084752e+00	8.235141e-01	8.050863e-01	9.511423e-01	9.295924e-01	9.880176e-01	1.082158e+00	8.156888e-01	8.106161e-01	8.168116e-01	1.076175e+00	1.067542e+00	1.021904e+00	1.056472e+00	1.044607e+00	1.033244e+00	1.009115e+00	9.949270e-01	9.801843e-01	9.645602e-01	9.487278e-01	9.360688e-01	9.250170e-01	7.703945e-01	7.704780e-01	7.733663e-01	7.792974e-01	7.871593e-01	8.016695e-01	9.371725e-01	9.571604e-01	9.862528e-01	9.710095e-01	8.318238e-01	9.150057e-01	9.757283e-01	9.962907e-01	1.018682e+00	1.040289e+00	1.062372e+00	8.324199e-01	8.451242e-01	8.562437e-01	8.698287e-01	8.872539e-01	8.047338e-01	7.972593e-01	7.895547e-01	1.084269e+00	1.081431e+00	9.641576e-01	9.738239e-01	9.068920e-01	8.847009e-01	8.633278e-01	8.428795e-01	1.127895e+00	1.121355e+00	1.117478e+00	1.097507e+00	1.158934e+00	1.114861e+00	1.122215e+00	1.057403e+00	1.142113e+00	1.100327e+00	1.098474e+00	1.074265e+00	1.142112e+00	1.080026e+00	7.770158e-01	1.110905e+00	1.113792e+00	1.138554e+00	1.146345e+00	1.084821e+00	9.698594e-01	1.064005e+00	1.022724e+00	9.903333e-01	1.107211e+00	1.108719e+00	1.105287e+00	1.140984e+00	1.171648e+00	8.677019e-01	9.