# vtk DataFile Version 3.0
vtk output
ASCII
DATASET UNSTRUCTURED_GRID
POINTS 200 float
9.997500e-01	-3.632564e-05	0.0	9.990000e-01	-1.450444e-04	0.0	9.977600e-01	-3.228299e-04	0.0	9.960200e-01	-5.648157e-04	0.0	9.937800e-01	-8.571635e-04	0.0	9.910500e-01	-1.176751e-03	0.0	9.878400e-01	-1.498049e-03	0.0	9.841300e-01	-1.807682e-03	0.0	9.799500e-01	-2.113889e-03	0.0	9.752800e-01	-2.468791e-03	0.0	9.701500e-01	-2.960773e-03	0.0	9.645400e-01	-3.704672e-03	0.0	9.584700e-01	-4.799807e-03	0.0	9.519400e-01	-6.300119e-03	0.0	9.449600e-01	-8.186763e-03	0.0	9.375400e-01	-1.036897e-02	0.0	9.296900e-01	-1.270568e-02	0.0	9.214000e-01	-1.504414e-02	0.0	9.127000e-01	-1.723437e-02	0.0	9.035800e-01	-1.917386e-02	0.0	8.940600e-01	-2.079921e-02	0.0	8.841500e-01	-2.209510e-02	0.0	8.738500e-01	-2.308382e-02	0.0	8.631800e-01	-2.381058e-02	0.0	8.521600e-01	-2.433531e-02	0.0	8.407700e-01	-2.472353e-02	0.0	8.290500e-01	-2.503557e-02	0.0	8.170100e-01	-2.532607e-02	0.0	8.046400e-01	-2.564091e-02	0.0	7.919700e-01	-2.601546e-02	0.0	7.790100e-01	-2.647640e-02	0.0	7.657800e-01	-2.704188e-02	0.0	7.522800e-01	-2.772390e-02	0.0	7.385200e-01	-2.852838e-02	0.0	7.245300e-01	-2.945507e-02	0.0	7.103200e-01	-3.050076e-02	0.0	6.958900e-01	-3.166000e-02	0.0	6.812700e-01	-3.292237e-02	0.0	6.664700e-01	-3.427697e-02	0.0	6.515000e-01	-3.571149e-02	0.0	6.363800e-01	-3.721157e-02	0.0	6.211300e-01	-3.876214e-02	0.0	6.057600e-01	-4.034875e-02	0.0	5.902800e-01	-4.195691e-02	0.0	5.747100e-01	-4.357116e-02	0.0	5.590600e-01	-4.517738e-02	0.0	5.433600e-01	-4.675973e-02	0.0	5.276100e-01	-4.830592e-02	0.0	5.118400e-01	-4.980117e-02	0.0	4.960500e-01	-5.123416e-02	0.0	4.802700e-01	-5.259134e-02	0.0	4.645100e-01	-5.386168e-02	0.0	4.487800e-01	-5.503467e-02	0.0	4.331100e-01	-5.609905e-02	0.0	4.175000e-01	-5.704649e-02	0.0	4.019700e-01	-5.786801e-02	0.0	3.865400e-01	-5.855566e-02	0.0	3.712300e-01	-5.910262e-02	0.0	3.560400e-01	-5.950369e-02	0.0	3.409900e-01	-5.975395e-02	0.0	3.261100e-01	-5.984978e-02	0.0	3.114000e-01	-5.978907e-02	0.0	2.968700e-01	-5.957053e-02	0.0	2.825500e-01	-5.919448e-02	0.0	2.684500e-01	-5.866230e-02	0.0	2.545700e-01	-5.797585e-02	0.0	2.409400e-01	-5.713954e-02	0.0	2.275700e-01	-5.615811e-02	0.0	2.144700e-01	-5.503723e-02	0.0	2.016600e-01	-5.378452e-02	0.0	1.891400e-01	-5.240659e-02	0.0	1.769300e-01	-5.091291e-02	0.0	1.650400e-01	-4.931273e-02	0.0	1.534900e-01	-4.761746e-02	0.0	1.422900e-01	-4.583790e-02	0.0	1.314400e-01	-4.398351e-02	0.0	1.209500e-01	-4.206552e-02	0.0	1.108500e-01	-4.009941e-02	0.0	1.011300e-01	-3.809323e-02	0.0	9.181000e-02	-3.606083e-02	0.0	8.290000e-02	-3.401404e-02	0.0	7.440000e-02	-3.196196e-02	0.0	6.633000e-02	-2.991801e-02	0.0	5.869000e-02	-2.789011e-02	0.0	5.149000e-02	-2.588786e-02	0.0	4.474000e-02	-2.392002e-02	0.0	3.844000e-02	-2.199125e-02	0.0	3.260000e-02	-2.010777e-02	0.0	2.723000e-02	-1.827446e-02	0.0	2.232000e-02	-1.648732e-02	0.0	1.790000e-02	-1.475479e-02	0.0	1.395000e-02	-1.306390e-02	0.0	1.049000e-02	-1.141456e-02	0.0	7.520000e-03	-9.795069e-03	0.0	5.040000e-03	-8.188255e-03	0.0	3.050000e-03	-6.568636e-03	0.0	1.560000e-03	-4.909399e-03	0.0	5.600000e-04	-3.139684e-03	0.0	6.000000e-05	-1.148420e-03	0.0	0.000000e+00	0.000000e+00	0.0	6.000000e-05	1.132449e-03	0.0	5.600000e-04	3.185021e-03	0.0	1.560000e-03	5.138514e-03	0.0	3.050000e-03	7.069040e-03	0.0	5.040000e-03	9.014243e-03	0.0	7.520000e-03	1.096606e-02	0.0	1.049000e-02	1.292003e-02	0.0	1.395000e-02	1.486683e-02	0.0	1.790000e-02	1.679540e-02	0.0	2.232000e-02	1.868646e-02	0.0	2.723000e-02	2.053934e-02	0.0	3.260000e-02	2.233486e-02	0.0	3.844000e-02	2.407085e-02	0.0	4.474000e-02	2.573986e-02	0.0	5.149000e-02	2.733689e-02	0.0	5.869000e-02	2.886107e-02	0.0	6.633000e-02	3.031080e-02	0.0	7.440000e-02	3.168622e-02	0.0	8.290000e-02	3.299034e-02	0.0	9.181000e-02	3.422411e-02	0.0	1.011300e-01	3.539232e-02	0.0	1.108500e-01	3.649885e-02	0.0	1.209500e-01	3.754701e-02	0.0	1.314400e-01	3.854340e-02	0.0	1.422900e-01	3.949063e-02	0.0	1.534900e-01	4.039327e-02	0.0	1.650400e-01	4.125629e-02	0.0	1.769300e-01	4.208331e-02	0.0	1.891400e-01	4.287687e-02	0.0	2.016600e-01	4.363968e-02	0.0	2.144700e-01	4.437327e-02	0.0	2.275700e-01	4.507967e-02	0.0	2.409400e-01	4.575916e-02	0.0	2.545700e-01	4.641189e-02	0.0	2.684500e-01	4.703730e-02	0.0	2.825500e-01	4.763332e-02	0.0	2.968700e-01	4.819854e-02	0.0	3.114000e-01	4.873035e-02	0.0	3.261100e-01	4.922476e-02	0.0	3.409900e-01	4.967786e-02	0.0	3.560400e-01	5.008529e-02	0.0	3.712300e-01	5.044116e-02	0.0	3.865400e-01	5.073937e-02	0.0	4.019700e-01	5.097365e-02	0.0	4.175000e-01	5.113684e-02	0.0	4.331100e-01	5.122156e-02	0.0	4.487800e-01	5.122041e-02	0.0	4.645100e-01	5.112598e-02	0.0	4.802700e-01	5.093125e-02	0.0	4.960500e-01	5.062970e-02	0.0	5.118400e-01	5.021550e-02	0.0	5.276100e-01	4.968453e-02	0.0	5.433600e-01	4.903314e-02	0.0	5.590600e-01	4.826038e-02	0.0	5.747100e-01	4.736574e-02	0.0	5.902800e-01	4.635219e-02	0.0	6.057600e-01	4.522354e-02	0.0	6.211300e-01	4.398612e-02	0.0	6.363800e-01	4.264714e-02	0.0	6.515000e-01	4.121498e-02	0.0	6.664700e-01	3.969985e-02	0.0	6.812700e-01	3.811248e-02	0.0	6.958900e-01	3.646227e-02	0.0	7.103200e-01	3.475766e-02	0.0	7.245300e-01	3.300797e-02	0.0	7.385200e-01	3.121693e-02	0.0	7.522800e-01	2.938712e-02	0.0	7.657800e-01	2.752168e-02	0.0	7.790100e-01	2.561965e-02	0.0	7.919700e-01	2.367810e-02	0.0	8.046400e-01	2.169820e-02	0.0	8.170100e-01	1.968300e-02	0.0	8.290500e-01	1.764434e-02	0.0	8.407700e-01	1.559445e-02	0.0	8.521600e-01	1.355647e-02	0.0	8.631800e-01	1.156592e-02	0.0	8.738500e-01	9.651887e-03	0.0	8.841500e-01	7.851269e-03	0.0	8.940600e-01	6.197473e-03	0.0	9.035800e-01	4.714346e-03	0.0	9.127000e-01	3.421290e-03	0.0	9.214000e-01	2.335058e-03	0.0	9.296900e-01	1.468351e-03	0.0	9.375400e-01	8.390759e-04	0.0	9.449600e-01	4.577313e-04	0.0	9.519400e-01	3.230694e-04	0.0	9.584700e-01	4.071630e-04	0.0	9.645400e-01	6.484852e-04	0.0	9.701500e-01	9.585223e-04	0.0	9.752800e-01	1.239902e-03	0.0	9.799500e-01	1.415219e-03	0.0	9.841300e-01	1.443127e-03	0.0	9.878400e-01	1.327277e-03	0.0	9.910500e-01	1.106479e-03	0.0	9.937800e-01	8.329946e-04	0.0	9.960200e-01	5.583665e-04	0.0	9.977600e-01	3.216648e-04	0.0	9.990000e-01	1.449398e-04	0.0	9.997500e-01	3.632399e-05	0.0	1.000000e+00	0.000000e+00	0.0	
CELLS 200	600
2	199	0	2	0	1	2	1	2	2	2	3	2	3	4	2	4	5	2	5	6	2	6	7	2	7	8	2	8	9	2	9	10	2	10	11	2	11	12	2	12	13	2	13	14	2	14	15	2	15	16	2	16	17	2	17	18	2	18	19	2	19	20	2	20	21	2	21	22	2	22	23	2	23	24	2	24	25	2	25	26	2	26	27	2	27	28	2	28	29	2	29	30	2	30	31	2	31	32	2	32	33	2	33	34	2	34	35	2	35	36	2	36	37	2	37	38	2	38	39	2	39	40	2	40	41	2	41	42	2	42	43	2	43	44	2	44	45	2	45	46	2	46	47	2	47	48	2	48	49	2	49	50	2	50	51	2	51	52	2	52	53	2	53	54	2	54	55	2	55	56	2	56	57	2	57	58	2	58	59	2	59	60	2	60	61	2	61	62	2	62	63	2	63	64	2	64	65	2	65	66	2	66	67	2	67	68	2	68	69	2	69	70	2	70	71	2	71	72	2	72	73	2	73	74	2	74	75	2	75	76	2	76	77	2	77	78	2	78	79	2	79	80	2	80	81	2	81	82	2	82	83	2	83	84	2	84	85	2	85	86	2	86	87	2	87	88	2	88	89	2	89	90	2	90	91	2	91	92	2	92	93	2	93	94	2	94	95	2	95	96	2	96	97	2	97	98	2	98	99	2	99	100	2	100	101	2	101	102	2	102	103	2	103	104	2	104	105	2	105	106	2	106	107	2	107	108	2	108	109	2	109	110	2	110	111	2	111	112	2	112	113	2	113	114	2	114	115	2	115	116	2	116	117	2	117	118	2	118	119	2	119	120	2	120	121	2	121	122	2	122	123	2	123	124	2	124	125	2	125	126	2	126	127	2	127	128	2	128	129	2	129	130	2	130	131	2	131	132	2	132	133	2	133	134	2	134	135	2	135	136	2	136	137	2	137	138	2	138	139	2	139	140	2	140	141	2	141	142	2	142	143	2	143	144	2	144	145	2	145	146	2	146	147	2	147	148	2	148	149	2	149	150	2	150	151	2	151	152	2	152	153	2	153	154	2	154	155	2	155	156	2	156	157	2	157	158	2	158	159	2	159	160	2	160	161	2	161	162	2	162	163	2	163	164	2	164	165	2	165	166	2	166	167	2	167	168	2	168	169	2	169	170	2	170	171	2	171	172	2	172	173	2	173	174	2	174	175	2	175	176	2	176	177	2	177	178	2	178	179	2	179	180	2	180	181	2	181	182	2	182	183	2	183	184	2	184	185	2	185	186	2	186	187	2	187	188	2	188	189	2	189	190	2	190	191	2	191	192	2	192	193	2	193	194	2	194	195	2	195	196	2	196	197	2	197	198	2	198	199	
CELL_TYPES 200
3	3	3	3	3	3	3	3	3	3	3	3	3	3	3	3	3	3	3	3	3	3	3	3	3	3	3	3	3	3	3	3	3	3	3	3	3	3	3	3	3	3	3	3	3	3	3	3	3	3	3	3	3	3	3	3	3	3	3	3	3	3	3	3	3	3	3	3	3	3	3	3	3	3	3	3	3	3	3	3	3	3	3	3	3	3	3	3	3	3	3	3	3	3	3	3	3	3	3	3	3	3	3	3	3	3	3	3	3	3	3	3	3	3	3	3	3	3	3	3	3	3	3	3	3	3	3	3	3	3	3	3	3	3	3	3	3	3	3	3	3	3	3	3	3	3	3	3	3	3	3	3	3	3	3	3	3	3	3	3	3	3	3	3	3	3	3	3	3	3	3	3	3	3	3	3	3	3	3	3	3	3	3	3	3	3	3	3	3	3	3	3	3	3	3	3	3	3	3	3	
POINT_DATA 200

SCALARS Conservative_1 float 1
LOOKUP_TABLE default
1.166137e+00	1.144570e+00	1.127566e+00	1.113274e+00	1.101750e+00	1.094898e+00	1.094463e+00	1.100977e+00	1.112574e+00	1.125623e+00	1.135654e+00	1.139131e+00	1.133879e+00	1.118923e+00	1.094089e+00	1.060136e+00	1.019219e+00	9.735712e-01	9.222919e-01	8.735855e-01	8.456943e-01	8.436654e-01	8.599394e-01	8.848492e-01	9.116203e-01	9.361029e-01	9.568115e-01	9.736316e-01	9.868777e-01	9.969716e-01	1.004304e+00	1.009263e+00	1.012224e+00	1.013407e+00	1.013129e+00	1.011515e+00	1.008791e+00	1.005079e+00	1.000533e+00	9.952887e-01	9.894482e-01	9.831271e-01	9.765378e-01	9.701336e-01	9.638518e-01	9.567115e-01	9.500237e-01	9.514985e-01	9.622727e-01	9.505126e-01	8.481178e-01	7.195000e-01	6.795477e-01	6.908542e-01	7.020039e-01	7.082842e-01	7.133731e-01	7.199218e-01	7.277952e-01	7.364285e-01	7.456798e-01	7.555606e-01	7.660315e-01	7.770535e-01	7.885355e-01	8.004538e-01	8.128112e-01	8.255802e-01	8.386610e-01	8.519709e-01	8.654186e-01	8.789787e-01	8.926452e-01	9.064529e-01	9.203776e-01	9.343246e-01	9.482265e-01	9.620663e-01	9.758358e-01	9.894681e-01	1.002983e+00	1.016346e+00	1.029556e+00	1.042608e+00	1.055523e+00	1.068340e+00	1.081104e+00	1.093915e+00	1.106947e+00	1.120361e+00	1.134517e+00	1.150011e+00	1.167564e+00	1.188742e+00	1.215886e+00	1.251431e+00	1.294070e+00	1.342632e+00	1.350041e+00	1.332130e+00	1.314163e+00	1.258771e+00	1.164333e+00	1.096698e+00	1.042667e+00	9.977088e-01	9.595992e-01	9.266590e-01	8.974246e-01	8.713589e-01	8.481071e-01	8.273184e-01	8.089695e-01	7.927849e-01	7.787059e-01	7.668267e-01	7.569622e-01	7.487835e-01	7.420064e-01	7.363657e-01	7.318276e-01	7.286047e-01	7.268245e-01	7.261932e-01	7.262484e-01	7.267198e-01	7.276527e-01	7.290054e-01	7.306351e-01	7.325169e-01	7.347960e-01	7.375769e-01	7.407775e-01	7.441713e-01	7.475265e-01	7.506651e-01	7.534852e-01	7.558172e-01	7.574565e-01	7.583102e-01	7.584579e-01	7.582136e-01	7.579759e-01	7.579610e-01	7.582708e-01	7.589052e-01	7.597515e-01	7.608708e-01	7.618582e-01	7.616904e-01	7.589654e-01	7.548721e-01	7.571835e-01	7.821905e-01	8.326425e-01	8.767052e-01	8.919915e-01	8.915165e-01	8.917571e-01	8.985563e-01	9.093332e-01	9.200782e-01	9.295845e-01	9.385394e-01	9.473680e-01	9.560395e-01	9.645087e-01	9.729909e-01	9.817453e-01	9.911616e-01	1.001495e+00	1.012899e+00	1.025444e+00	1.038946e+00	1.053069e+00	1.067299e+00	1.081098e+00	1.094035e+00	1.105755e+00	1.116143e+00	1.125180e+00	1.132913e+00	1.139128e+00	1.143309e+00	1.144401e+00	1.141082e+00	1.131986e+00	1.116277e+00	1.094453e+00	1.069552e+00	1.047014e+00	1.032877e+00	1.032024e+00	1.044865e+00	1.066612e+00	1.091455e+00	1.116224e+00	1.140898e+00	1.170231e+00	1.153280e+00	
SCALARS Conservative_2 float 1
LOOKUP_TABLE default
7.205696e-01	7.545413e-01	7.809582e-01	8.017614e-01	8.175256e-01	8.281080e-01	8.314054e-01	8.264947e-01	8.138878e-01	7.969299e-01	7.806604e-01	7.699907e-01	7.686914e-01	7.786965e-01	7.998033e-01	8.296825e-01	8.639779e-01	8.975354e-01	9.256675e-01	9.442938e-01	9.554361e-01	9.620071e-01	9.641710e-01	9.621317e-01	9.571626e-01	9.503156e-01	9.425643e-01	9.348101e-01	9.277657e-01	9.218085e-01	9.170240e-01	9.134906e-01	9.111959e-01	9.099246e-01	9.097677e-01	9.104041e-01	9.118377e-01	9.138688e-01	9.163947e-01	9.193420e-01	9.225254e-01	9.259303e-01	9.293196e-01	9.326227e-01	9.357392e-01	9.388180e-01	9.409716e-01	9.405718e-01	9.366417e-01	9.357618e-01	9.462009e-01	9.458730e-01	9.291917e-01	9.421552e-01	9.453794e-01	9.488171e-01	9.516064e-01	9.544835e-01	9.576567e-01	9.608703e-01	9.639763e-01	9.669452e-01	9.696464e-01	9.720581e-01	9.740474e-01	9.755864e-01	9.765950e-01	9.770297e-01	9.768077e-01	9.759101e-01	9.742941e-01	9.719493e-01	9.688355e-01	9.649341e-01	9.602229e-01	9.546624e-01	9.483287e-01	9.412041e-01	9.332967e-01	9.245137e-01	9.149481e-01	9.045684e-01	8.933397e-01	8.812369e-01	8.681839e-01	8.539575e-01	8.383475e-01	8.210920e-01	8.016034e-01	7.789916e-01	7.520035e-01	7.184888e-01	6.747365e-01	6.152570e-01	5.307338e-01	4.096602e-01	2.497515e-01	8.302584e-02	2.693331e-04	7.597299e-03	6.648790e-02	2.080348e-01	4.013424e-01	5.572571e-01	6.721854e-01	7.543441e-01	8.127545e-01	8.549804e-01	8.853630e-01	9.073115e-01	9.230125e-01	9.339269e-01	9.414584e-01	9.464625e-01	9.495866e-01	9.514890e-01	9.525467e-01	9.530236e-01	9.531891e-01	9.531525e-01	9.530432e-01	9.530972e-01	9.533991e-01	9.537890e-01	9.543088e-01	9.548985e-01	9.555932e-01	9.563404e-01	9.571409e-01	9.579926e-01	9.589718e-01	9.600947e-01	9.613087e-01	9.625240e-01	9.636632e-01	9.646884e-01	9.655876e-01	9.663071e-01	9.668192e-01	9.671156e-01	9.672400e-01	9.673145e-01	9.673732e-01	9.675002e-01	9.677051e-01	9.679582e-01	9.682361e-01	9.685445e-01	9.685791e-01	9.682348e-01	9.672506e-01	9.666327e-01	9.674240e-01	9.741435e-01	9.784982e-01	9.759437e-01	9.735324e-01	9.731280e-01	9.730517e-01	9.720315e-01	9.699974e-01	9.672454e-01	9.643179e-01	9.612917e-01	9.580505e-01	9.545703e-01	9.508212e-01	9.467413e-01	9.420685e-01	9.366825e-01	9.303331e-01	9.227374e-01	9.138853e-01	9.037619e-01	8.925666e-01	8.806652e-01	8.685578e-01	8.567836e-01	8.457032e-01	8.355773e-01	8.264165e-01	8.184237e-01	8.120287e-01	8.082822e-01	8.087079e-01	8.149246e-01	8.279791e-01	8.475472e-01	8.713774e-01	8.953423e-01	9.138218e-01	9.223107e-01	9.192080e-01	9.063079e-01	8.857332e-01	8.604101e-01	8.314252e-01	7.985625e-01	7.629791e-01	6.785828e-01	
SCALARS Conservative_3 float 1
LOOKUP_TABLE default
1.025506e-01	1.057769e-01	1.087880e-01	1.068815e-01	1.005107e-01	8.938370e-02	7.587812e-02	6.455186e-02	6.075849e-02	6.873539e-02	8.967666e-02	1.210586e-01	1.581148e-01	1.948950e-01	2.255283e-01	2.449435e-01	2.494068e-01	2.382129e-01	2.148939e-01	1.820104e-01	1.446104e-01	1.091495e-01	7.884897e-02	5.508258e-02	3.834700e-02	2.822017e-02	2.346524e-02	2.284242e-02	2.526274e-02	2.981246e-02	3.574007e-02	4.245236e-02	4.952464e-02	5.662022e-02	6.348809e-02	6.997300e-02	7.590000e-02	8.119680e-02	8.578124e-02	8.958906e-02	9.262536e-02	9.484629e-02	9.626139e-02	9.673855e-02	9.642761e-02	9.577944e-02	9.463041e-02	9.125082e-02	8.387757e-02	7.443243e-02	7.816594e-02	8.371499e-02	6.646202e-02	5.944945e-02	5.326473e-02	4.647145e-02	3.862980e-02	2.998263e-02	2.087431e-02	1.130866e-02	1.324407e-03	-9.091856e-03	-1.987542e-02	-3.098959e-02	-4.236418e-02	-5.397208e-02	-6.574530e-02	-7.762396e-02	-8.953722e-02	-1.014320e-01	-1.132301e-01	-1.248804e-01	-1.363329e-01	-1.475187e-01	-1.584017e-01	-1.689253e-01	-1.790849e-01	-1.888259e-01	-1.981645e-01	-2.070809e-01	-2.156283e-01	-2.238407e-01	-2.317913e-01	-2.395957e-01	-2.473570e-01	-2.552621e-01	-2.635796e-01	-2.726132e-01	-2.826950e-01	-2.943709e-01	-3.082170e-01	-3.247722e-01	-3.444631e-01	-3.666398e-01	-3.866836e-01	-3.906338e-01	-3.455388e-01	-2.027384e-01	2.500571e-02	2.129826e-01	3.895697e-01	5.709872e-01	6.402653e-01	6.311129e-01	5.921457e-01	5.442195e-01	4.953497e-01	4.485535e-01	4.049769e-01	3.646502e-01	3.278286e-01	2.942767e-01	2.638998e-01	2.365400e-01	2.120070e-01	1.901169e-01	1.706985e-01	1.535113e-01	1.383607e-01	1.250213e-01	1.132699e-01	1.029980e-01	9.409516e-02	8.639254e-02	7.970662e-02	7.381334e-02	6.864007e-02	6.408248e-02	6.005416e-02	5.642428e-02	5.311822e-02	5.010163e-02	4.731265e-02	4.466991e-02	4.207847e-02	3.946570e-02	3.678953e-02	3.402404e-02	3.109310e-02	2.794193e-02	2.450552e-02	2.075251e-02	1.670603e-02	1.232650e-02	7.596024e-03	2.501165e-03	-3.020482e-03	-8.921831e-03	-1.511073e-02	-2.160793e-02	-2.859996e-02	-3.674076e-02	-4.599919e-02	-5.595740e-02	-6.034207e-02	-6.349673e-02	-7.178226e-02	-8.149222e-02	-8.974168e-02	-9.608779e-02	-1.013674e-01	-1.063610e-01	-1.113162e-01	-1.160158e-01	-1.203724e-01	-1.246237e-01	-1.289547e-01	-1.335071e-01	-1.383368e-01	-1.434004e-01	-1.485103e-01	-1.533081e-01	-1.573060e-01	-1.598874e-01	-1.604305e-01	-1.584682e-01	-1.537466e-01	-1.462960e-01	-1.363486e-01	-1.242108e-01	-1.100523e-01	-9.374424e-02	-7.491026e-02	-5.317126e-02	-2.872379e-02	-2.902009e-03	2.143217e-02	4.000291e-02	4.794179e-02	4.155962e-02	2.070056e-02	-1.057855e-02	-4.510810e-02	-7.575129e-02	-9.759624e-02	-1.094993e-01	-1.136847e-01	-1.113826e-01	-1.046883e-01	-2.049354e-03	
SCALARS Conservative_4 float 1
LOOKUP_TABLE default
3.353430e+00	3.300167e+00	3.258528e+00	3.223407e+00	3.194926e+00	3.178150e+00	3.177384e+00	3.193952e+00	3.223008e+00	3.255479e+00	3.280240e+00	3.288563e+00	3.275156e+00	3.237652e+00	3.175519e+00	3.090450e+00	2.987562e+00	2.872021e+00	2.740755e+00	2.614763e+00	2.542608e+00	2.537876e+00	2.580511e+00	2.645232e+00	2.714584e+00	2.777769e+00	2.830955e+00	2.873954e+00	2.907704e+00	2.933364e+00	2.951955e+00	2.964509e+00	2.972015e+00	2.974993e+00	2.974317e+00	2.970239e+00	2.963367e+00	2.953984e+00	2.942476e+00	2.929198e+00	2.914377e+00	2.898325e+00	2.881552e+00	2.865254e+00	2.849238e+00	2.830925e+00	2.813578e+00	2.817321e+00	2.844919e+00	2.812911e+00	2.543554e+00	2.208021e+00	2.098770e+00	2.132508e+00	2.162120e+00	2.179387e+00	2.193368e+00	2.211153e+00	2.232499e+00	2.255870e+00	2.280857e+00	2.307493e+00	2.335638e+00	2.365197e+00	2.395896e+00	2.427677e+00	2.460529e+00	2.494375e+00	2.528935e+00	2.563996e+00	2.599308e+00	2.634807e+00	2.670469e+00	2.706384e+00	2.742489e+00	2.778524e+00	2.814337e+00	2.849880e+00	2.885138e+00	2.919911e+00	2.954285e+00	2.988168e+00	3.021554e+00	3.054442e+00	3.086885e+00	3.118960e+00	3.150779e+00	3.182603e+00	3.214843e+00	3.247854e+00	3.282518e+00	3.320269e+00	3.362758e+00	3.413903e+00	3.479470e+00	3.565624e+00	3.669372e+00	3.791361e+00	3.807225e+00	3.761502e+00	3.722927e+00	3.591657e+00	3.353485e+00	3.185030e+00	3.050275e+00	2.937431e+00	2.840946e+00	2.756896e+00	2.681633e+00	2.614004e+00	2.553277e+00	2.498610e+00	2.450121e+00	2.407162e+00	2.369628e+00	2.337854e+00	2.311379e+00	2.289356e+00	2.271078e+00	2.255845e+00	2.243572e+00	2.234863e+00	2.230052e+00	2.228302e+00	2.228420e+00	2.229676e+00	2.232192e+00	2.235833e+00	2.240229e+00	2.245309e+00	2.251474e+00	2.258998e+00	2.267647e+00	2.276806e+00	2.285842e+00	2.294284e+00	2.301866e+00	2.308119e+00	2.312515e+00	2.314799e+00	2.315185e+00	2.314555e+00	2.313924e+00	2.313896e+00	2.314771e+00	2.316483e+00	2.318787e+00	2.321823e+00	2.324398e+00	2.323903e+00	2.316531e+00	2.305793e+00	2.312253e+00	2.379610e+00	2.512955e+00	2.628216e+00	2.668028e+00	2.666894e+00	2.667731e+00	2.685604e+00	2.713759e+00	2.741656e+00	2.766246e+00	2.789396e+00	2.812177e+00	2.834514e+00	2.856288e+00	2.878057e+00	2.900454e+00	2.924501e+00	2.950827e+00	2.979780e+00	3.011553e+00	3.045654e+00	3.081223e+00	3.116954e+00	3.151505e+00	3.183826e+00	3.213030e+00	3.238856e+00	3.261254e+00	3.280380e+00	3.295732e+00	3.306111e+00	3.308947e+00	3.300987e+00	3.278768e+00	3.240027e+00	3.185758e+00	3.123430e+00	3.066566e+00	3.030372e+00	3.027540e+00	3.059596e+00	3.114186e+00	3.176355e+00	3.237862e+00	3.298720e+00	3.372433e+00	3.309292e+00	
SCALARS Pressure float 1
LOOKUP_TABLE default
1.250518e+00	1.218627e+00	1.193133e+00	1.171828e+00	1.154812e+00	1.144535e+00	1.143587e+00	1.152735e+00	1.169462e+00	1.188508e+00	1.203353e+00	1.208758e+00	1.201429e+00	1.179887e+00	1.143975e+00	1.094996e+00	1.036342e+00	9.716636e-01	9.004767e-01	8.341757e-01	7.962139e-01	7.929363e-01	8.145512e-01	8.481742e-01	8.845151e-01	9.179886e-01	9.465609e-01	9.699673e-01	9.885135e-01	1.002705e+00	1.013062e+00	1.020085e+00	1.024271e+00	1.025963e+00	1.025541e+00	1.023247e+00	1.019364e+00	1.014095e+00	1.007653e+00	1.000228e+00	9.919909e-01	9.830877e-01	9.738461e-01	9.648600e-01	9.560764e-01	9.462004e-01	9.371448e-01	9.392241e-01	9.541665e-01	9.397508e-01	8.048553e-01	6.325668e-01	5.840985e-01	5.950065e-01	6.094137e-01	6.169379e-01	6.230490e-01	6.311178e-01	6.408566e-01	6.515701e-01	6.631068e-01	6.754813e-01	6.886754e-01	7.026315e-01	7.172628e-01	7.325357e-01	7.484715e-01	7.650378e-01	7.821202e-01	7.996073e-01	8.173870e-01	8.354236e-01	8.537173e-01	8.723146e-01	8.911846e-01	9.102126e-01	9.292841e-01	9.483809e-01	9.674846e-01	9.865320e-01	1.005514e+00	1.024391e+00	1.043155e+00	1.061796e+00	1.080342e+00	1.098867e+00	1.117439e+00	1.136191e+00	1.155401e+00	1.175345e+00	1.196569e+00	1.219986e+00	1.246792e+00	1.279257e+00	1.320860e+00	1.375042e+00	1.439656e+00	1.509395e+00	1.522797e+00	1.497782e+00	1.465401e+00	1.377986e+00	1.243310e+00	1.144744e+00	1.066183e+00	1.001533e+00	9.475619e-01	9.015641e-01	8.614101e-01	8.261319e-01	7.950604e-01	7.676545e-01	7.437016e-01	7.227639e-01	7.047142e-01	6.895903e-01	6.771198e-01	6.668536e-01	6.583759e-01	6.513402e-01	6.456968e-01	6.416815e-01	6.394638e-01	6.387221e-01	6.388214e-01	6.394268e-01	6.405942e-01	6.422931e-01	6.443311e-01	6.466801e-01	6.495136e-01	6.529697e-01	6.569558e-01	6.611970e-01	6.654045e-01	6.693521e-01	6.729080e-01	6.758577e-01	6.779405e-01	6.790301e-01	6.792168e-01	6.788922e-01	6.785722e-01	6.785250e-01	6.788962e-01	6.796717e-01	6.807263e-01	6.821280e-01	6.834212e-01	6.832814e-01	6.798578e-01	6.744000e-01	6.771343e-01	7.084030e-01	7.743265e-01	8.330834e-01	8.535506e-01	8.528255e-01	8.529347e-01	8.618834e-01	8.763020e-01	8.908371e-01	9.037626e-01	9.159710e-01	9.280412e-01	9.399359e-01	9.516012e-01	9.633189e-01	9.754839e-01	9.886113e-01	1.003081e+00	1.019151e+00	1.036902e+00	1.056107e+00	1.076296e+00	1.096742e+00	1.116669e+00	1.135421e+00	1.152487e+00	1.167670e+00	1.180952e+00	1.192354e+00	1.201537e+00	1.207664e+00	1.209137e+00	1.203995e+00	1.190303e+00	1.167022e+00	1.135129e+00	1.099147e+00	1.067030e+00	1.047411e+00	1.046877e+00	1.065515e+00	1.096783e+00	1.132690e+00	1.168971e+00	1.205524e+00	1.247609e+00	1.243861e+00	
SCALARS Temperature float 1
LOOKUP_TABLE default
1.072360e+00	1.064703e+00	1.058149e+00	1.052596e+00	1.048162e+00	1.045335e+00	1.044883e+00	1.047011e+00	1.051132e+00	1.055868e+00	1.059612e+00	1.061122e+00	1.059574e+00	1.054484e+00	1.045596e+00	1.032883e+00	1.016801e+00	9.980407e-01	9.763468e-01	9.548873e-01	9.414914e-01	9.398706e-01	9.472193e-01	9.585523e-01	9.702670e-01	9.806492e-01	9.892867e-01	9.962364e-01	1.001658e+00	1.005751e+00	1.008720e+00	1.010723e+00	1.011902e+00	1.012390e+00	1.012251e+00	1.011599e+00	1.010481e+00	1.008970e+00	1.007117e+00	1.004963e+00	1.002570e+00	9.999599e-01	9.972436e-01	9.945641e-01	9.919331e-01	9.890133e-01	9.864436e-01	9.871000e-01	9.915760e-01	9.886778e-01	9.489900e-01	8.791755e-01	8.595402e-01	8.612620e-01	8.681059e-01	8.710315e-01	8.733844e-01	8.766478e-01	8.805453e-01	8.847703e-01	8.892647e-01	8.940133e-01	8.990170e-01	9.042254e-01	9.096138e-01	9.151505e-01	9.208430e-01	9.266668e-01	9.325821e-01	9.385383e-01	9.444989e-01	9.504480e-01	9.563904e-01	9.623385e-01	9.682815e-01	9.741931e-01	9.800234e-01	9.857750e-01	9.914420e-01	9.970326e-01	1.002524e+00	1.007915e+00	1.013209e+00	1.018404e+00	1.023513e+00	1.028574e+00	1.033609e+00	1.038647e+00	1.043773e+00	1.049078e+00	1.054694e+00	1.060847e+00	1.067858e+00	1.076144e+00	1.086335e+00	1.098775e+00	1.112502e+00	1.124206e+00	1.127964e+00	1.124351e+00	1.115084e+00	1.094708e+00	1.067830e+00	1.043810e+00	1.022554e+00	1.003833e+00	9.874558e-01	9.729190e-01	9.598690e-01	9.480959e-01	9.374528e-01	9.278827e-01	9.193198e-01	9.116772e-01	9.049812e-01	8.992779e-01	8.945226e-01	8.905827e-01	8.872914e-01	8.845337e-01	8.823073e-01	8.806991e-01	8.798050e-01	8.795484e-01	8.796183e-01	8.798808e-01	8.803572e-01	8.810541e-01	8.818782e-01	8.828194e-01	8.839374e-01	8.852903e-01	8.868464e-01	8.885011e-01	8.901417e-01	8.916788e-01	8.930606e-01	8.942080e-01	8.950224e-01	8.954517e-01	8.955235e-01	8.953838e-01	8.952424e-01	8.951977e-01	8.953215e-01	8.955950e-01	8.959854e-01	8.965096e-01	8.970451e-01	8.970593e-01	8.957692e-01	8.933964e-01	8.942803e-01	9.056656e-01	9.299628e-01	9.502434e-01	9.569045e-01	9.566009e-01	9.564653e-01	9.591868e-01	9.636753e-01	9.682190e-01	9.722221e-01	9.759537e-01	9.795994e-01	9.831559e-01	9.866176e-01	9.900595e-01	9.936222e-01	9.974270e-01	1.001583e+00	1.006172e+00	1.011174e+00	1.016518e+00	1.022056e+00	1.027587e+00	1.032902e+00	1.037829e+00	1.042263e+00	1.046166e+00	1.049567e+00	1.052467e+00	1.054787e+00	1.056289e+00	1.056568e+00	1.055134e+00	1.051517e+00	1.045459e+00	1.037166e+00	1.027671e+00	1.019118e+00	1.014072e+00	1.014392e+00	1.019763e+00	1.028286e+00	1.037780e+00	1.047255e+00	1.056645e+00	1.066122e+00	1.078542e+00	
SCALARS Pressure_Coefficient float 1
LOOKUP_TABLE default
5.591929e-01	4.880076e-01	4.310999e-01	3.835435e-01	3.455617e-01	3.226237e-01	3.205059e-01	3.409272e-01	3.782631e-01	4.207776e-01	4.539132e-01	4.659771e-01	4.496179e-01	4.015340e-01	3.213733e-01	2.120454e-01	8.112140e-02	-6.325085e-02	-2.221502e-01	-3.701436e-01	-4.548798e-01	-4.621957e-01	-4.139483e-01	-3.388968e-01	-2.577788e-01	-1.830612e-01	-1.192838e-01	-6.703737e-02	-2.563946e-02	6.037729e-03	2.915528e-02	4.483272e-02	5.417698e-02	5.795267e-02	5.701109e-02	5.189107e-02	4.322392e-02	3.146127e-02	1.708279e-02	5.094802e-04	-1.787748e-02	-3.775062e-02	-5.837931e-02	-7.843750e-02	-9.804370e-02	-1.200883e-01	-1.403018e-01	-1.356605e-01	-1.023068e-01	-1.344849e-01	-4.355908e-01	-8.201634e-01	-9.283515e-01	-9.040034e-01	-8.718444e-01	-8.550493e-01	-8.414086e-01	-8.233977e-01	-8.016593e-01	-7.777454e-01	-7.519938e-01	-7.243721e-01	-6.949210e-01	-6.637690e-01	-6.311099e-01	-5.970186e-01	-5.614476e-01	-5.244693e-01	-4.863388e-01	-4.473052e-01	-4.076184e-01	-3.673581e-01	-3.265239e-01	-2.850121e-01	-2.428915e-01	-2.004182e-01	-1.578479e-01	-1.152211e-01	-7.257906e-02	-3.006251e-02	1.230865e-02	5.444317e-02	9.632884e-02	1.379382e-01	1.793339e-01	2.206851e-01	2.621401e-01	3.039985e-01	3.468765e-01	3.913961e-01	4.387697e-01	4.910405e-01	5.508750e-01	6.233423e-01	7.162047e-01	8.371468e-01	9.813744e-01	1.137042e+00	1.166958e+00	1.111120e+00	1.038842e+00	8.437182e-01	5.431017e-01	3.230896e-01	1.477310e-01	3.421888e-03	-1.170494e-01	-2.197230e-01	-3.093525e-01	-3.880985e-01	-4.574546e-01	-5.186284e-01	-5.720946e-01	-6.188306e-01	-6.591200e-01	-6.928787e-01	-7.207148e-01	-7.436304e-01	-7.625538e-01	-7.782584e-01	-7.908554e-01	-7.998181e-01	-8.047683e-01	-8.064239e-01	-8.062022e-01	-8.048509e-01	-8.022450e-01	-7.984528e-01	-7.939037e-01	-7.886604e-01	-7.823357e-01	-7.746213e-01	-7.657237e-01	-7.562567e-01	-7.468650e-01	-7.380533e-01	-7.301161e-01	-7.235318e-01	-7.188827e-01	-7.164507e-01	-7.160338e-01	-7.167586e-01	-7.174728e-01	-7.175782e-01	-7.167496e-01	-7.150185e-01	-7.126646e-01	-7.095358e-01	-7.066492e-01	-7.069611e-01	-7.146032e-01	-7.267857e-01	-7.206824e-01	-6.508861e-01	-5.037355e-01	-3.725818e-01	-3.268960e-01	-3.285145e-01	-3.282708e-01	-3.082960e-01	-2.761117e-01	-2.436671e-01	-2.148157e-01	-1.875646e-01	-1.606224e-01	-1.340717e-01	-1.080330e-01	-8.187745e-02	-5.472342e-02	-2.542123e-02	6.877236e-03	4.274780e-02	8.237155e-02	1.252388e-01	1.703031e-01	2.159429e-01	2.604208e-01	3.022798e-01	3.403731e-01	3.742642e-01	4.039112e-01	4.293608e-01	4.498585e-01	4.635354e-01	4.668248e-01	4.553455e-01	4.247831e-01	3.728169e-01	3.016281e-01	2.213109e-01	1.496206e-01	1.058279e-01	1.046352e-01	1.462387e-01	2.160332e-01	2.961831e-01	3.771671e-01	4.587584e-01	5.526989e-01	5.443332e-01	
SCALARS Mach float 1
LOOKUP_TABLE default
5.093854e-01	5.452409e-01	5.745420e-01	5.985128e-01	6.171604e-01	6.288352e-01	6.306884e-01	6.219317e-01	6.047138e-01	5.844778e-01	5.681005e-01	5.613933e-01	5.682691e-01	5.904420e-01	6.277668e-01	6.785895e-01	7.394929e-01	8.069139e-01	8.812903e-01	9.521004e-01	9.952552e-01	1.000432e+00	9.768870e-01	9.401647e-01	9.015926e-01	8.667918e-01	8.373250e-01	8.132295e-01	7.941678e-01	7.796070e-01	7.689460e-01	7.617076e-01	7.574298e-01	7.556537e-01	7.561580e-01	7.585301e-01	7.625839e-01	7.680472e-01	7.747148e-01	7.824226e-01	7.909372e-01	8.001656e-01	8.097088e-01	8.190642e-01	8.281961e-01	8.382697e-01	8.470851e-01	8.448382e-01	8.294357e-01	8.394321e-01	9.712012e-01	1.189582e+00	1.249673e+00	1.244421e+00	1.223501e+00	1.214547e+00	1.207345e+00	1.197349e+00	1.185397e+00	1.172425e+00	1.158603e+00	1.143973e+00	1.128522e+00	1.112396e+00	1.095662e+00	1.078407e+00	1.060596e+00	1.042291e+00	1.023604e+00	1.004681e+00	9.856265e-01	9.664792e-01	9.472125e-01	9.277719e-01	9.081790e-01	8.885057e-01	8.689074e-01	8.493654e-01	8.298903e-01	8.104437e-01	7.910962e-01	7.718437e-01	7.526638e-01	7.335570e-01	7.144657e-01	6.952306e-01	6.757463e-01	6.558693e-01	6.352147e-01	6.133268e-01	5.895224e-01	5.625992e-01	5.306717e-01	4.908599e-01	4.379271e-01	3.646967e-01	2.639930e-01	1.300646e-01	1.474028e-02	1.275142e-01	2.406872e-01	3.899715e-01	5.308009e-01	6.350561e-01	7.180614e-01	7.864339e-01	8.436013e-01	8.927510e-01	9.358523e-01	9.740549e-01	1.008128e+00	1.038448e+00	1.065360e+00	1.089231e+00	1.110044e+00	1.127707e+00	1.142395e+00	1.154539e+00	1.164668e+00	1.173145e+00	1.179983e+00	1.184919e+00	1.187662e+00	1.188449e+00	1.188235e+00	1.187430e+00	1.185968e+00	1.183830e+00	1.181300e+00	1.178410e+00	1.174977e+00	1.170821e+00	1.166037e+00	1.160948e+00	1.155896e+00	1.151160e+00	1.146905e+00	1.143363e+00	1.140857e+00	1.139535e+00	1.139304e+00	1.139744e+00	1.140169e+00	1.140292e+00	1.139931e+00	1.139071e+00	1.137882e+00	1.136281e+00	1.134600e+00	1.134582e+00	1.138531e+00	1.145818e+00	1.143155e+00	1.107842e+00	1.031879e+00	9.671793e-01	9.455157e-01	9.465176e-01	9.469563e-01	9.380609e-01	9.233720e-01	9.083874e-01	8.950742e-01	8.826003e-01	8.703272e-01	8.582758e-01	8.464712e-01	8.346486e-01	8.223214e-01	8.090477e-01	7.944124e-01	7.780806e-01	7.600514e-01	7.405113e-01	7.199240e-01	6.989901e-01	6.784841e-01	6.591034e-01	6.413259e-01	6.253870e-01	6.112584e-01	5.990235e-01	5.891051e-01	5.826153e-01	5.813993e-01	5.876049e-01	6.030474e-01	6.282864e-01	6.617248e-01	6.986564e-01	7.308772e-01	7.494782e-01	7.483064e-01	7.284733e-01	6.962991e-01	6.592830e-01	6.208749e-01	5.810554e-01	5.386711e-01	4.788367e-01	