# vtk DataFile Version 3.0
vtk output
ASCII
DATASET UNSTRUCTURED_GRID
POINTS 5233 float
9.997500e-01	-3.633566e-05	0.0	9.990000e-01	-1.456763e-04	0.0	9.977600e-01	-3.297371e-04	0.0	9.960200e-01	-6.019028e-04	0.0	9.937800e-01	-9.900106e-04	0.0	9.910500e-01	-1.539289e-03	0.0	9.878400e-01	-2.307397e-03	0.0	9.841300e-01	-3.355086e-03	0.0	9.799500e-01	-4.698031e-03	0.0	9.752800e-01	-6.309605e-03	0.0	9.701500e-01	-8.081962e-03	0.0	9.645400e-01	-9.878543e-03	0.0	9.584700e-01	-1.154560e-02	0.0	9.519400e-01	-1.298017e-02	0.0	9.449600e-01	-1.415257e-02	0.0	9.375400e-01	-1.511185e-02	0.0	9.296900e-01	-1.596008e-02	0.0	9.214000e-01	-1.681560e-02	0.0	9.127000e-01	-1.777214e-02	0.0	9.035800e-01	-1.888656e-02	0.0	8.940600e-01	-2.016689e-02	0.0	8.841500e-01	-2.158480e-02	0.0	8.738500e-01	-2.309025e-02	0.0	8.631800e-01	-2.462158e-02	0.0	8.521600e-01	-2.612039e-02	0.0	8.407700e-01	-2.754406e-02	0.0	8.290500e-01	-2.885625e-02	0.0	8.170100e-01	-3.003944e-02	0.0	8.046400e-01	-3.109054e-02	0.0	7.919700e-01	-3.201281e-02	0.0	7.790100e-01	-3.281836e-02	0.0	7.657800e-01	-3.352237e-02	0.0	7.522800e-01	-3.414207e-02	0.0	7.385200e-01	-3.469292e-02	0.0	7.245300e-01	-3.518737e-02	0.0	7.103200e-01	-3.563576e-02	0.0	6.958900e-01	-3.604565e-02	0.0	6.812700e-01	-3.642112e-02	0.0	6.664700e-01	-3.676498e-02	0.0	6.515000e-01	-3.707888e-02	0.0	6.363800e-01	-3.736397e-02	0.0	6.211300e-01	-3.762175e-02	0.0	6.057600e-01	-3.785475e-02	0.0	5.902800e-01	-3.806651e-02	0.0	5.747100e-01	-3.826155e-02	0.0	5.590600e-01	-3.844549e-02	0.0	5.433600e-01	-3.862438e-02	0.0	5.276100e-01	-3.880487e-02	0.0	5.118400e-01	-3.899310e-02	0.0	4.960500e-01	-3.919494e-02	0.0	4.802700e-01	-3.941489e-02	0.0	4.645100e-01	-3.965637e-02	0.0	4.487800e-01	-3.992129e-02	0.0	4.331100e-01	-4.020951e-02	0.0	4.175000e-01	-4.051973e-02	0.0	4.019700e-01	-4.084865e-02	0.0	3.865400e-01	-4.119144e-02	0.0	3.712300e-01	-4.154193e-02	0.0	3.560400e-01	-4.189338e-02	0.0	3.409900e-01	-4.223774e-02	0.0	3.261100e-01	-4.256620e-02	0.0	3.114000e-01	-4.287034e-02	0.0	2.968700e-01	-4.314137e-02	0.0	2.825500e-01	-4.337030e-02	0.0	2.684500e-01	-4.354885e-02	0.0	2.545700e-01	-4.366918e-02	0.0	2.409400e-01	-4.372365e-02	0.0	2.275700e-01	-4.370549e-02	0.0	2.144700e-01	-4.360845e-02	0.0	2.016600e-01	-4.342707e-02	0.0	1.891400e-01	-4.315621e-02	0.0	1.769300e-01	-4.279170e-02	0.0	1.650400e-01	-4.232983e-02	0.0	1.534900e-01	-4.176802e-02	0.0	1.422900e-01	-4.110406e-02	0.0	1.314400e-01	-4.033566e-02	0.0	1.209500e-01	-3.946159e-02	0.0	1.108500e-01	-3.848339e-02	0.0	1.011300e-01	-3.739982e-02	0.0	9.181000e-02	-3.621333e-02	0.0	8.290000e-02	-3.492645e-02	0.0	7.440000e-02	-3.354104e-02	0.0	6.633000e-02	-3.206315e-02	0.0	5.869000e-02	-3.049651e-02	0.0	5.149000e-02	-2.884764e-02	0.0	4.474000e-02	-2.712427e-02	0.0	3.844000e-02	-2.533250e-02	0.0	3.260000e-02	-2.348177e-02	0.0	2.723000e-02	-2.158273e-02	0.0	2.232000e-02	-1.963892e-02	0.0	1.790000e-02	-1.766989e-02	0.0	1.395000e-02	-1.567385e-02	0.0	1.049000e-02	-1.366630e-02	0.0	7.520000e-03	-1.165203e-02	0.0	5.040000e-03	-9.632020e-03	0.0	3.050000e-03	-7.600606e-03	0.0	1.560000e-03	-5.555616e-03	0.0	5.600000e-04	-3.449557e-03	0.0	6.000000e-05	-1.210090e-03	0.0	0.000000e+00	0.000000e+00	0.0	6.000000e-05	1.166119e-03	0.0	5.600000e-04	3.218146e-03	0.0	1.560000e-03	5.047188e-03	0.0	3.050000e-03	6.743314e-03	0.0	5.040000e-03	8.362541e-03	0.0	7.520000e-03	9.919398e-03	0.0	1.049000e-02	1.142956e-02	0.0	1.395000e-02	1.290229e-02	0.0	1.790000e-02	1.434316e-02	0.0	2.232000e-02	1.574947e-02	0.0	2.723000e-02	1.713035e-02	0.0	3.260000e-02	1.847914e-02	0.0	3.844000e-02	1.980010e-02	0.0	4.474000e-02	2.109186e-02	0.0	5.149000e-02	2.235333e-02	0.0	5.869000e-02	2.358531e-02	0.0	6.633000e-02	2.478679e-02	0.0	7.440000e-02	2.595703e-02	0.0	8.290000e-02	2.709687e-02	0.0	9.181000e-02	2.820457e-02	0.0	1.011300e-01	2.928122e-02	0.0	1.108500e-01	3.032674e-02	0.0	1.209500e-01	3.134021e-02	0.0	1.314400e-01	3.232387e-02	0.0	1.422900e-01	3.327611e-02	0.0	1.534900e-01	3.419748e-02	0.0	1.650400e-01	3.508924e-02	0.0	1.769300e-01	3.595174e-02	0.0	1.891400e-01	3.678461e-02	0.0	2.016600e-01	3.758812e-02	0.0	2.144700e-01	3.836183e-02	0.0	2.275700e-01	3.910628e-02	0.0	2.409400e-01	3.982057e-02	0.0	2.545700e-01	4.050410e-02	0.0	2.684500e-01	4.115587e-02	0.0	2.825500e-01	4.177362e-02	0.0	2.968700e-01	4.235605e-02	0.0	3.114000e-01	4.290091e-02	0.0	3.261100e-01	4.340475e-02	0.0	3.409900e-01	4.386452e-02	0.0	3.560400e-01	4.427692e-02	0.0	3.712300e-01	4.463742e-02	0.0	3.865400e-01	4.494158e-02	0.0	4.019700e-01	4.518507e-02	0.0	4.175000e-01	4.536297e-02	0.0	4.331100e-01	4.547031e-02	0.0	4.487800e-01	4.550226e-02	0.0	4.645100e-01	4.545399e-02	0.0	4.802700e-01	4.532087e-02	0.0	4.960500e-01	4.509840e-02	0.0	5.118400e-01	4.478222e-02	0.0	5.276100e-01	4.436874e-02	0.0	5.433600e-01	4.385404e-02	0.0	5.590600e-01	4.323553e-02	0.0	5.747100e-01	4.251018e-02	0.0	5.902800e-01	4.167705e-02	0.0	6.057600e-01	4.073543e-02	0.0	6.211300e-01	3.968658e-02	0.0	6.363800e-01	3.853282e-02	0.0	6.515000e-01	3.727846e-02	0.0	6.664700e-01	3.593090e-02	0.0	6.812700e-01	3.450024e-02	0.0	6.958900e-01	3.299807e-02	0.0	7.103200e-01	3.143805e-02	0.0	7.245300e-01	2.983757e-02	0.0	7.385200e-01	2.821134e-02	0.0	7.522800e-01	2.657469e-02	0.0	7.657800e-01	2.494370e-02	0.0	7.790100e-01	2.332937e-02	0.0	7.919700e-01	2.173790e-02	0.0	8.046400e-01	2.017407e-02	0.0	8.170100e-01	1.863770e-02	0.0	8.290500e-01	1.712801e-02	0.0	8.407700e-01	1.563703e-02	0.0	8.521600e-01	1.415793e-02	0.0	8.631800e-01	1.268725e-02	0.0	8.738500e-01	1.121356e-02	0.0	8.841500e-01	9.731382e-03	0.0	8.940600e-01	8.238301e-03	0.0	9.035800e-01	6.735912e-03	0.0	9.127000e-01	5.240741e-03	0.0	9.214000e-01	3.791859e-03	0.0	9.296900e-01	2.448588e-03	0.0	9.375400e-01	1.298062e-03	0.0	9.449600e-01	4.266968e-04	0.0	9.519400e-01	-9.679632e-05	0.0	9.584700e-01	-2.543650e-04	0.0	9.645400e-01	-9.678479e-05	0.0	9.701500e-01	2.628627e-04	0.0	9.752800e-01	6.784550e-04	0.0	9.799500e-01	1.018799e-03	0.0	9.841300e-01	1.197901e-03	0.0	9.878400e-01	1.196112e-03	0.0	9.910500e-01	1.046817e-03	0.0	9.937800e-01	8.109019e-04	0.0	9.960200e-01	5.521554e-04	0.0	9.977600e-01	3.205027e-04	0.0	9.990000e-01	1.448332e-04	0.0	9.997500e-01	3.632230e-05	0.0	1.000000e+00	0.000000e+00	0.0	1.984229e+01	2.506660e+00	0.0	1.937166e+01	4.973800e+00	0.0	1.859553e+01	7.362490e+00	0.0	1.752613e+01	9.635070e+00	0.0	1.618034e+01	1.175571e+01	0.0	1.457937e+01	1.369094e+01	0.0	1.274848e+01	1.541027e+01	0.0	1.071654e+01	1.688656e+01	0.0	8.515590e+00	1.809654e+01	0.0	6.180340e+00	1.902113e+01	0.0	3.747630e+00	1.964575e+01	0.0	1.255810e+00	1.996053e+01	0.0	-1.255810e+00	1.996053e+01	0.0	-3.747630e+00	1.964574e+01	0.0	-6.180340e+00	1.902113e+01	0.0	-8.515590e+00	1.809654e+01	0.0	-1.071654e+01	1.688656e+01	0.0	-1.274848e+01	1.541026e+01	0.0	-1.457937e+01	1.369094e+01	0.0	-1.618034e+01	1.175570e+01	0.0	-1.752613e+01	9.635070e+00	0.0	-1.859553e+01	7.362490e+00	0.0	-1.937166e+01	4.973800e+00	0.0	-1.984229e+01	2.506660e+00	0.0	-2.000000e+01	0.000000e+00	0.0	-1.984229e+01	-2.506670e+00	0.0	-1.937166e+01	-4.973800e+00	0.0	-1.859553e+01	-7.362490e+00	0.0	-1.752613e+01	-9.635080e+00	0.0	-1.618034e+01	-1.175571e+01	0.0	-1.457937e+01	-1.369094e+01	0.0	-1.274848e+01	-1.541027e+01	0.0	-1.071653e+01	-1.688656e+01	0.0	-8.515580e+00	-1.809654e+01	0.0	-6.180340e+00	-1.902113e+01	0.0	-3.747620e+00	-1.964575e+01	0.0	-1.255810e+00	-1.996053e+01	0.0	1.255810e+00	-1.996053e+01	0.0	3.747630e+00	-1.964574e+01	0.0	6.180340e+00	-1.902113e+01	0.0	8.515590e+00	-1.809654e+01	0.0	1.071654e+01	-1.688656e+01	0.0	1.274848e+01	-1.541026e+01	0.0	1.457937e+01	-1.369094e+01	0.0	1.618034e+01	-1.175570e+01	0.0	1.752614e+01	-9.635070e+00	0.0	1.859553e+01	-7.362490e+00	0.0	1.937166e+01	-4.973790e+00	0.0	1.984229e+01	-2.506660e+00	0.0	2.000000e+01	0.000000e+00	0.0	6.108541e-02	-3.816333e-02	0.0	6.596174e-01	-5.067769e-02	0.0	4.254820e-01	5.960065e-02	0.0	6.898002e-01	4.694690e-02	0.0	3.791920e-01	-5.564191e-02	0.0	9.994689e-01	-7.249919e-04	0.0	9.985588e-01	-1.332430e-03	0.0	7.734187e-01	-4.509995e-02	0.0	6.892985e-01	-4.964162e-02	0.0	-8.297898e-04	4.944320e-03	0.0	7.463103e-01	-4.691007e-02	0.0	5.833278e-01	5.609689e-02	0.0	9.928466e-01	-3.842734e-03	0.0	9.899844e-01	-4.960798e-03	0.0	5.989133e-01	5.512277e-02	0.0	7.182380e-01	-4.839738e-02	0.0	-1.259715e-03	5.821959e-04	0.0	9.866440e-01	-6.298211e-03	0.0	9.828300e-01	-7.863250e-03	0.0	-9.284974e-04	-5.358126e-03	0.0	6.445388e-01	-5.112726e-02	0.0	8.242640e-01	-4.018666e-02	0.0	7.994358e-01	-4.289209e-02	0.0	3.484140e-01	5.784135e-02	0.0	8.477562e-01	-3.701443e-02	0.0	2.473351e-01	5.272583e-02	0.0	8.698461e-01	-3.351075e-02	0.0	1.069246e-02	1.538808e-02	0.0	8.904307e-01	-2.996748e-02	0.0	7.735918e-02	-4.190575e-02	0.0	9.094522e-01	-2.669699e-02	0.0	-1.478880e-03	-2.676827e-03	0.0	9.425479e-01	-2.092849e-02	0.0	9.268504e-01	-2.378813e-02	0.0	1.834934e-02	-2.266162e-02	0.0	4.256821e-01	-5.492892e-02	0.0	8.589857e-01	-3.528622e-02	0.0	9.564613e-01	-1.760413e-02	0.0	9.785308e-01	-9.668187e-03	0.0	9.684785e-01	-1.366791e-02	0.0	1.586193e-01	-5.258908e-02	0.0	9.001425e-01	-2.828436e-02	0.0	7.599953e-01	-4.605012e-02	0.0	9.971456e-01	-2.101181e-03	0.0	5.985333e-01	-5.223436e-02	0.0	4.413402e-01	-5.468697e-02	0.0	5.359436e-01	-5.329674e-02	0.0	4.728215e-01	-5.421436e-02	0.0	5.043907e-01	-5.375606e-02	0.0	4.885945e-01	-5.398291e-02	0.0	1.252952e-01	-4.941930e-02	0.0	2.822693e-02	-2.739626e-02	0.0	3.945960e-01	-5.541127e-02	0.0	4.657422e-02	-3.407747e-02	0.0	4.100940e-01	-5.517271e-02	0.0	3.189294e-01	-5.636684e-02	0.0	3.487594e-01	-5.606229e-02	0.0	3.387968e-02	-2.967391e-02	0.0	2.897806e-01	-5.650460e-02	0.0	9.349173e-01	-2.238420e-02	0.0	1.471574e-01	-5.164160e-02	0.0	1.950012e-01	-5.476481e-02	0.0	8.613290e-02	-4.362778e-02	0.0	1.049271e-01	-4.675407e-02	0.0	5.673664e-01	-5.281222e-02	0.0	1.704241e-01	-5.342607e-02	0.0	6.139886e-01	-5.189987e-02	0.0	8.803344e-01	-3.172379e-02	0.0	2.306056e-02	-2.505441e-02	0.0	9.952398e-01	-2.914724e-03	0.0	7.154751e-03	-1.536566e-02	0.0	1.868953e-02	1.918581e-02	0.0	9.183568e-01	-2.520697e-02	0.0	9.49
[...]
POINT_DATA 5233

SCALARS Conservative_1 float 1
LOOKUP_TABLE default
1.194907e+00	1.179146e+00	1.172157e+00	1.169527e+00	1.168202e+00	1.165330e+00	1.157016e+00	1.140425e+00	1.113032e+00	1.074325e+00	1.024651e+00	9.627704e-01	9.067968e-01	8.847084e-01	8.955986e-01	9.233775e-01	9.534474e-01	9.754724e-01	9.862665e-01	9.866614e-01	9.783685e-01	9.635526e-01	9.446063e-01	9.233603e-01	8.996992e-01	8.736856e-01	8.503780e-01	8.363733e-01	8.333593e-01	8.385904e-01	8.482119e-01	8.591991e-01	8.698623e-01	8.792961e-01	8.873590e-01	8.941359e-01	8.998620e-01	9.048192e-01	9.092232e-01	9.133331e-01	9.172844e-01	9.212141e-01	9.251397e-01	9.290689e-01	9.329200e-01	9.366178e-01	9.400395e-01	9.430908e-01	9.456556e-01	9.476512e-01	9.489845e-01	9.496055e-01	9.494634e-01	9.485416e-01	9.468247e-01	9.443220e-01	9.410450e-01	9.370251e-01	9.323048e-01	9.269316e-01	9.209794e-01	9.144615e-01	9.073722e-01	8.996786e-01	8.916090e-01	8.835358e-01	8.756155e-01	8.670796e-01	8.565440e-01	8.433379e-01	8.296574e-01	8.192248e-01	8.141532e-01	8.139479e-01	8.171266e-01	8.223807e-01	8.292313e-01	8.375689e-01	8.472432e-01	8.581617e-01	8.703420e-01	8.837498e-01	8.984481e-01	9.144351e-01	9.317723e-01	9.505701e-01	9.708618e-01	9.927787e-01	1.016546e+00	1.042248e+00	1.070257e+00	1.101084e+00	1.135097e+00	1.173172e+00	1.215732e+00	1.262045e+00	1.307460e+00	1.347990e+00	1.347995e+00	1.321555e+00	1.296577e+00	1.222679e+00	1.088539e+00	9.925161e-01	9.284207e-01	8.887680e-01	8.649148e-01	8.498268e-01	8.394580e-01	8.320227e-01	8.265577e-01	8.223988e-01	8.192992e-01	8.169227e-01	8.151926e-01	8.141649e-01	8.137105e-01	8.136946e-01	8.141196e-01	8.151220e-01	8.169978e-01	8.199122e-01	8.237064e-01	8.279419e-01	8.321785e-01	8.361375e-01	8.396406e-01	8.425440e-01	8.448177e-01	8.465760e-01	8.479530e-01	8.490079e-01	8.497127e-01	8.500094e-01	8.498662e-01	8.492658e-01	8.482195e-01	8.467356e-01	8.448174e-01	8.424721e-01	8.396872e-01	8.364586e-01	8.328502e-01	8.289886e-01	8.249729e-01	8.208353e-01	8.165597e-01	8.124119e-01	8.091973e-01	8.086427e-01	8.128561e-01	8.229695e-01	8.371114e-01	8.508321e-01	8.609602e-01	8.682236e-01	8.749872e-01	8.830382e-01	8.928493e-01	9.037986e-01	9.151432e-01	9.265845e-01	9.380576e-01	9.494490e-01	9.605010e-01	9.710200e-01	9.808149e-01	9.897973e-01	9.978726e-01	1.005118e+00	1.011604e+00	1.017505e+00	1.023060e+00	1.028532e+00	1.034223e+00	1.040463e+00	1.047625e+00	1.056195e+00	1.066673e+00	1.079566e+00	1.094970e+00	1.112357e+00	1.130263e+00	1.146686e+00	1.159277e+00	1.165729e+00	1.164025e+00	1.152860e+00	1.132092e+00	1.104070e+00	1.075002e+00	1.052668e+00	1.044514e+00	1.053646e+00	1.075727e+00	1.102831e+00	1.129812e+00	1.156211e+00	1.184505e+00	1.174606e+00	9.999828e-01	9.999865e-01	9.999802e-01	9.999681e-01	9.999565e-01	9.999428e-01	9.999208e-01	9.998874e-01	9.998483e-01	9.998134e-01	9.997887e-01	9.997931e-01	9.998273e-01	9.998983e-01	9.999597e-01	1.000009e+00	1.000035e+00	1.000050e+00	1.000058e+00	1.000061e+00	1.000061e+00	1.000061e+00	1.000060e+00	1.000061e+00	1.000061e+00	1.000063e+00	1.000067e+00	1.000071e+00	1.000077e+00	1.000086e+00	1.000096e+00	1.000109e+00	1.000120e+00	1.000134e+00	1.000140e+00	1.000135e+00	1.000120e+00	1.000098e+00	1.000082e+00	1.000073e+00	1.000072e+00	1.000070e+00	1.000066e+00	1.000059e+00	1.000049e+00	1.000036e+00	1.000029e+00	1.000023e+00	1.000002e+00	9.999790e-01	9.211677e-01	9.129685e-01	8.268555e-01	9.358248e-01	9.390911e-01	1.179021e+00	1.171988e+00	8.597372e-01	9.044021e-01	1.217988e+00	8.787196e-01	8.706835e-01	1.156893e+00	1.149757e+00	8.770646e-01	8.935325e-01	1.316499e+00	1.137665e+00	1.118468e+00	1.326894e+00	9.168632e-01	8.506058e-01	8.432410e-01	8.442225e-01	8.943369e-01	8.528188e-01	9.376338e-01	9.041203e-01	9.692892e-01	8.904130e-01	9.821657e-01	1.344722e+00	9.231285e-01	9.649992e-01	1.076659e+00	9.472120e-01	9.178547e-01	9.186999e-01	1.091091e+00	1.009844e+00	8.212390e-01	9.789884e-01	8.695850e-01	1.165282e+00	9.281599e-01	9.484585e-01	9.416965e-01	9.487812e-01	9.463782e-01	9.479024e-01	8.357234e-01	1.023156e+00	9.425159e-01	9.572736e-01	9.452279e-01	9.190978e-01	9.302499e-01	9.994676e-01	9.057183e-01	9.451532e-01	8.238203e-01	8.415046e-01	8.769470e-01	8.536823e-01	9.353782e-01	8.226929e-01	9.244239e-01	9.548815e-01	1.048801e+00	1.161345e+00	1.176689e+00	8.659742e-01	9.776409e-01	9.099506e-01	1.055658e+00	1.129671e+00	8.695350e-01	8.832855e-01	9.386994e-01	8.866954e-01	8.502292e-01	8.439862e-01	8.670449e-01	9.318400e-01	9.088775e-01	9.385239e-01	1.215941e+00	1.107032e+00	9.349858e-01	8.296254e-01	1.205248e+00	8.759352e-01	8.647084e-01	9.127055e-01	8.905956e-01	9.489786e-01	8.993741e-01	1.286295e+00	1.296502e+00	8.342897e-01	1.331571e+00	8.456367e-01	8.268332e-01	8.338369e-01	8.275281e-01	8.307143e-01	1.121214e+00	8.214834e-01	8.151085e-01	1.112766e+00	1.143687e+00	1.063295e+00	8.129820e-01	8.228757e-01	8.380635e-01	1.116639e+00	1.087367e+00	8.225985e-01	1.091947e+00	1.149512e+00	1.141777e+00	8.230244e-01	8.247332e-01	8.516057e-01	8.528375e-01	8.451866e-01	8.487165e-01	8.188179e-01	8.344746e-01	8.387987e-01	8.311145e-01	8.926376e-01	8.492580e-01	8.516472e-01	9.138578e-01	8.621396e-01	9.773319e-01	9.574125e-01	1.008832e+00	9.945264e-01	1.032653e+00	1.021025e+00	1.074438e+00	1.045876e+00	1.148571e+00	1.101752e+00	1.131040e+00	1.038916e+00	1.053884e+00	1.015108e+00	1.026785e+00	9.863063e-01	1.002026e+00	9.467255e-01	9.676638e-01	9.029154e-01	9.248591e-01	8.494801e-01	8.839327e-01	8.506035e-01	8.524057e-01	8.422550e-01	8.475037e-01	8.298213e-01	8.350079e-01	8.818107e-01	8.390083e-01	8.552410e-01	9.840487e-01	9.565269e-01	8.421435e-01	9.249340e-01	9.442883e-01	1.049432e+00	8.543280e-01	9.364531e-01	8.224070e-01	8.233700e-01	8.524324e-01	8.247221e-01	1.073762e+00	1.063697e+00	8.503620e-01	1.065625e+00	1.078754e+00	8.466751e-01	8.413465e-01	1.130564e+00	1.200235e+00	1.144296e+00	1.164877e+00	9.206555e-01	9.775560e-01	1.098850e+00	8.144417e-01	1.257276e+00	1.140354e+00	9.051373e-01	8.289370e-01	8.982022e-01	8.334840e-01	1.196950e+00	1.259719e+00	9.045819e-01	9.041173e-01	9.762106e-01	1.169995e+00	8.720351e-01	9.086341e-01	8.616290e-01	1.132775e+00	9.232249e-01	9.135375e-01	8.709768e-01	8.844281e-01	1.301005e+00	8.664169e-01	1.106790e+00	9.621018e-01	8.324312e-01	8.989583e-01	9.166005e-01	9.480810e-01	8.977953e-01	9.407107e-01	9.712795e-01	8.547855e-01	9.680963e-01	8.904819e-01	9.237959e-01	1.030874e+00	8.331243e-01	9.342566e-01	8.481712e-01	1.051612e+00	1.077850e+00	8.487228e-01	8.238273e-01	1.135416e+00	1.060144e+00	1.083753e+00	1.133566e+00	1.088991e+00	8.558212e-01	8.508679e-01	8.553581e-01	8.315568e-01	9.127659e-01	8.546001e-01	9.347126e-01	8.420668e-01	8.431190e-01	1.115813e+00	1.096600e+00	1.069836e+00	8.309583e-01	1.209399e+00	1.131369e+00	1.113044e+00	1.012345e+00	1.129879e+00	1.204243e+00	1.331149e+00	1.319428e+00	1.078296e+00	1.212054e+00	9.281149e-01	1.161917e+00	1.150345e+00	8.329877e-01	9.404009e-01	1.117849e+00	9.478224e-01	8.793603e-01	1.143240e+00	1.324575e+00	9.472450e-01	8.365326e-01	8.918098e-01	8.550564e-01	9.320874e-01	9.612210e-01	9.123462e-01	9.765619e-01	9.698230e-01	9.343424e-01	1.027400e+00	9.381607e-01	1.000309e+00	1.097035e+00	8.436302e-01	8.785101e-01	8.700804e-01	1.156069e+00	9.482517e-01	9.477850e-01	9.466988e-01	1.052019e+00	9.435609e-01	9.457453e-01	9.284253e-01	9.833193e-01	9.581647e-01	9.441735e-01	8.370370e-01	8.722288e-01	9.374903e-01	9.274741e-01	1.038422e+00	1.070529e+00	8.930791e-01	8.862996e-01	8.613387e-01	8.517717e-01	9.343249e-01	9.309486e-01	9.636133e-01	9.452237e-01	1.137252e+00	9.330914e-01	9.372113e-01	8.343303e-01	8.427600e-01	8.760301e-01	8.835746e-01	9.113194e-01	9.175498e-01	8.904806e-01	1.301903e+00	1.239724e+00	8.485722e-01	1.079700e+00	8.339564e-01	8.193381e-01	8.193957e-01	8.219963e-01	1.102214e+00	1.126831e+00	1.104575e+00	8.256074e-01	8.293375e-01	8.399887e-01	1.092479e+00	1.132589e+00	8.357601e-01	8.389036e-01	8.559464e-01	8.556909e-01	8.452937e-01	8.387875e-01	8.356797e-01	1.005960e+00	9.742005e-01	9.647713e-01	9.989501e-01	1.024810e+00	1.080672e+00	1.044029e+00	1.037195e+00	1.018802e+00	1.012578e+00	9.913037e-01	9.830528e-01	9.548786e-01	9.446484e-01	9.133154e-01	9.030531e-01	8.616503e-01	8.479660e-01	8.937111e-01	8.859385e-01	8.545941e-01	8.535732e-01	8.522482e-01	8.504965e-01	9.096846e-01	8.555962e-01	8.645485e-01	8.521065e-01	8.569342e-01	9.450780e-01	9.429434e-01	1.067820e+00	8.758649e-01	8.312041e-01	8.319202e-01	8.526367e-01	8.540310e-01	8.432564e-01	8.461947e-01	1.125803e+00	1.116067e+00	9.239070e-01	9.203082e-01	1.004505e+00	1.273835e+00	8.974793e-01	1.298251e+00	9.420686e-01	9.104045e-01	8.664865e-01	9.417673e-01	9.725117e-01	1.089571e+00	1.086689e+00	1.120194e+00	1.078944e+00	1.098074e+00	1.149100e+00	1.174361e+00	1.151616e+00	1.194969e+00	1.079864e+00	1.281348e+00	8.926800e-01	9.665813e-01	1.129594e+00	8.734943e-01	1.170205e+00	1.193368e+00	9.041591e-01	1.252784e+00	8.991069e-01	1.105985e+00	9.434743e-01	1.163169e+00	9.269755e-01	9.288697e-01	9.086969e-01	1.138791e+00	1.134048e+00	1.096278e+00	8.356881e-01	1.123088e+00	9.238460e-01	1.110198e+00	8.280684e-01	8.585443e-01	8.532081e-01	8.514269e-01	8.461989e-01	1.162962e+00	1.274682e+00	1.180617e+00	9.318732e-01	1.237051e+00	9.985302e-01	9.058941e-01	1.311958e+00	8.416480e-01	9.476793e-01	1.055148e+00	9.904998e-01	1.029084e+00	1.003525e+00	9.337903e-01	1.089256e+00	1.123399e+00	1.065486e+00	1.056879e+00	8.550515e-01	8.577269e-01	8.589418e-01	8.399376e-01	9.165853e-01	9.127869e-01	8.659996e-01	9.580187e-01	8.486372e-01	1.105213e+00	1.122317e+00	1.031065e+00	1.130004e+00	1.223634e+00	1.308312e+00	1.031617e+00	1.180637e+00	1.173882e+00	1.029495e+00	1.117801e+00	8.821483e-01	9.471958e-01	8.391197e-01	8.916277e-01	9.113279e-01	9.558653e-01	9.658187e-01	9.357159e-01	9.202551e-01	9.722950e-01	9.746295e-01	9.552456e-01	9.708308e-01	1.102190e+00	8.796131e-01	8.725298e-01	1.144975e+00	9.475691e-01	9.468551e-01	9.444036e-01	9.460993e-01	1.009862e+00	9.586485e-01	9.528960e-01	8.522781e-01	8.458382e-01	9.392785e-01	9.365047e-01	1.057571e+00	1.081882e+00	8.933290e-01	8.868165e-01	8.806424e-01	8.696347e-01	8.601109e-01	9.334809e-01	9.303057e-01	9.896836e-01	9.705091e-01	9.524326e-01	9.315191e-01	9.356073e-01	9.391223e-01	8.416060e-01	8.462318e-01	8.551830e-01	8.761256e-01	8.842170e-01	9.164314e-01	9.219216e-01	8.910442e-01	8.622920e-01	8.253699e-01	8.262533e-01	1.113788e+00	8.290728e-01	8.324420e-01	8.358142e-01	8.423438e-01	1.094819e+00	8.503785e-01	8.556750e-01	8.590051e-01	8.591382e-01	8.457923e-01	8.433486e-01	8.413239e-01	9.720370e-01	1.084785e+00	1.074790e+00	1.049054e+00	1.041943e+00	1.035421e+00	1.022861e+00	1.016678e+00	1.010271e+00	9.964435e-01	9.888365e-01	9.806751e-01	9.629347e-01	9.534348e-01	9.436982e-01	9.139117e-01	8.614167e-01	8.478623e-01	9.044149e-01	8.959730e-01	8.888964e-01	8.584680e-01	8.577277e-01	8.567544e-01	8.554708e-01	8.537426e-01	8.706936e-01	8.814041e-01	8.630865e-01	8.652803e-01	8.748363e-01	9.456340e-01	9.438960e-01	8.947235e-01	9.111123e-01	8.396982e-01	8.408463e-01	8.430557e-01	8.565705e-01	8.454971e-01	8.484602e-01	8.510453e-01	1.119437e+00	1.112991e+00	1.104541e+00	9.270073e-01	9.236375e-01	9.201668e-01	8.974746e-01	9.040367e-01	1.273261e+00	9.014818e-01	1.116928e+00	1.094718e+00	9.408437e-01	1.255131e+00	1.156715e+00	9.719468e-01	9.687667e-01	1.035100e+00	1.099216e+00	8.346096e-01	1.251058e+00	9.779638e-01	1.180780e+00	1.112688e+00	1.107262e+00	1.166464e+00	9.239938e-01	1.126129e+00	1.179288e+00	1.181693e+00	8.731370e-01	8.531218e-01	1.080469e+00	9.431464e-01	9.145140e-01	9.469564e-01	9.158953e-01	1.092581e+00	8.737136e-01	1.113517e+00	1.111939e+00	1.001607e+00	8.553434e-01	8.623174e-01	1.116858e+00	8.616371e-01	9.415251e-01	1.135090e+00	1.093934e+00	1.141491e+00	1.048693e+00	1.103967e+00	9.089332e-01	1.206931e+00	9.049718e-01	8.995036e-01	1.129186e+00	1.126657e+00	1.155002e+00	1.027036e+00	8.382247e-01	8.594527e-01	1.213077e+00	1.008608e+00	9.342464e-01	1.061809e+00	8.579023e-01	8.607268e-01	8.616739e-01	9.166606e-01	9.133357e-01	1.099312e+00	1.043914e+00	1.084316e+00	1.231712e+00	1.284712e+00	1.057220e+00	1.025431e+00	1.104285e+00	8.855544e-01	9.121275e-01	9.279676e-01	9.528526e-01	9.622377e-01	9.435177e-01	9.285082e-01	9.690513e-01	9.729875e-01	9.738201e-01	9.816287e-01	1.001603e+00	8.817963e-01	8.782555e-01	1.134805e+00	9.471588e-01	9.467988e-01	9.449660e-01	9.462302e-01	9.667824e-01	9.699450e-01	8.623837e-01	8.557959e-01	9.385219e-01	1.069892e+00	1.088665e+00	8.947506e-01	8.881185e-01	8.894830e-01	8.788687e-01	8.700735e-01	9.357354e-01	9.330343e-01	1.015211e+00	9.957830e-01	9.769121e-01	9.594487e-01	9.303311e-01	9.343025e-01	9.377405e-01	9.407155e-01	8.543127e-01	8.595206e-01	8.676718e-01	8.769650e-01	8.852540e-01	9.259806e-01	9.211117e-01	8.923368e-01	8.326300e-01	1.104740e+00	1.109562e+00	8.340366e-01	8.365926e-01	8.395542e-01	8.425285e-01	8.454714e-01	8.683064e-01	8.765018e-01	8.626521e-01	8.627224e-01	8.529277e-01	8.508254e-01	8.494912e-01	8.487181e-01	1.086872e+00	1.078375e+00	1.070010e+00	1.054090e+00	1.046962e+00	1.040355e+00	1.033205e+00	1.021618e+00	1.014579e+00	1.008240e+00	9.943182e-01	9.869789e-01	9.787815e-01	9.707116e-01	9.615639e-01	9.529549e-01	9.430973e-01	8.491873e-01	8.605669e-01	9.154581e-01	9.058512e-01	8.993002e-01	8.916131e-01	8.625046e-01	8.620422e-01	8.612905e-01	8.603074e-01	8.590471e-01	8.573685e-01	8.859790e-01	8.978676e-01	8.757668e-01	8.822799e-01	8.951543e-01	9.459062e-01	9.447088e-01	9.429679e-01	9.128875e-01	9.307275e-01	9.519088e-01	8.487275e-01	8.499579e-01	8.528517e-01	8.567567e-01	8.483373e-01	8.511402e-01	8.538434e-01	8.560284e-01	1.094941e+00	1.107977e+00	1.102293e+00	9.298329e-01	9.269595e-01	9.234872e-01	9.204673e-01	8.984097e-01	9.044201e-01	9.102153e-01	1.124208e+00	1.113744e+00	1.044016e+00	1.170057e+00	1.147145e+00	9.038627e-01	9.109615e-01	1.169508e+00	1.096601e+00	1.213009e+00	1.058698e+00	8.661193e-01	8.600350e-01	1.022824e+00	1.122087e+00	1.225963e+00	1.288009e+00	1.289548e+00	1.274397e+00	1.230247e+00	1.135666e+00	8.629576e-01	1.061873e+00	1.115968e+00	9.778141e-01	8.850627e-01	9.440686e-01	1.105112e+00	1.087728e+00	1.102201e+00	8.665763e-01	8.482404e-01	9.295186e-01	9.960654e-01	8.417545e-01	9.412438e-01	8.607367e-01	1.099765e+00	9.237165e-01	1.156204e+00	1.095419e+00	1.284194e+00	1.176892e+00	1.168932e+00	9.753411e-01	1.039102e+00	1.248342e+00	9.945573e-01	1.191753e+00	1.105118e+00	1.155483e+00	1.170723e+00	1.171522e+00	1.102063e+00	9.250640e-01	9.206691e-01	1.096351e+00	8.863184e-01	1.104631e+00	1.105397e+00	9.119748e-01	1.192256e+00	8.637187e-01	8.653263e-01	8.655339e-01	9.190428e-01	1.053576e+00	1.087192e+00	1.259600e+00	1.080776e+00	9.299810e-01	9.406582e-01	9.516974e-01	9.604112e-01	9.372218e-01	9.522493e-01	9.676919e-01	9.723518e-01	9.751216e-01	9.763107e-01	1.006924e+00	1.025285e+00	8.889698e-01	1.124447e+00	9.467235e-01	9.466545e-01	9.453334e-01	9.461439e-01	9.820458e-01	9.915966e-01	8.727203e-01	8.656396e-01	1.078404e+00	1.093010e+00	8.964082e-01	8.989562e-01	8.877010e-01	8.818585e-01	9.366609e-01	1.020358e+00	1.001700e+00	9.836569e-01	9.677776e-01	9.293883e-01	9.331408e-01	9.365573e-01	9.395266e-01	9.419479e-01	8.657435e-01	8.717553e-01	8.776539e-01	8.860172e-01	8.929078e-01	1.099080e+00	1.101882e+00	1.104107e+00	8.396266e-01	8.423633e-01	8.436111e-01	8.470815e-01	8.488296e-01	8.815077e-01	8.909795e-01	8.666330e-01	8.663385e-01	8.573935e-01	8.576177e-01	8.577000e-01	1.079901e+00	1.073154e+00	1.065381e+00	1.058366e+00	1.051193e+00	1.044671e+00	1.037730e+00	1.028284e+00	1.019711e+00	1.009233e+00	9.813126e-01	9.651548e-01	9.477227e-01	9.126236e-01	8.989810e-01	8.669511e-01	8.661245e-01	8.662634e-01	8.648609e-01	8.647298e-01	8.634275e-01	8.618576e-01	9.020157e-01	9.145560e-01	8.906174e-01	8.985276e-01	9.143032e-01	9.460136e-01	9.444376e-01	9.300822e-01	9.490563e-01	9.700929e-01	8.584237e-01	8.601853e-01	8.634961e-01	8.689191e-01	8.747961e-01	8.521335e-01	8.538503e-01	8.568967e-01	8.595329e-01	1.098697e+00	1.092509e+00	9.312625e-01	9.253974e-01	8.996995e-01	9.050058e-01	9.107758e-01	9.155376e-01	1.163103e+00	1.143316e+00	1.158529e+00	1.245433e+00	1.174410e+00	1.070851e+00	1.099466e+00	1.174469e+00	1.098203e+00	1.137582e+00	1.095780e+00	1.237633e+00	1.060184e+00	1.138872e+00	8.652976e-01	1.171126e+00	1.060227e+00	1.145035e+00	1.118913e+00	1.056795e+00	9.431162e-01	1.096860e+00	9.265691e-01	9.913393e-01	9.833118e-01	9.299357e-01	9.205635e-01	8.773130e-01	1.210554e+00	9.450645e-01	9.474364e-01	9.341746e-01	8.651343e-01	1.095893e+00	1.082402e+00	1.202373e+00	1.033444e+00	1.042068e+00	1.162740e+00	1.095718e+00	1.285248e+00	1.225697e+00	1.106211e+00	9.048666e-01	8.528120e-01	8.481082e-01	1.103632e+00	1.167246e+00	1.118839e+00	1.262348e+00	1.171693e+00	1.042723e+00	1.195293e+00	1.177510e+00	8.833251e-01	1.079652e+00	1.098099e+00	1.095816e+00	8.649182e-01	8.679747e-01	8.697607e-01	9.115419e-01	1.088421e+00	1.117172e+00	1.099899e+00	9.470804e-01	9.633457e-01	9.608012e-01	9.748798e-01	9.803335e-01	1.026983e+00	1.115223e+00	9.462895e-01	1.000482e+00	1.012546e+00	8.804487e-01	1.083892e+00	8.989070e-01	8.954463e-01	9.040354e-01	8.920237e-01	9.396815e-01	1.025211e+00	1.006667e+00	9.896495e-01	9.779101e-01	9.338373e-01	9.396053e-01	9.431655e-01	8.839564e-01	8.966197e-01	1.096771e+00	1.097743e+00	8.503395e-01	8.545063e-01	9.055582e-01	8.707123e-01	8.667369e-01	1.015636e+00	1.070677e+00	1.057553e+00	1.044887e+00	1.034096e+00	1.025055e+00	1.004082e+00	9.907479e-01	9.761328e-01	9.603429e-01	9.433204e-01	9.264869e-01	9.123295e-01	8.996567e-01	8.708017e-01	8.700833e-01	8.695390e-01	8.674608e-01	8.670227e-01	9.182679e-01	9.315144e-01	8.984766e-01	9.105416e-01	9.312076e-01	9.462427e-01	9.451866e-01	9.467265e-01	9.654299e-01	9.863068e-01	1.008511e+00	8.686630e-01	8.709672e-01	8.747050e-01	8.807667e-01	8.892399e-01	8.939587e-01	8.586251e-01	8.627575e-01	1.094914e+00	1.090161e+00	9.351177e-01	9.243473e-01	9.182635e-01	9.085976e-01	9.182208e-01	1.108263e+00	1.161999e+00	1.157762e+00	1.125551e+00	1.004714e+00	1.101588e+00	1.167393e+00	1.131640e+00	1.164366e+00	1.113949e+00	1.144404e+00	1.121950e+00	1.088384e+00	1.182357e+00	1.216941e+00	1.093321e+00	9.076612e-01	8.687481e-01	1.114987e+00	9.825815e-01	1.078614e+00	9.141843e-01	1.064886e+00	1.148193e+00	9.442749e-01	1.006851e+00	9.290534e-01	9.419701e-01	1.065733e+00	1.077001e+00	1.061541e+00	1.046489e+00	1.163961e+00	1.095771e+00	1.098030e+00	1.092588e+00	8.733900e-01	8.986145e-01	9.181591e-01	9.686365e-01	1.140096e+00	1.147799e+00	1.261458e+00	1.053778e+00	1.092982e+00	1.168948e+00	1.087698e+00	1.159377e+00	1.130932e+00	9.443969e-01	1.205368e+00	9.587986e-01	9.432501e-01	1.094376e+00	1.221861e+00	1.041569e+00	1.097509e+00	9.125036e-01	1.238764e+00	1.170548e+00	9.845268e-01	1.192749e+00	1.179260e+00	8.668619e-01	1.096549e+00	1.090856e+00	8.818643e-01	8.712541e-01	9.126133e-01	1.112143e+00	1.135467e+00	9.609261e-01	9.734634e-01	9.885461e-01	9.962691e-01	1.107168e+00	9.456990e-01	1.017667e+00	1.029274e+00	9.417975e-01	9.157215e-01	9.313119e-01	9.049644e-01	9.282905e-01	9.135220e-01	9.007644e-01	1.028591e+00	9.317561e-01	9.375860e-01	8.917077e-01	8.898606e-01	9.237873e-01	1.093658e+00	8.581195e-01	8.563360e-01	8.758054e-01	1.073159e+00	1.062123e+00	1.021208e+00	1.050472e+00	1.039695e+00	1.030249e+00	1.011038e+00	9.991101e-01	9.858471e-01	9.715781e-01	9.561342e-01	9.400042e-01	9.253140e-01	8.748608e-01	8.756875e-01	8.758914e-01	8.754917e-01	8.736960e-01	8.740066e-01	9.334649e-01	9.481252e-01	9.068357e-01	9.471425e-01	9.462635e-01	9.457796e-01	9.627181e-01	9.799970e-01	9.999488e-01	1.020265e+00	1.041891e+00	8.796468e-01	8.835499e-01	8.871888e-01	8.929325e-01	9.018554e-01	8.587323e-01	8.621643e-01	8.657085e-01	1.088187e+00	1.081921e+00	9.383925e-01	9.339559e-01	8.962345e-01	9.068998e-01	9.168830e-01	9.248831e-01	1.142899e+00	1.150121e+00	1.147505e+00	1.110646e+00	1.145976e+00	1.129002e+00	1.106919e+00	1.021303e+00	1.166481e+00	1.114846e+00	1.111628e+00	1.051550e+00	1.157981e+00	1.089134e+00	8.790882e-01	1.133379e+00	1.137523e+00	1.108296e+00	1.162658e+00	1.068149e+00	9.108660e-01	1.007569e+00	9.914912e-01	9.140035e-01	1.128939e+00	1.122330e+00	1.118631e+00	1.166725e+00	1.151973e+00	8.983247e-01	9.