# vtk DataFile Version 3.0
vtk output
ASCII
DATASET UNSTRUCTURED_GRID
POINTS 200 float
9.997500e-01	-3.633566e-05	0.0	9.990000e-01	-1.456763e-04	0.0	9.977600e-01	-3.297371e-04	0.0	9.960200e-01	-6.019028e-04	0.0	9.937800e-01	-9.900106e-04	0.0	9.910500e-01	-1.539289e-03	0.0	9.878400e-01	-2.307397e-03	0.0	9.841300e-01	-3.355086e-03	0.0	9.799500e-01	-4.698031e-03	0.0	9.752800e-01	-6.309605e-03	0.0	9.701500e-01	-8.081962e-03	0.0	9.645400e-01	-9.878543e-03	0.0	9.584700e-01	-1.154560e-02	0.0	9.519400e-01	-1.298017e-02	0.0	9.449600e-01	-1.415257e-02	0.0	9.375400e-01	-1.511185e-02	0.0	9.296900e-01	-1.596008e-02	0.0	9.214000e-01	-1.681560e-02	0.0	9.127000e-01	-1.777214e-02	0.0	9.035800e-01	-1.888656e-02	0.0	8.940600e-01	-2.016689e-02	0.0	8.841500e-01	-2.158480e-02	0.0	8.738500e-01	-2.309025e-02	0.0	8.631800e-01	-2.462158e-02	0.0	8.521600e-01	-2.612039e-02	0.0	8.407700e-01	-2.754406e-02	0.0	8.290500e-01	-2.885625e-02	0.0	8.170100e-01	-3.003944e-02	0.0	8.046400e-01	-3.109054e-02	0.0	7.919700e-01	-3.201281e-02	0.0	7.790100e-01	-3.281836e-02	0.0	7.657800e-01	-3.352237e-02	0.0	7.522800e-01	-3.414207e-02	0.0	7.385200e-01	-3.469292e-02	0.0	7.245300e-01	-3.518737e-02	0.0	7.103200e-01	-3.563576e-02	0.0	6.958900e-01	-3.604565e-02	0.0	6.812700e-01	-3.642112e-02	0.0	6.664700e-01	-3.676498e-02	0.0	6.515000e-01	-3.707888e-02	0.0	6.363800e-01	-3.736397e-02	0.0	6.211300e-01	-3.762175e-02	0.0	6.057600e-01	-3.785475e-02	0.0	5.902800e-01	-3.806651e-02	0.0	5.747100e-01	-3.826155e-02	0.0	5.590600e-01	-3.844549e-02	0.0	5.433600e-01	-3.862438e-02	0.0	5.276100e-01	-3.880487e-02	0.0	5.118400e-01	-3.899310e-02	0.0	4.960500e-01	-3.919494e-02	0.0	4.802700e-01	-3.941489e-02	0.0	4.645100e-01	-3.965637e-02	0.0	4.487800e-01	-3.992129e-02	0.0	4.331100e-01	-4.020951e-02	0.0	4.175000e-01	-4.051973e-02	0.0	4.019700e-01	-4.084865e-02	0.0	3.865400e-01	-4.119144e-02	0.0	3.712300e-01	-4.154193e-02	0.0	3.560400e-01	-4.189338e-02	0.0	3.409900e-01	-4.223774e-02	0.0	3.261100e-01	-4.256620e-02	0.0	3.114000e-01	-4.287034e-02	0.0	2.968700e-01	-4.314137e-02	0.0	2.825500e-01	-4.337030e-02	0.0	2.684500e-01	-4.354885e-02	0.0	2.545700e-01	-4.366918e-02	0.0	2.409400e-01	-4.372365e-02	0.0	2.275700e-01	-4.370549e-02	0.0	2.144700e-01	-4.360845e-02	0.0	2.016600e-01	-4.342707e-02	0.0	1.891400e-01	-4.315621e-02	0.0	1.769300e-01	-4.279170e-02	0.0	1.650400e-01	-4.232983e-02	0.0	1.534900e-01	-4.176802e-02	0.0	1.422900e-01	-4.110406e-02	0.0	1.314400e-01	-4.033566e-02	0.0	1.209500e-01	-3.946159e-02	0.0	1.108500e-01	-3.848339e-02	0.0	1.011300e-01	-3.739982e-02	0.0	9.181000e-02	-3.621333e-02	0.0	8.290000e-02	-3.492645e-02	0.0	7.440000e-02	-3.354104e-02	0.0	6.633000e-02	-3.206315e-02	0.0	5.869000e-02	-3.049651e-02	0.0	5.149000e-02	-2.884764e-02	0.0	4.474000e-02	-2.712427e-02	0.0	3.844000e-02	-2.533250e-02	0.0	3.260000e-02	-2.348177e-02	0.0	2.723000e-02	-2.158273e-02	0.0	2.232000e-02	-1.963892e-02	0.0	1.790000e-02	-1.766989e-02	0.0	1.395000e-02	-1.567385e-02	0.0	1.049000e-02	-1.366630e-02	0.0	7.520000e-03	-1.165203e-02	0.0	5.040000e-03	-9.632020e-03	0.0	3.050000e-03	-7.600606e-03	0.0	1.560000e-03	-5.555616e-03	0.0	5.600000e-04	-3.449557e-03	0.0	6.000000e-05	-1.210090e-03	0.0	0.000000e+00	0.000000e+00	0.0	6.000000e-05	1.166119e-03	0.0	5.600000e-04	3.218146e-03	0.0	1.560000e-03	5.047188e-03	0.0	3.050000e-03	6.743314e-03	0.0	5.040000e-03	8.362541e-03	0.0	7.520000e-03	9.919398e-03	0.0	1.049000e-02	1.142956e-02	0.0	1.395000e-02	1.290229e-02	0.0	1.790000e-02	1.434316e-02	0.0	2.232000e-02	1.574947e-02	0.0	2.723000e-02	1.713035e-02	0.0	3.260000e-02	1.847914e-02	0.0	3.844000e-02	1.980010e-02	0.0	4.474000e-02	2.109186e-02	0.0	5.149000e-02	2.235333e-02	0.0	5.869000e-02	2.358531e-02	0.0	6.633000e-02	2.478679e-02	0.0	7.440000e-02	2.595703e-02	0.0	8.290000e-02	2.709687e-02	0.0	9.181000e-02	2.820457e-02	0.0	1.011300e-01	2.928122e-02	0.0	1.108500e-01	3.032674e-02	0.0	1.209500e-01	3.134021e-02	0.0	1.314400e-01	3.232387e-02	0.0	1.422900e-01	3.327611e-02	0.0	1.534900e-01	3.419748e-02	0.0	1.650400e-01	3.508924e-02	0.0	1.769300e-01	3.595174e-02	0.0	1.891400e-01	3.678461e-02	0.0	2.016600e-01	3.758812e-02	0.0	2.144700e-01	3.836183e-02	0.0	2.275700e-01	3.910628e-02	0.0	2.409400e-01	3.982057e-02	0.0	2.545700e-01	4.050410e-02	0.0	2.684500e-01	4.115587e-02	0.0	2.825500e-01	4.177362e-02	0.0	2.968700e-01	4.235605e-02	0.0	3.114000e-01	4.290091e-02	0.0	3.261100e-01	4.340475e-02	0.0	3.409900e-01	4.386452e-02	0.0	3.560400e-01	4.427692e-02	0.0	3.712300e-01	4.463742e-02	0.0	3.865400e-01	4.494158e-02	0.0	4.019700e-01	4.518507e-02	0.0	4.175000e-01	4.536297e-02	0.0	4.331100e-01	4.547031e-02	0.0	4.487800e-01	4.550226e-02	0.0	4.645100e-01	4.545399e-02	0.0	4.802700e-01	4.532087e-02	0.0	4.960500e-01	4.509840e-02	0.0	5.118400e-01	4.478222e-02	0.0	5.276100e-01	4.436874e-02	0.0	5.433600e-01	4.385404e-02	0.0	5.590600e-01	4.323553e-02	0.0	5.747100e-01	4.251018e-02	0.0	5.902800e-01	4.167705e-02	0.0	6.057600e-01	4.073543e-02	0.0	6.211300e-01	3.968658e-02	0.0	6.363800e-01	3.853282e-02	0.0	6.515000e-01	3.727846e-02	0.0	6.664700e-01	3.593090e-02	0.0	6.812700e-01	3.450024e-02	0.0	6.958900e-01	3.299807e-02	0.0	7.103200e-01	3.143805e-02	0.0	7.245300e-01	2.983757e-02	0.0	7.385200e-01	2.821134e-02	0.0	7.522800e-01	2.657469e-02	0.0	7.657800e-01	2.494370e-02	0.0	7.790100e-01	2.332937e-02	0.0	7.919700e-01	2.173790e-02	0.0	8.046400e-01	2.017407e-02	0.0	8.170100e-01	1.863770e-02	0.0	8.290500e-01	1.712801e-02	0.0	8.407700e-01	1.563703e-02	0.0	8.521600e-01	1.415793e-02	0.0	8.631800e-01	1.268725e-02	0.0	8.738500e-01	1.121356e-02	0.0	8.841500e-01	9.731382e-03	0.0	8.940600e-01	8.238301e-03	0.0	9.035800e-01	6.735912e-03	0.0	9.127000e-01	5.240741e-03	0.0	9.214000e-01	3.791859e-03	0.0	9.296900e-01	2.448588e-03	0.0	9.375400e-01	1.298062e-03	0.0	9.449600e-01	4.266968e-04	0.0	9.519400e-01	-9.679632e-05	0.0	9.584700e-01	-2.543650e-04	0.0	9.645400e-01	-9.678479e-05	0.0	9.701500e-01	2.628627e-04	0.0	9.752800e-01	6.784550e-04	0.0	9.799500e-01	1.018799e-03	0.0	9.841300e-01	1.197901e-03	0.0	9.878400e-01	1.196112e-03	0.0	9.910500e-01	1.046817e-03	0.0	9.937800e-01	8.109019e-04	0.0	9.960200e-01	5.521554e-04	0.0	9.977600e-01	3.205027e-04	0.0	9.990000e-01	1.448332e-04	0.0	9.997500e-01	3.632230e-05	0.0	1.000000e+00	0.000000e+00	0.0	
CELLS 200	600
2	199	0	2	0	1	2	1	2	2	2	3	2	3	4	2	4	5	2	5	6	2	6	7	2	7	8	2	8	9	2	9	10	2	10	11	2	11	12	2	12	13	2	13	14	2	14	15	2	15	16	2	16	17	2	17	18	2	18	19	2	19	20	2	20	21	2	21	22	2	22	23	2	23	24	2	24	25	2	25	26	2	26	27	2	27	28	2	28	29	2	29	30	2	30	31	2	31	32	2	32	33	2	33	34	2	34	35	2	35	36	2	36	37	2	37	38	2	38	39	2	39	40	2	40	41	2	41	42	2	42	43	2	43	44	2	44	45	2	45	46	2	46	47	2	47	48	2	48	49	2	49	50	2	50	51	2	51	52	2	52	53	2	53	54	2	54	55	2	55	56	2	56	57	2	57	58	2	58	59	2	59	60	2	60	61	2	61	62	2	62	63	2	63	64	2	64	65	2	65	66	2	66	67	2	67	68	2	68	69	2	69	70	2	70	71	2	71	72	2	72	73	2	73	74	2	74	75	2	75	76	2	76	77	2	77	78	2	78	79	2	79	80	2	80	81	2	81	82	2	82	83	2	83	84	2	84	85	2	85	86	2	86	87	2	87	88	2	88	89	2	89	90	2	90	91	2	91	92	2	92	93	2	93	94	2	94	95	2	95	96	2	96	97	2	97	98	2	98	99	2	99	100	2	100	101	2	101	102	2	102	103	2	103	104	2	104	105	2	105	106	2	106	107	2	107	108	2	108	109	2	109	110	2	110	111	2	111	112	2	112	113	2	113	114	2	114	115	2	115	116	2	116	117	2	117	118	2	118	119	2	119	120	2	120	121	2	121	122	2	122	123	2	123	124	2	124	125	2	125	126	2	126	127	2	127	128	2	128	129	2	129	130	2	130	131	2	131	132	2	132	133	2	133	134	2	134	135	2	135	136	2	136	137	2	137	138	2	138	139	2	139	140	2	140	141	2	141	142	2	142	143	2	143	144	2	144	145	2	145	146	2	146	147	2	147	148	2	148	149	2	149	150	2	150	151	2	151	152	2	152	153	2	153	154	2	154	155	2	155	156	2	156	157	2	157	158	2	158	159	2	159	160	2	160	161	2	161	162	2	162	163	2	163	164	2	164	165	2	165	166	2	166	167	2	167	168	2	168	169	2	169	170	2	170	171	2	171	172	2	172	173	2	173	174	2	174	175	2	175	176	2	176	177	2	177	178	2	178	179	2	179	180	2	180	181	2	181	182	2	182	183	2	183	184	2	184	185	2	185	186	2	186	187	2	187	188	2	188	189	2	189	190	2	190	191	2	191	192	2	192	193	2	193	194	2	194	195	2	195	196	2	196	197	2	197	198	2	198	199	
CELL_TYPES 200
3	3	3	3	3	3	3	3	3	3	3	3	3	3	3	3	3	3	3	3	3	3	3	3	3	3	3	3	3	3	3	3	3	3	3	3	3	3	3	3	3	3	3	3	3	3	3	3	3	3	3	3	3	3	3	3	3	3	3	3	3	3	3	3	3	3	3	3	3	3	3	3	3	3	3	3	3	3	3	3	3	3	3	3	3	3	3	3	3	3	3	3	3	3	3	3	3	3	3	3	3	3	3	3	3	3	3	3	3	3	3	3	3	3	3	3	3	3	3	3	3	3	3	3	3	3	3	3	3	3	3	3	3	3	3	3	3	3	3	3	3	3	3	3	3	3	3	3	3	3	3	3	3	3	3	3	3	3	3	3	3	3	3	3	3	3	3	3	3	3	3	3	3	3	3	3	3	3	3	3	3	3	3	3	3	3	3	3	3	3	3	3	3	3	3	3	3	3	3	3	
POINT_DATA 200

SCALARS Conservative_1 float 1
LOOKUP_TABLE default
1.194907e+00	1.179146e+00	1.172157e+00	1.169527e+00	1.168202e+00	1.165330e+00	1.157016e+00	1.140425e+00	1.113032e+00	1.074325e+00	1.024651e+00	9.627704e-01	9.067968e-01	8.847084e-01	8.955986e-01	9.233775e-01	9.534474e-01	9.754724e-01	9.862665e-01	9.866614e-01	9.783685e-01	9.635526e-01	9.446063e-01	9.233603e-01	8.996992e-01	8.736856e-01	8.503780e-01	8.363733e-01	8.333593e-01	8.385904e-01	8.482119e-01	8.591991e-01	8.698623e-01	8.792961e-01	8.873590e-01	8.941359e-01	8.998620e-01	9.048192e-01	9.092232e-01	9.133331e-01	9.172844e-01	9.212141e-01	9.251397e-01	9.290689e-01	9.329200e-01	9.366178e-01	9.400395e-01	9.430908e-01	9.456556e-01	9.476512e-01	9.489845e-01	9.496055e-01	9.494634e-01	9.485416e-01	9.468247e-01	9.443220e-01	9.410450e-01	9.370251e-01	9.323048e-01	9.269316e-01	9.209794e-01	9.144615e-01	9.073722e-01	8.996786e-01	8.916090e-01	8.835358e-01	8.756155e-01	8.670796e-01	8.565440e-01	8.433379e-01	8.296574e-01	8.192248e-01	8.141532e-01	8.139479e-01	8.171266e-01	8.223807e-01	8.292313e-01	8.375689e-01	8.472432e-01	8.581617e-01	8.703420e-01	8.837498e-01	8.984481e-01	9.144351e-01	9.317723e-01	9.505701e-01	9.708618e-01	9.927787e-01	1.016546e+00	1.042248e+00	1.070257e+00	1.101084e+00	1.135097e+00	1.173172e+00	1.215732e+00	1.262045e+00	1.307460e+00	1.347990e+00	1.347995e+00	1.321555e+00	1.296577e+00	1.222679e+00	1.088539e+00	9.925161e-01	9.284207e-01	8.887680e-01	8.649148e-01	8.498268e-01	8.394580e-01	8.320227e-01	8.265577e-01	8.223988e-01	8.192992e-01	8.169227e-01	8.151926e-01	8.141649e-01	8.137105e-01	8.136946e-01	8.141196e-01	8.151220e-01	8.169978e-01	8.199122e-01	8.237064e-01	8.279419e-01	8.321785e-01	8.361375e-01	8.396406e-01	8.425440e-01	8.448177e-01	8.465760e-01	8.479530e-01	8.490079e-01	8.497127e-01	8.500094e-01	8.498662e-01	8.492658e-01	8.482195e-01	8.467356e-01	8.448174e-01	8.424721e-01	8.396872e-01	8.364586e-01	8.328502e-01	8.289886e-01	8.249729e-01	8.208353e-01	8.165597e-01	8.124119e-01	8.091973e-01	8.086427e-01	8.128561e-01	8.229695e-01	8.371114e-01	8.508321e-01	8.609602e-01	8.682236e-01	8.749872e-01	8.830382e-01	8.928493e-01	9.037986e-01	9.151432e-01	9.265845e-01	9.380576e-01	9.494490e-01	9.605010e-01	9.710200e-01	9.808149e-01	9.897973e-01	9.978726e-01	1.005118e+00	1.011604e+00	1.017505e+00	1.023060e+00	1.028532e+00	1.034223e+00	1.040463e+00	1.047625e+00	1.056195e+00	1.066673e+00	1.079566e+00	1.094970e+00	1.112357e+00	1.130263e+00	1.146686e+00	1.159277e+00	1.165729e+00	1.164025e+00	1.152860e+00	1.132092e+00	1.104070e+00	1.075002e+00	1.052668e+00	1.044514e+00	1.053646e+00	1.075727e+00	1.102831e+00	1.129812e+00	1.156211e+00	1.184505e+00	1.174606e+00	
SCALARS Conservative_2 float 1
LOOKUP_TABLE default
7.157128e-01	7.377514e-01	7.505091e-01	7.551056e-01	7.547778e-01	7.548737e-01	7.589008e-01	7.712003e-01	7.943068e-01	8.280766e-01	8.691426e-01	9.104211e-01	9.416148e-01	9.619381e-01	9.712268e-01	9.690139e-01	9.607559e-01	9.517105e-01	9.449236e-01	9.425465e-01	9.446084e-01	9.499251e-01	9.567610e-01	9.637578e-01	9.700429e-01	9.746628e-01	9.768896e-01	9.778064e-01	9.784157e-01	9.789921e-01	9.794407e-01	9.795615e-01	9.794493e-01	9.789857e-01	9.783713e-01	9.776372e-01	9.768899e-01	9.761783e-01	9.754191e-01	9.746731e-01	9.738553e-01	9.730055e-01	9.720660e-01	9.710871e-01	9.700478e-01	9.690160e-01	9.679966e-01	9.670674e-01	9.662448e-01	9.655960e-01	9.651336e-01	9.649203e-01	9.649504e-01	9.652486e-01	9.658015e-01	9.666092e-01	9.676352e-01	9.688547e-01	9.702178e-01	9.716670e-01	9.731778e-01	9.746760e-01	9.761710e-01	9.775612e-01	9.787958e-01	9.797041e-01	9.803728e-01	9.808750e-01	9.813791e-01	9.814997e-01	9.808790e-01	9.796897e-01	9.786604e-01	9.779093e-01	9.774697e-01	9.769790e-01	9.764120e-01	9.755655e-01	9.741312e-01	9.719443e-01	9.688952e-01	9.646669e-01	9.590401e-01	9.516420e-01	9.420710e-01	9.297918e-01	9.141668e-01	8.945304e-01	8.698526e-01	8.386914e-01	7.993199e-01	7.492183e-01	6.845220e-01	6.008143e-01	4.920009e-01	3.541751e-01	1.975864e-01	5.388441e-02	-1.067894e-02	6.915713e-03	7.782383e-02	2.415639e-01	4.702418e-01	6.456455e-01	7.589130e-01	8.295565e-01	8.730829e-01	9.009143e-01	9.191492e-01	9.317124e-01	9.407245e-01	9.473056e-01	9.523528e-01	9.563036e-01	9.594523e-01	9.620616e-01	9.642054e-01	9.659974e-01	9.676013e-01	9.690478e-01	9.704047e-01	9.716806e-01	9.728285e-01	9.737845e-01	9.745844e-01	9.752600e-01	9.758308e-01	9.763060e-01	9.767112e-01	9.770676e-01	9.773886e-01	9.776702e-01	9.779245e-01	9.781469e-01	9.783558e-01	9.785425e-01	9.787168e-01	9.788675e-01	9.789819e-01	9.790684e-01	9.791137e-01	9.790999e-01	9.790182e-01	9.788737e-01	9.786431e-01	9.783465e-01	9.779713e-01	9.776429e-01	9.774391e-01	9.776452e-01	9.784302e-01	9.795857e-01	9.802238e-01	9.799903e-01	9.793370e-01	9.787141e-01	9.780672e-01	9.770713e-01	9.755270e-01	9.733630e-01	9.706334e-01	9.674079e-01	9.637128e-01	9.596139e-01	9.552145e-01	9.506612e-01	9.460905e-01	9.416595e-01	9.373758e-01	9.333760e-01	9.295945e-01	9.259326e-01	9.222886e-01	9.184697e-01	9.142371e-01	9.093066e-01	9.032649e-01	8.956151e-01	8.856311e-01	8.727004e-01	8.563905e-01	8.371336e-01	8.165109e-01	7.975348e-01	7.838682e-01	7.789981e-01	7.853323e-01	8.033822e-01	8.308854e-01	8.629597e-01	8.919583e-01	9.096742e-01	9.119279e-01	9.001745e-01	8.774609e-01	8.479177e-01	8.139932e-01	7.759206e-01	7.325728e-01	6.650371e-01	
SCALARS Conservative_3 float 1
LOOKUP_TABLE default
1.015258e-01	1.065257e-01	1.139343e-01	1.243808e-01	1.416105e-01	1.666887e-01	1.984065e-01	2.329359e-01	2.643789e-01	2.847668e-01	2.873471e-01	2.707021e-01	2.328871e-01	1.855491e-01	1.434314e-01	1.138927e-01	1.003818e-01	1.008082e-01	1.093524e-01	1.207250e-01	1.308839e-01	1.372157e-01	1.383666e-01	1.342631e-01	1.262656e-01	1.160061e-01	1.038526e-01	9.070295e-02	7.790216e-02	6.634671e-02	5.648476e-02	4.833917e-02	4.182432e-02	3.666886e-02	3.254532e-02	2.917829e-02	2.632990e-02	2.381832e-02	2.152689e-02	1.939085e-02	1.740001e-02	1.558474e-02	1.399479e-02	1.269131e-02	1.173209e-02	1.115990e-02	1.099771e-02	1.124136e-02	1.186842e-02	1.282445e-02	1.404637e-02	1.544476e-02	1.693150e-02	1.840443e-02	1.976603e-02	2.092067e-02	2.178074e-02	2.226325e-02	2.230214e-02	2.183087e-02	2.079549e-02	1.915880e-02	1.691214e-02	1.406246e-02	1.057775e-02	6.345692e-03	1.266408e-03	-4.571934e-03	-1.084513e-02	-1.733320e-02	-2.446850e-02	-3.268128e-02	-4.196403e-02	-5.211550e-02	-6.307157e-02	-7.484370e-02	-8.755823e-02	-1.012491e-01	-1.159516e-01	-1.317402e-01	-1.486519e-01	-1.667051e-01	-1.859498e-01	-2.063877e-01	-2.280132e-01	-2.508278e-01	-2.748252e-01	-2.999561e-01	-3.260495e-01	-3.529259e-01	-3.801971e-01	-4.067832e-01	-4.308280e-01	-4.481326e-01	-4.495160e-01	-4.181853e-01	-3.277252e-01	-1.512357e-01	9.110041e-02	2.867002e-01	4.675760e-01	6.546388e-01	6.964008e-01	6.345606e-01	5.476302e-01	4.683203e-01	4.040218e-01	3.526252e-01	3.112299e-01	2.771429e-01	2.488133e-01	2.248313e-01	2.042999e-01	1.865253e-01	1.709812e-01	1.572954e-01	1.451703e-01	1.343253e-01	1.245813e-01	1.157727e-01	1.078023e-01	1.006123e-01	9.411156e-02	8.818510e-02	8.273281e-02	7.768363e-02	7.301497e-02	6.867382e-02	6.461980e-02	6.081391e-02	5.723602e-02	5.385059e-02	5.061535e-02	4.747701e-02	4.439814e-02	4.133604e-02	3.825779e-02	3.512531e-02	3.190267e-02	2.855749e-02	2.505487e-02	2.136664e-02	1.745906e-02	1.332334e-02	8.956256e-03	4.345529e-03	-5.447948e-04	-5.772319e-03	-1.137003e-02	-1.734194e-02	-2.350750e-02	-2.962634e-02	-3.547416e-02	-4.154504e-02	-4.839976e-02	-5.582757e-02	-6.332838e-02	-7.061569e-02	-7.761395e-02	-8.431948e-02	-9.066861e-02	-9.652654e-02	-1.016620e-01	-1.059597e-01	-1.093275e-01	-1.118005e-01	-1.134120e-01	-1.143224e-01	-1.147317e-01	-1.148985e-01	-1.150885e-01	-1.155499e-01	-1.164944e-01	-1.180700e-01	-1.203720e-01	-1.234659e-01	-1.273347e-01	-1.318215e-01	-1.364493e-01	-1.401754e-01	-1.412259e-01	-1.372270e-01	-1.257304e-01	-1.051957e-01	-7.561674e-02	-3.909848e-02	1.916847e-05	3.547239e-02	5.983446e-02	6.638820e-02	5.200128e-02	2.021566e-02	-2.012916e-02	-5.861315e-02	-8.719757e-02	-1.032657e-01	-1.092857e-01	-1.071131e-01	-1.008182e-01	4.111551e-03	
SCALARS Conservative_4 float 1
LOOKUP_TABLE default
3.432125e+00	3.392522e+00	3.375728e+00	3.369619e+00	3.366464e+00	3.359506e+00	3.338770e+00	3.297312e+00	3.228713e+00	3.131575e+00	3.006361e+00	2.848886e+00	2.705404e+00	2.649863e+00	2.679344e+00	2.751215e+00	2.828546e+00	2.884979e+00	2.912346e+00	2.913137e+00	2.891800e+00	2.853806e+00	2.805136e+00	2.750380e+00	2.689107e+00	2.621335e+00	2.560206e+00	2.523296e+00	2.515227e+00	2.528857e+00	2.554073e+00	2.582881e+00	2.610859e+00	2.635555e+00	2.656636e+00	2.674315e+00	2.689234e+00	2.702143e+00	2.713584e+00	2.724260e+00	2.734503e+00	2.744688e+00	2.754846e+00	2.765011e+00	2.774960e+00	2.784512e+00	2.793339e+00	2.801212e+00	2.807822e+00	2.812967e+00	2.816400e+00	2.818004e+00	2.817640e+00	2.815271e+00	2.810853e+00	2.804412e+00	2.795970e+00	2.785607e+00	2.773426e+00	2.759541e+00	2.744145e+00	2.727258e+00	2.708873e+00	2.688877e+00	2.667867e+00	2.646780e+00	2.626056e+00	2.603694e+00	2.576114e+00	2.541459e+00	2.505413e+00	2.477780e+00	2.464289e+00	2.463662e+00	2.472042e+00	2.485902e+00	2.504008e+00	2.526031e+00	2.551506e+00	2.580175e+00	2.612089e+00	2.647105e+00	2.685378e+00	2.726853e+00	2.771650e+00	2.819998e+00	2.871925e+00	2.927739e+00	2.987945e+00	3.052637e+00	3.122714e+00	3.199368e+00	3.283319e+00	3.376771e+00	3.480567e+00	3.592977e+00	3.703053e+00	3.804080e+00	3.802253e+00	3.735692e+00	3.681119e+00	3.504860e+00	3.162360e+00	2.916865e+00	2.752926e+00	2.652203e+00	2.591935e+00	2.553864e+00	2.527538e+00	2.508552e+00	2.494554e+00	2.483839e+00	2.475856e+00	2.469740e+00	2.465296e+00	2.462700e+00	2.461593e+00	2.461626e+00	2.462839e+00	2.465580e+00	2.470635e+00	2.478432e+00	2.488533e+00	2.499765e+00	2.510980e+00	2.521454e+00	2.530720e+00	2.538399e+00	2.544416e+00	2.549075e+00	2.552730e+00	2.555534e+00	2.557414e+00	2.558216e+00	2.557860e+00	2.556298e+00	2.553563e+00	2.549673e+00	2.544632e+00	2.538465e+00	2.531134e+00	2.522625e+00	2.513106e+00	2.502911e+00	2.492296e+00	2.481352e+00	2.470035e+00	2.459086e+00	2.450635e+00	2.449288e+00	2.460609e+00	2.487509e+00	2.524851e+00	2.560897e+00	2.587448e+00	2.606524e+00	2.624314e+00	2.645431e+00	2.671076e+00	2.699601e+00	2.729068e+00	2.758706e+00	2.788346e+00	2.817703e+00	2.846110e+00	2.873089e+00	2.898154e+00	2.921107e+00	2.941690e+00	2.960144e+00	2.976640e+00	2.991622e+00	3.005715e+00	3.019578e+00	3.033977e+00	3.049737e+00	3.067784e+00	3.089325e+00	3.115571e+00	3.147773e+00	3.186115e+00	3.229279e+00	3.273619e+00	3.314290e+00	3.345598e+00	3.361923e+00	3.358256e+00	3.331213e+00	3.280082e+00	3.210420e+00	3.137605e+00	3.080894e+00	3.059335e+00	3.081626e+00	3.136821e+00	3.204510e+00	3.271374e+00	3.336334e+00	3.406268e+00	3.366196e+00	
SCALARS Pressure float 1
LOOKUP_TABLE default
1.285387e+00	1.262767e+00	1.251969e+00	1.247695e+00	1.245620e+00	1.241236e+00	1.229149e+00	1.205106e+00	1.165555e+00	1.109879e+00	1.038981e+00	9.521482e-01	8.746454e-01	8.429805e-01	8.564951e-01	8.942953e-01	9.356806e-01	9.662027e-01	9.814509e-01	9.822195e-01	9.708155e-01	9.503162e-01	9.241862e-01	8.950627e-01	8.629213e-01	8.279911e-01	7.971012e-01	7.787199e-01	7.748901e-01	7.819127e-01	7.946824e-01	8.092515e-01	8.233728e-01	8.359208e-01	8.466722e-01	8.557484e-01	8.634371e-01	8.700987e-01	8.760448e-01	8.815950e-01	8.869520e-01	8.922809e-01	8.976215e-01	9.029687e-01	9.082239e-01	9.132712e-01	9.179530e-01	9.221272e-01	9.256426e-01	9.283760e-01	9.302069e-01	9.310549e-01	9.308577e-01	9.295872e-01	9.272271e-01	9.237876e-01	9.192918e-01	9.137840e-01	9.073292e-01	9.000011e-01	8.918972e-01	8.830517e-01	8.734487e-01	8.630696e-01	8.522202e-01	8.414348e-01	8.308893e-01	8.195516e-01	8.055365e-01	7.880533e-01	7.700883e-01	7.565340e-01	7.500016e-01	7.498178e-01	7.539878e-01	7.608707e-01	7.698112e-01	7.807050e-01	7.934242e-01	8.078624e-01	8.240361e-01	8.419543e-01	8.617104e-01	8.833524e-01	9.070037e-01	9.328686e-01	9.610542e-01	9.917688e-01	1.025397e+00	1.062175e+00	1.102679e+00	1.147732e+00	1.198063e+00	1.254934e+00	1.319163e+00	1.389599e+00	1.458820e+00	1.517807e+00	1.519653e+00	1.481830e+00	1.437790e+00	1.322299e+00	1.135210e+00	1.001605e+00	9.124955e-01	8.566686e-01	8.227630e-01	8.012673e-01	7.866564e-01	7.762883e-01	7.687098e-01	7.630058e-01	7.587509e-01	7.554852e-01	7.530979e-01	7.516372e-01	7.509503e-01	7.508541e-01	7.513192e-01	7.525354e-01	7.548860e-01	7.585952e-01	7.634734e-01	7.689640e-01	7.744751e-01	7.796318e-01	7.841958e-01	7.879793e-01	7.909386e-01	7.932217e-01	7.950029e-01	7.963641e-01	7.972663e-01	7.976358e-01	7.974259e-01	7.966174e-01	7.952220e-01	7.932539e-01	7.907214e-01	7.876298e-01	7.839657e-01	7.797278e-01	7.750012e-01	7.699500e-01	7.647114e-01	7.593197e-01	7.537562e-01	7.483304e-01	7.440900e-01	7.432472e-01	7.485613e-01	7.615888e-01	7.800792e-01	7.982022e-01	8.116372e-01	8.212383e-01	8.301507e-01	8.408194e-01	8.539088e-01	8.686109e-01	8.839330e-01	8.994654e-01	9.151211e-01	9.307385e-01	9.459639e-01	9.605151e-01	9.741199e-01	9.866295e-01	9.979283e-01	1.008080e+00	1.017191e+00	1.025504e+00	1.033344e+00	1.041083e+00	1.049155e+00	1.058028e+00	1.068259e+00	1.080550e+00	1.095674e+00	1.114374e+00	1.136844e+00	1.162324e+00	1.188679e+00	1.212847e+00	1.231247e+00	1.240394e+00	1.237335e+00	1.220298e+00	1.189437e+00	1.148469e+00	1.106523e+00	1.075059e+00	1.064422e+00	1.078187e+00	1.110167e+00	1.149485e+00	1.189144e+00	1.228407e+00	1.270177e+00	1.271169e+00	
SCALARS Temperature float 1
LOOKUP_TABLE default
1.075722e+00	1.070916e+00	1.068090e+00	1.066837e+00	1.066270e+00	1.065137e+00	1.062344e+00	1.056716e+00	1.047190e+00	1.033094e+00	1.013985e+00	9.889670e-01	9.645440e-01	9.528343e-01	9.563381e-01	9.685045e-01	9.813658e-01	9.904972e-01	9.951173e-01	9.954981e-01	9.922800e-01	9.862630e-01	9.783824e-01	9.693537e-01	9.591220e-01	9.476992e-01	9.373493e-01	9.310674e-01	9.298391e-01	9.324131e-01	9.368914e-01	9.418673e-01	9.465553e-01	9.506704e-01	9.541484e-01	9.570675e-01	9.595217e-01	9.616272e-01	9.635090e-01	9.652503e-01	9.669324e-01	9.685923e-01	9.702551e-01	9.719072e-01	9.735282e-01	9.750735e-01	9.765046e-01	9.777713e-01	9.788369e-01	9.796601e-01	9.802130e-01	9.804649e-01	9.804040e-01	9.800173e-01	9.793017e-01	9.782549e-01	9.768840e-01	9.751969e-01	9.732109e-01	9.709467e-01	9.684226e-01	9.656522e-01	9.626134e-01	9.593088e-01	9.558228e-01	9.523494e-01	9.489203e-01	9.451861e-01	9.404497e-01	9.344454e-01	9.282004e-01	9.234754e-01	9.212045e-01	9.212110e-01	9.227307e-01	9.252049e-01	9.283431e-01	9.321084e-01	9.364776e-01	9.413872e-01	9.467958e-01	9.527066e-01	9.591098e-01	9.660088e-01	9.734177e-01	9.813780e-01	9.898981e-01	9.989828e-01	1.008707e+00	1.019120e+00	1.030294e+00	1.042365e+00	1.055472e+00	1.069693e+00	1.085077e+00	1.101069e+00	1.115767e+00	1.125978e+00	1.127343e+00	1.121278e+00	1.108912e+00	1.081476e+00	1.042875e+00	1.009158e+00	9.828469e-01	9.638832e-01	9.512648e-01	9.428595e-01	9.371004e-01	9.330134e-01	9.300135e-01	9.277808e-01	9.260974e-01	9.247939e-01	9.238283e-01	9.232002e-01	9.228717e-01	9.227714e-01	9.228609e-01	9.232181e-01	9.239755e-01	9.252152e-01	9.268757e-01	9.287656e-01	9.306598e-01	9.324205e-01	9.339660e-01	9.352382e-01	9.362241e-01	9.369763e-01	9.375555e-01	9.379938e-01	9.382774e-01	9.383847e-01	9.382959e-01	9.380072e-01	9.375191e-01	9.368379e-01	9.359672e-01	9.349031e-01	9.336402e-01	9.321774e-01	9.305410e-01	9.287823e-01	9.269533e-01	9.250573e-01	9.230877e-01	9.211218e-01	9.195408e-01	9.191293e-01	9.209026e-01	9.254156e-01	9.318703e-01	9.381431e-01	9.427117e-01	9.458834e-01	9.487575e-01	9.521891e-01	9.563862e-01	9.610669e-01	9.658958e-01	9.707322e-01	9.755490e-01	9.802933e-01	9.848652e-01	9.891816e-01	9.931740e-01	9.967995e-01	1.000056e+00	1.002947e+00	1.005522e+00	1.007862e+00	1.010052e+00	1.012203e+00	1.014437e+00	1.016882e+00	1.019695e+00	1.023059e+00	1.027188e+00	1.032242e+00	1.038243e+00	1.044921e+00	1.051684e+00	1.057697e+00	1.062082e+00	1.064050e+00	1.062979e+00	1.058496e+00	1.050654e+00	1.040213e+00	1.029321e+00	1.021270e+00	1.019060e+00	1.023291e+00	1.032016e+00	1.042304e+00	1.052515e+00	1.062442e+00	1.072328e+00	1.082209e+00	
SCALARS Pressure_Coefficient float 1
LOOKUP_TABLE default
6.370238e-01	5.865335e-01	5.624310e-01	5.528907e-01	5.482580e-01	5.384727e-01	5.114928e-01	4.578256e-01	3.695434e-01	2.452667e-01	8.701090e-02	-1.068121e-01	-2.798094e-01	-3.504900e-01	-3.203235e-01	-2.359480e-01	-1.435701e-01	-7.544043e-02	-4.140419e-02	-3.968854e-02	-6.514396e-02	-1.109014e-01	-1.692273e-01	-2.342350e-01	-3.059792e-01	-3.839484e-01	-4.528992e-01	-4.939287e-01	-5.024774e-01	-4.868020e-01	-4.582981e-01	-4.257779e-01	-3.942572e-01	-3.662482e-01	-3.422496e-01	-3.219901e-01	-3.048279e-01	-2.899582e-01	-2.766858e-01	-2.642969e-01	-2.523392e-01	-2.404444e-01	-2.285235e-01	-2.165876e-01	-2.048574e-01	-1.935912e-01	-1.831407e-01	-1.738233e-01	-1.659764e-01	-1.598749e-01	-1.557881e-01	-1.538954e-01	-1.543355e-01	-1.571715e-01	-1.624396e-01	-1.701170e-01	-1.801521e-01	-1.924465e-01	-2.068545e-01	-2.232118e-01	-2.413009e-01	-2.610452e-01	-2.824806e-01	-3.056482e-01	-3.298657e-01	-3.539401e-01	-3.774791e-01	-4.027866e-01	-4.340702e-01	-4.730953e-01	-5.131957e-01	-5.434509e-01	-5.580323e-01	-5.584425e-01	-5.491344e-01	-5.337708e-01	-5.138144e-01	-4.894978e-01	-4.611066e-01	-4.288786e-01	-3.927765e-01	-3.527807e-01	-3.086822e-01	-2.603741e-01	-2.075810e-01	-1.498469e-01	-8.693249e-02	-1.837310e-02	5.668945e-02	1.387838e-01	2.291946e-01	3.297583e-01	4.421042e-01	5.690486e-01	7.124178e-01	8.696397e-01	1.024152e+00	1.155820e+00	1.159940e+00	1.075514e+00	9.772087e-01	7.194164e-01	3.018082e-01	3.582937e-03	-1.953226e-01	-3.199362e-01	-3.956184e-01	-4.435997e-01	-4.762134e-01	-4.993564e-01	-5.162727e-01	-5.290049e-01	-5.385026e-01	-5.457920e-01	-5.511207e-01	-5.543812e-01	-5.559144e-01	-5.561292e-01	-5.550912e-01	-5.523763e-01	-5.471295e-01	-5.388499e-01	-5.279612e-01	-5.157054e-01	-5.034037e-01	-4.918932e-01	-4.817058e-01	-4.732605e-01	-4.666549e-01	-4.615588e-01	-4.575827e-01	-4.545443e-01	-4.525307e-01	-4.517059e-01	-4.521742e-01	-4.539791e-01	-4.570937e-01	-4.614867e-01	-4.671398e-01	-4.740406e-01	-4.822193e-01	-4.916791e-01	-5.022295e-01	-5.135045e-01	-5.251978e-01	-5.372328e-01	-5.496514e-01	-5.617626e-01	-5.712277e-01	-5.731089e-01	-5.612471e-01	-5.321678e-01	-4.908946e-01	-4.504414e-01	-4.204526e-01	-3.990216e-01	-3.791280e-01	-3.553139e-01	-3.260965e-01	-2.932792e-01	-2.590782e-01	-2.244076e-01	-1.894618e-01	-1.546017e-01	-1.206163e-01	-8.813586e-02	-5.776816e-02	-2.984497e-02	-4.624305e-03	1.803500e-02	3.837246e-02	5.692904e-02	7.442903e-02	9.170375e-02	1.097202e-01	1.295266e-01	1.523633e-01	1.797984e-01	2.135583e-01	2.552992e-01	3.054560e-01	3.623311e-01	4.211596e-01	4.751043e-01	5.161764e-01	5.365939e-01	5.297646e-01	4.917364e-01	4.228494e-01	3.314038e-01	2.377738e-01	1.675423e-01	1.437994e-01	1.745246e-01	2.459093e-01	3.336720e-01	4.221969e-01	5.098366e-01	6.030737e-01	6.052888e-01	
SCALARS Mach float 1
LOOKUP_TABLE default
4.929660e-01	5.162753e-01	5.296022e-01	5.354236e-01	5.380414e-01	5.432463e-01	5.559119e-01	5.807850e-01	6.211819e-01	6.777539e-01	7.498255e-01	8.384184e-01	9.205151e-01	9.587535e-01	9.473762e-01	9.074341e-01	8.643597e-01	8.331476e-01	8.171280e-01	8.158004e-01	8.269850e-01	8.476916e-01	8.744381e-01	9.046187e-01	9.382983e-01	9.753366e-01	1.008461e+00	1.028392e+00	1.032275e+00	1.024132e+00	1.009918e+00	9.940476e-01	9.790165e-01	9.657543e-01	9.544925e-01	9.450009e-01	9.369922e-01	9.300991e-01	9.239205e-01	9.181883e-01	9.126361e-01	9.071433e-01	9.016261e-01	8.961298e-01	8.907221e-01	8.855532e-01	8.807539e-01	8.764959e-01	8.729065e-01	8.701288e-01	8.682605e-01	8.674088e-01	8.676150e-01	8.689221e-01	8.713385e-01	8.748679e-01	8.794795e-01	8.851398e-01	8.917816e-01	8.993270e-01	9.077055e-01	9.168629e-01	9.268632e-01	9.376878e-01	9.490527e-01	9.603238e-01	9.714026e-01	9.834148e-01	9.985776e-01	1.017689e+00	1.037449e+00	1.052326e+00	1.059455e+00	1.059435e+00	1.054665e+00	1.046887e+00	1.036999e+00	1.025097e+00	1.011234e+00	9.955827e-01	9.782434e-01	9.591671e-01	9.383381e-01	9.156863e-01	8.910911e-01	8.643182e-01	8.352131e-01	8.035967e-01	7.689883e-01	7.308985e-01	6.886148e-01	6.409338e-01	5.861779e-01	5.220785e-01	4.447568e-01	3.497399e-01	2.341839e-01	9.486155e-02	5.416309e-02	1.732002e-01	2.934101e-01	4.638068e-01	6.388655e-01	7.673617e-01	8.593351e-01	9.226899e-01	9.638332e-01	9.908728e-01	1.009253e+00	1.022231e+00	1.031724e+00	1.038773e+00	1.044078e+00	1.048181e+00	1.051217e+00	1.053191e+00	1.054223e+00	1.054538e+00	1.054257e+00	1.053135e+00	1.050754e+00	1.046855e+00	1.041626e+00	1.035665e+00	1.029681e+00	1.024109e+00	1.019210e+00	1.015173e+00	1.012040e+00	1.009648e+00	1.007805e+00	1.006409e+00	1.005506e+00	1.005164e+00	1.005447e+00	1.006366e+00	1.007920e+00	1.010088e+00	1.012857e+00	1.016237e+00	1.020244e+00	1.024879e+00	1.030057e+00	1.035613e+00	1.041382e+00	1.047352e+00	1.053544e+00	1.059715e+00	1.064670e+00	1.065959e+00	1.060402e+00	1.046224e+00	1.025851e+00	1.005933e+00	9.913462e-01	9.811758e-01	9.719274e-01	9.608429e-01	9.472196e-01	9.319354e-01	9.160592e-01	9.000405e-01	8.839601e-01	8.679893e-01	8.524654e-01	8.376801e-01	8.238860e-01	8.112542e-01	7.998185e-01	7.895916e-01	7.804158e-01	7.720297e-01	7.641292e-01	7.563248e-01	7.481694e-01	7.391821e-01	7.287574e-01	7.161714e-01	7.005300e-01	6.810708e-01	6.574802e-01	6.305261e-01	6.023717e-01	5.765086e-01	5.570885e-01	5.482013e-01	5.530504e-01	5.730070e-01	6.067207e-01	6.496058e-01	6.923608e-01	7.228816e-01	7.311193e-01	7.152979e-01	6.819498e-01	6.411810e-01	5.988467e-01	5.554728e-01	5.095192e-01	4.599836e-01	