# vtk DataFile Version 3.0
vtk output
ASCII
DATASET UNSTRUCTURED_GRID
POINTS 5233 float
9.997500e-01	-3.633500e-05	0.0	9.990000e-01	-1.456344e-04	0.0	9.977600e-01	-3.292787e-04	0.0	9.960200e-01	-5.994379e-04	0.0	9.937800e-01	-9.811616e-04	0.0	9.910500e-01	-1.515061e-03	0.0	9.878400e-01	-2.253053e-03	0.0	9.841300e-01	-3.250491e-03	0.0	9.799500e-01	-4.521735e-03	0.0	9.752800e-01	-6.044178e-03	0.0	9.701500e-01	-7.721673e-03	0.0	9.645400e-01	-9.433177e-03	0.0	9.584700e-01	-1.104142e-02	0.0	9.519400e-01	-1.245473e-02	0.0	9.449600e-01	-1.364655e-02	0.0	9.375400e-01	-1.466038e-02	0.0	9.296900e-01	-1.558662e-02	0.0	9.214000e-01	-1.653009e-02	0.0	9.127000e-01	-1.757219e-02	0.0	9.035800e-01	-1.876171e-02	0.0	8.940600e-01	-2.010283e-02	0.0	8.841500e-01	-2.156740e-02	0.0	8.738500e-01	-2.310820e-02	0.0	8.631800e-01	-2.466769e-02	0.0	8.521600e-01	-2.619178e-02	0.0	8.407700e-01	-2.764181e-02	0.0	8.290500e-01	-2.898434e-02	0.0	8.170100e-01	-3.020380e-02	0.0	8.046400e-01	-3.129816e-02	0.0	7.919700e-01	-3.227076e-02	0.0	7.790100e-01	-3.313318e-02	0.0	7.657800e-01	-3.389953e-02	0.0	7.522800e-01	-3.458571e-02	0.0	7.385200e-01	-3.520564e-02	0.0	7.245300e-01	-3.577002e-02	0.0	7.103200e-01	-3.628757e-02	0.0	6.958900e-01	-3.676433e-02	0.0	6.812700e-01	-3.720285e-02	0.0	6.664700e-01	-3.760466e-02	0.0	6.515000e-01	-3.797032e-02	0.0	6.363800e-01	-3.830000e-02	0.0	6.211300e-01	-3.859448e-02	0.0	6.057600e-01	-3.885574e-02	0.0	5.902800e-01	-3.908699e-02	0.0	5.747100e-01	-3.929258e-02	0.0	5.590600e-01	-3.947810e-02	0.0	5.433600e-01	-3.964978e-02	0.0	5.276100e-01	-3.981457e-02	0.0	5.118400e-01	-3.997906e-02	0.0	4.960500e-01	-4.014966e-02	0.0	4.802700e-01	-4.033156e-02	0.0	4.645100e-01	-4.052892e-02	0.0	4.487800e-01	-4.074444e-02	0.0	4.331100e-01	-4.097893e-02	0.0	4.175000e-01	-4.123195e-02	0.0	4.019700e-01	-4.150117e-02	0.0	3.865400e-01	-4.178274e-02	0.0	3.712300e-01	-4.207151e-02	0.0	3.560400e-01	-4.236160e-02	0.0	3.409900e-01	-4.264591e-02	0.0	3.261100e-01	-4.291660e-02	0.0	3.114000e-01	-4.316600e-02	0.0	2.968700e-01	-4.338610e-02	0.0	2.825500e-01	-4.356867e-02	0.0	2.684500e-01	-4.370600e-02	0.0	2.545700e-01	-4.379075e-02	0.0	2.409400e-01	-4.381577e-02	0.0	2.275700e-01	-4.377458e-02	0.0	2.144700e-01	-4.366115e-02	0.0	2.016600e-01	-4.347011e-02	0.0	1.891400e-01	-4.319633e-02	0.0	1.769300e-01	-4.283551e-02	0.0	1.650400e-01	-4.238369e-02	0.0	1.534900e-01	-4.183792e-02	0.0	1.422900e-01	-4.119555e-02	0.0	1.314400e-01	-4.045370e-02	0.0	1.209500e-01	-3.961050e-02	0.0	1.108500e-01	-3.866667e-02	0.0	1.011300e-01	-3.762016e-02	0.0	9.181000e-02	-3.647244e-02	0.0	8.290000e-02	-3.522505e-02	0.0	7.440000e-02	-3.387880e-02	0.0	6.633000e-02	-3.243857e-02	0.0	5.869000e-02	-3.090700e-02	0.0	5.149000e-02	-2.928940e-02	0.0	4.474000e-02	-2.759233e-02	0.0	3.844000e-02	-2.582075e-02	0.0	3.260000e-02	-2.398296e-02	0.0	2.723000e-02	-2.208854e-02	0.0	2.232000e-02	-2.014005e-02	0.0	1.790000e-02	-1.815625e-02	0.0	1.395000e-02	-1.613460e-02	0.0	1.049000e-02	-1.409028e-02	0.0	7.520000e-03	-1.202801e-02	0.0	5.040000e-03	-9.949186e-03	0.0	3.050000e-03	-7.849179e-03	0.0	1.560000e-03	-5.728491e-03	0.0	5.600000e-04	-3.543465e-03	0.0	6.000000e-05	-1.232105e-03	0.0	0.000000e+00	0.000000e+00	0.0	6.000000e-05	1.187363e-03	0.0	5.600000e-04	3.302620e-03	0.0	1.560000e-03	5.192253e-03	0.0	3.050000e-03	6.936280e-03	0.0	5.040000e-03	8.586985e-03	0.0	7.520000e-03	1.015683e-02	0.0	1.049000e-02	1.166096e-02	0.0	1.395000e-02	1.310881e-02	0.0	1.790000e-02	1.450664e-02	0.0	2.232000e-02	1.585311e-02	0.0	2.723000e-02	1.715846e-02	0.0	3.260000e-02	1.841809e-02	0.0	3.844000e-02	1.963783e-02	0.0	4.474000e-02	2.081833e-02	0.0	5.149000e-02	2.196057e-02	0.0	5.869000e-02	2.306730e-02	0.0	6.633000e-02	2.413962e-02	0.0	7.440000e-02	2.517889e-02	0.0	8.290000e-02	2.618784e-02	0.0	9.181000e-02	2.716686e-02	0.0	1.011300e-01	2.811880e-02	0.0	1.108500e-01	2.904535e-02	0.0	1.209500e-01	2.994738e-02	0.0	1.314400e-01	3.082843e-02	0.0	1.422900e-01	3.168847e-02	0.0	1.534900e-01	3.252920e-02	0.0	1.650400e-01	3.335282e-02	0.0	1.769300e-01	3.416054e-02	0.0	1.891400e-01	3.495264e-02	0.0	2.016600e-01	3.572985e-02	0.0	2.144700e-01	3.649192e-02	0.0	2.275700e-01	3.723941e-02	0.0	2.409400e-01	3.797122e-02	0.0	2.545700e-01	3.868634e-02	0.0	2.684500e-01	3.938322e-02	0.0	2.825500e-01	4.005874e-02	0.0	2.968700e-01	4.071070e-02	0.0	3.114000e-01	4.133574e-02	0.0	3.261100e-01	4.192909e-02	0.0	3.409900e-01	4.248632e-02	0.0	3.560400e-01	4.300277e-02	0.0	3.712300e-01	4.347227e-02	0.0	3.865400e-01	4.388874e-02	0.0	4.019700e-01	4.424636e-02	0.0	4.175000e-01	4.453857e-02	0.0	4.331100e-01	4.475883e-02	0.0	4.487800e-01	4.490077e-02	0.0	4.645100e-01	4.495829e-02	0.0	4.802700e-01	4.492536e-02	0.0	4.960500e-01	4.479640e-02	0.0	5.118400e-01	4.456610e-02	0.0	5.276100e-01	4.422998e-02	0.0	5.433600e-01	4.378356e-02	0.0	5.590600e-01	4.322380e-02	0.0	5.747100e-01	4.254745e-02	0.0	5.902800e-01	4.175350e-02	0.0	6.057600e-01	4.084140e-02	0.0	6.211300e-01	3.981269e-02	0.0	6.363800e-01	3.867020e-02	0.0	6.515000e-01	3.741881e-02	0.0	6.664700e-01	3.606667e-02	0.0	6.812700e-01	3.462467e-02	0.0	6.958900e-01	3.310532e-02	0.0	7.103200e-01	3.152316e-02	0.0	7.245300e-01	2.989657e-02	0.0	7.385200e-01	2.824119e-02	0.0	7.522800e-01	2.657326e-02	0.0	7.657800e-01	2.490981e-02	0.0	7.790100e-01	2.326270e-02	0.0	7.919700e-01	2.163895e-02	0.0	8.046400e-01	2.004418e-02	0.0	8.170100e-01	1.847902e-02	0.0	8.290500e-01	1.694358e-02	0.0	8.407700e-01	1.543074e-02	0.0	8.521600e-01	1.393459e-02	0.0	8.631800e-01	1.245266e-02	0.0	8.738500e-01	1.097435e-02	0.0	8.841500e-01	9.494975e-03	0.0	8.940600e-01	8.012515e-03	0.0	9.035800e-01	6.528510e-03	0.0	9.127000e-01	5.058752e-03	0.0	9.214000e-01	3.640740e-03	0.0	9.296900e-01	2.331547e-03	0.0	9.375400e-01	1.215325e-03	0.0	9.449600e-01	3.755120e-04	0.0	9.519400e-01	-1.218435e-04	0.0	9.584700e-01	-2.603855e-04	0.0	9.645400e-01	-9.125400e-05	0.0	9.701500e-01	2.734295e-04	0.0	9.752800e-01	6.893889e-04	0.0	9.799500e-01	1.027549e-03	0.0	9.841300e-01	1.203720e-03	0.0	9.878400e-01	1.199368e-03	0.0	9.910500e-01	1.048342e-03	0.0	9.937800e-01	8.114772e-04	0.0	9.960200e-01	5.523192e-04	0.0	9.977600e-01	3.205336e-04	0.0	9.990000e-01	1.448360e-04	0.0	9.997500e-01	3.632235e-05	0.0	1.000000e+00	0.000000e+00	0.0	1.984229e+01	2.506660e+00	0.0	1.937166e+01	4.973800e+00	0.0	1.859553e+01	7.362490e+00	0.0	1.752613e+01	9.635070e+00	0.0	1.618034e+01	1.175571e+01	0.0	1.457937e+01	1.369094e+01	0.0	1.274848e+01	1.541027e+01	0.0	1.071654e+01	1.688656e+01	0.0	8.515590e+00	1.809654e+01	0.0	6.180340e+00	1.902113e+01	0.0	3.747630e+00	1.964575e+01	0.0	1.255810e+00	1.996053e+01	0.0	-1.255810e+00	1.996053e+01	0.0	-3.747630e+00	1.964574e+01	0.0	-6.180340e+00	1.902113e+01	0.0	-8.515590e+00	1.809654e+01	0.0	-1.071654e+01	1.688656e+01	0.0	-1.274848e+01	1.541026e+01	0.0	-1.457937e+01	1.369094e+01	0.0	-1.618034e+01	1.175570e+01	0.0	-1.752613e+01	9.635070e+00	0.0	-1.859553e+01	7.362490e+00	0.0	-1.937166e+01	4.973800e+00	0.0	-1.984229e+01	2.506660e+00	0.0	-2.000000e+01	0.000000e+00	0.0	-1.984229e+01	-2.506670e+00	0.0	-1.937166e+01	-4.973800e+00	0.0	-1.859553e+01	-7.362490e+00	0.0	-1.752613e+01	-9.635080e+00	0.0	-1.618034e+01	-1.175571e+01	0.0	-1.457937e+01	-1.369094e+01	0.0	-1.274848e+01	-1.541027e+01	0.0	-1.071653e+01	-1.688656e+01	0.0	-8.515580e+00	-1.809654e+01	0.0	-6.180340e+00	-1.902113e+01	0.0	-3.747620e+00	-1.964575e+01	0.0	-1.255810e+00	-1.996053e+01	0.0	1.255810e+00	-1.996053e+01	0.0	3.747630e+00	-1.964574e+01	0.0	6.180340e+00	-1.902113e+01	0.0	8.515590e+00	-1.809654e+01	0.0	1.071654e+01	-1.688656e+01	0.0	1.274848e+01	-1.541026e+01	0.0	1.457937e+01	-1.369094e+01	0.0	1.618034e+01	-1.175570e+01	0.0	1.752614e+01	-9.635070e+00	0.0	1.859553e+01	-7.362490e+00	0.0	1.937166e+01	-4.973790e+00	0.0	1.984229e+01	-2.506660e+00	0.0	2.000000e+01	0.000000e+00	0.0	6.108232e-02	-3.856081e-02	0.0	6.596471e-01	-5.151932e-02	0.0	4.254302e-01	5.882046e-02	0.0	6.898005e-01	4.704314e-02	0.0	3.791661e-01	-5.620046e-02	0.0	9.994691e-01	-7.227393e-04	0.0	9.985595e-01	-1.328271e-03	0.0	7.734543e-01	-4.544465e-02	0.0	6.893334e-01	-5.037240e-02	0.0	-8.626926e-04	5.048148e-03	0.0	7.463479e-01	-4.738123e-02	0.0	5.832999e-01	5.612216e-02	0.0	9.928441e-01	-3.814387e-03	0.0	9.899786e-01	-4.908620e-03	0.0	5.988898e-01	5.518322e-02	0.0	7.182755e-01	-4.900100e-02	0.0	-1.283658e-03	5.920503e-04	0.0	9.866337e-01	-6.208076e-03	0.0	9.828145e-01	-7.719622e-03	0.0	-9.712411e-04	-5.485580e-03	0.0	6.445651e-01	-5.201538e-02	0.0	8.242923e-01	-4.033226e-02	0.0	7.994680e-01	-4.312637e-02	0.0	3.483756e-01	5.652708e-02	0.0	8.477810e-01	-3.709050e-02	0.0	2.473450e-01	5.093334e-02	0.0	8.698682e-01	-3.352244e-02	0.0	1.068937e-02	1.558361e-02	0.0	8.904496e-01	-2.989808e-02	0.0	7.736241e-02	-4.223593e-02	0.0	9.094654e-01	-2.651242e-02	0.0	-1.513333e-03	-2.734100e-03	0.0	9.425366e-01	-2.049226e-02	0.0	9.268533e-01	-2.346407e-02	0.0	1.831638e-02	-2.313416e-02	0.0	4.256586e-01	-5.565802e-02	0.0	8.590091e-01	-3.533073e-02	0.0	9.564377e-01	-1.714995e-02	0.0	9.785100e-01	-9.456862e-03	0.0	9.684513e-01	-1.330833e-02	0.0	1.586270e-01	-5.267798e-02	0.0	9.001590e-01	-2.816193e-02	0.0	7.600321e-01	-4.645661e-02	0.0	9.971462e-01	-2.093343e-03	0.0	5.985471e-01	-5.321681e-02	0.0	4.413184e-01	-5.546841e-02	0.0	5.359392e-01	-5.428723e-02	0.0	4.728040e-01	-5.508860e-02	0.0	5.043789e-01	-5.470190e-02	0.0	4.885796e-01	-5.489595e-02	0.0	1.253053e-01	-4.957730e-02	0.0	2.820249e-02	-2.788447e-02	0.0	3.945706e-01	-5.602804e-02	0.0	4.656321e-02	-3.452889e-02	0.0	4.100694e-01	-5.584662e-02	0.0	3.189064e-01	-5.670002e-02	0.0	3.487341e-01	-5.650487e-02	0.0	3.385982e-02	-3.015705e-02	0.0	2.897615e-01	-5.674127e-02	0.0	9.349133e-01	-2.199613e-02	0.0	1.471665e-01	-5.174891e-02	0.0	1.950022e-01	-5.483246e-02	0.0	8.613860e-02	-4.392196e-02	0.0	1.049361e-01	-4.697662e-02	0.0	5.673709e-01	-5.381575e-02	0.0	1.704300e-01	-5.350192e-02	0.0	6.140068e-01	-5.285894e-02	0.0	8.803551e-01	-3.169841e-02	0.0	2.303172e-02	-2.553933e-02	0.0	9.952394e-01	-2.899883e-03	0.0	7.112516e-03	-1.574243e-02	0.0	1.870322e-02	1.930312e-02	0.0	9.183655e-01	-2.495344e-02	0.0	9.49
[...]
POINT_DATA 5233

SCALARS Conservative_1 float 1
LOOKUP_TABLE default
1.194251e+00	1.177578e+00	1.169907e+00	1.166577e+00	1.164685e+00	1.161510e+00	1.153353e+00	1.137573e+00	1.111949e+00	1.076199e+00	1.031015e+00	9.780959e-01	9.323797e-01	9.126978e-01	9.190280e-01	9.397013e-01	9.629930e-01	9.802327e-01	9.880948e-01	9.868393e-01	9.778314e-01	9.629527e-01	9.443133e-01	9.236388e-01	9.012871e-01	8.779085e-01	8.573207e-01	8.442591e-01	8.402504e-01	8.434857e-01	8.509381e-01	8.599548e-01	8.689456e-01	8.769752e-01	8.838271e-01	8.895517e-01	8.943627e-01	8.985398e-01	9.023073e-01	9.059309e-01	9.095503e-01	9.132973e-01	9.171787e-01	9.211872e-01	9.252239e-01	9.291951e-01	9.329581e-01	9.364045e-01	9.394075e-01	9.418772e-01	9.437119e-01	9.448563e-01	9.452544e-01	9.448889e-01	9.437458e-01	9.418336e-01	9.391666e-01	9.357772e-01	9.317071e-01	9.269966e-01	9.217111e-01	9.158850e-01	9.095633e-01	9.027231e-01	8.954359e-01	8.878381e-01	8.801730e-01	8.723754e-01	8.640023e-01	8.543962e-01	8.438108e-01	8.339437e-01	8.268765e-01	8.234713e-01	8.234982e-01	8.261890e-01	8.310710e-01	8.378500e-01	8.462206e-01	8.560016e-01	8.671721e-01	8.796890e-01	8.936192e-01	9.089696e-01	9.258179e-01	9.442999e-01	9.644710e-01	9.864849e-01	1.010605e+00	1.036952e+00	1.065933e+00	1.098078e+00	1.133729e+00	1.173628e+00	1.217903e+00	1.265464e+00	1.310654e+00	1.348691e+00	1.347063e+00	1.319756e+00	1.295068e+00	1.221694e+00	1.084733e+00	9.820157e-01	9.094017e-01	8.615829e-01	8.314799e-01	8.123087e-01	7.995652e-01	7.910112e-01	7.853770e-01	7.818158e-01	7.799681e-01	7.792652e-01	7.794056e-01	7.804905e-01	7.830605e-01	7.887176e-01	7.997365e-01	8.165480e-01	8.349033e-01	8.485139e-01	8.553663e-01	8.576241e-01	8.586276e-01	8.605055e-01	8.635440e-01	8.668822e-01	8.696072e-01	8.713922e-01	8.723651e-01	8.727440e-01	8.726391e-01	8.720454e-01	8.709275e-01	8.692518e-01	8.670262e-01	8.642614e-01	8.609675e-01	8.571539e-01	8.528171e-01	8.479793e-01	8.427301e-01	8.372102e-01	8.315305e-01	8.257380e-01	8.197903e-01	8.135878e-01	8.068497e-01	7.994350e-01	7.918097e-01	7.865455e-01	7.891074e-01	8.063659e-01	8.363191e-01	8.634584e-01	8.772398e-01	8.828465e-01	8.885661e-01	8.980166e-01	9.101931e-01	9.227764e-01	9.348503e-01	9.466442e-01	9.581910e-01	9.692546e-01	9.795527e-01	9.889912e-01	9.974909e-01	1.005140e+00	1.012009e+00	1.018270e+00	1.024160e+00	1.029930e+00	1.035868e+00	1.042276e+00	1.049504e+00	1.058002e+00	1.068249e+00	1.080738e+00	1.095588e+00	1.112327e+00	1.129572e+00	1.145384e+00	1.157456e+00	1.163497e+00	1.161493e+00	1.150133e+00	1.129281e+00	1.101303e+00	1.072415e+00	1.050338e+00	1.042452e+00	1.051776e+00	1.073917e+00	1.100995e+00	1.127926e+00	1.154300e+00	1.182399e+00	1.173187e+00	9.999809e-01	9.999873e-01	9.999820e-01	9.999706e-01	9.999599e-01	9.999472e-01	9.999263e-01	9.998945e-01	9.998570e-01	9.998234e-01	9.997998e-01	9.998044e-01	9.998377e-01	9.999064e-01	9.999657e-01	1.000013e+00	1.000038e+00	1.000052e+00	1.000059e+00	1.000061e+00	1.000062e+00	1.000061e+00	1.000060e+00	1.000061e+00	1.000061e+00	1.000063e+00	1.000066e+00	1.000070e+00	1.000077e+00	1.000085e+00	1.000094e+00	1.000107e+00	1.000118e+00	1.000130e+00	1.000135e+00	1.000129e+00	1.000111e+00	1.000088e+00	1.000072e+00	1.000064e+00	1.000064e+00	1.000063e+00	1.000060e+00	1.000054e+00	1.000045e+00	1.000033e+00	1.000026e+00	1.000022e+00	9.999991e-01	9.999750e-01	9.163563e-01	9.061174e-01	8.327204e-01	9.328032e-01	9.375554e-01	1.177707e+00	1.170170e+00	8.612074e-01	8.987464e-01	1.215887e+00	8.770633e-01	8.573659e-01	1.153715e+00	1.146589e+00	8.794812e-01	8.895995e-01	1.315152e+00	1.134931e+00	1.116792e+00	1.328335e+00	9.096280e-01	8.580441e-01	8.488111e-01	8.579379e-01	8.969514e-01	8.746743e-01	9.377608e-01	8.746641e-01	9.693590e-01	8.868632e-01	9.839368e-01	1.344913e+00	9.411401e-01	9.721865e-01	1.073181e+00	9.439685e-01	9.185589e-01	9.423655e-01	1.091235e+00	1.017664e+00	8.317888e-01	9.795571e-01	8.693581e-01	1.162888e+00	9.206023e-01	9.446815e-01	9.351302e-01	9.439834e-01	9.406349e-01	9.426201e-01	8.380312e-01	1.018164e+00	9.403919e-01	9.518087e-01	9.425355e-01	9.200540e-01	9.299469e-01	9.940968e-01	9.081723e-01	9.571498e-01	8.310682e-01	8.543238e-01	8.742277e-01	8.530402e-01	9.281711e-01	8.362013e-01	9.168452e-01	9.548883e-01	1.044435e+00	1.158460e+00	1.177052e+00	8.291537e-01	9.815353e-01	9.329630e-01	1.058376e+00	1.124753e+00	8.750957e-01	8.872972e-01	9.317848e-01	8.838203e-01	8.536913e-01	8.446597e-01	8.727443e-01	9.244121e-01	9.025541e-01	9.333023e-01	1.217524e+00	1.104685e+00	9.340592e-01	8.442478e-01	1.204930e+00	8.801859e-01	8.629522e-01	9.143529e-01	8.944555e-01	9.446830e-01	8.945160e-01	1.285078e+00	1.298840e+00	7.915766e-01	1.330634e+00	8.066632e-01	7.923647e-01	7.962615e-01	8.588766e-01	8.381836e-01	1.119341e+00	7.943686e-01	8.153064e-01	1.110299e+00	1.141417e+00	1.064748e+00	8.086516e-01	8.271497e-01	8.487032e-01	1.116298e+00	1.088093e+00	8.009821e-01	1.089515e+00	1.147466e+00	1.140432e+00	8.318561e-01	7.923349e-01	8.705518e-01	8.738151e-01	8.682335e-01	8.652324e-01	8.213940e-01	8.435369e-01	8.630241e-01	8.622387e-01	8.912500e-01	8.733519e-01	8.750432e-01	9.086120e-01	8.244887e-01	9.760387e-01	9.551369e-01	1.009111e+00	9.940729e-01	1.034068e+00	1.021943e+00	1.075590e+00	1.047527e+00	1.146833e+00	1.101962e+00	1.128629e+00	1.040492e+00	1.055501e+00	1.015720e+00	1.027974e+00	9.854535e-01	1.001950e+00	9.440872e-01	9.658765e-01	8.978930e-01	9.209095e-01	7.997282e-01	8.876072e-01	8.745405e-01	8.750726e-01	8.651124e-01	8.712297e-01	7.936876e-01	8.625034e-01	8.478889e-01	8.003972e-01	8.642366e-01	9.678291e-01	9.736916e-01	8.493671e-01	9.252578e-01	9.381149e-01	1.039716e+00	8.159001e-01	9.131442e-01	8.137865e-01	7.945325e-01	8.724445e-01	8.487817e-01	1.071449e+00	1.061551e+00	8.681402e-01	1.063640e+00	1.076870e+00	8.618356e-01	8.535451e-01	1.129691e+00	1.198097e+00	1.142394e+00	1.162986e+00	9.131802e-01	9.720349e-01	1.096994e+00	8.013008e-01	1.259621e+00	1.139331e+00	9.008874e-01	8.333853e-01	9.014927e-01	8.079079e-01	1.194367e+00	1.258703e+00	9.072365e-01	8.991384e-01	9.797791e-01	1.170163e+00	8.490441e-01	9.029678e-01	8.639465e-01	1.130391e+00	9.237890e-01	9.150923e-01	8.768916e-01	8.822113e-01	1.302778e+00	8.733817e-01	1.104834e+00	9.781874e-01	8.406271e-01	8.947901e-01	9.099422e-01	9.442255e-01	8.948048e-01	9.389352e-01	9.723483e-01	8.590290e-01	9.478685e-01	8.577553e-01	9.198823e-01	1.032072e+00	8.592367e-01	9.312359e-01	8.702078e-01	1.053018e+00	1.075850e+00	8.628417e-01	8.042011e-01	1.133811e+00	1.061439e+00	1.081843e+00	1.131715e+00	1.086806e+00	8.773061e-01	8.663175e-01	8.775458e-01	8.464705e-01	9.065367e-01	8.649582e-01	9.092212e-01	8.666591e-01	8.088811e-01	1.113659e+00	1.094744e+00	1.070911e+00	8.422156e-01	1.207960e+00	1.129509e+00	1.111196e+00	9.978887e-01	1.124478e+00	1.205386e+00	1.331058e+00	1.318705e+00	1.075414e+00	1.211346e+00	9.239949e-01	1.159916e+00	1.147678e+00	8.396859e-01	9.340082e-01	1.116196e+00	9.484154e-01	8.756882e-01	1.140558e+00	1.325634e+00	9.438853e-01	8.447693e-01	8.954211e-01	8.739498e-01	9.328087e-01	9.619070e-01	9.087213e-01	9.785384e-01	9.758665e-01	9.524518e-01	1.023227e+00	9.577301e-01	1.009812e+00	1.096724e+00	8.465605e-01	8.776142e-01	8.706593e-01	1.153655e+00	9.439169e-01	9.429845e-01	9.414516e-01	1.048398e+00	9.412393e-01	9.428950e-01	9.283925e-01	9.786344e-01	9.677241e-01	9.581161e-01	8.422992e-01	8.709342e-01	9.307997e-01	9.203148e-01	1.042909e+00	1.072176e+00	8.898404e-01	8.841369e-01	8.611460e-01	8.529400e-01	9.273963e-01	9.238578e-01	9.589561e-01	9.407558e-01	1.136338e+00	9.324664e-01	9.360012e-01	8.476266e-01	8.558016e-01	8.807720e-01	8.875297e-01	9.131979e-01	9.187321e-01	8.942202e-01	1.301103e+00	1.241575e+00	8.133105e-01	1.077594e+00	7.996403e-01	8.108680e-01	8.175253e-01	8.235380e-01	1.100011e+00	1.124795e+00	1.104499e+00	8.291385e-01	8.344867e-01	8.497340e-01	1.092840e+00	1.131292e+00	8.053565e-01	8.061103e-01	8.766548e-01	8.755399e-01	8.678019e-01	8.665609e-01	8.652623e-01	1.006122e+00	9.728762e-01	9.629821e-01	9.987831e-01	1.025802e+00	1.081429e+00	1.045448e+00	1.038537e+00	1.019551e+00	1.013047e+00	9.907827e-01	9.821541e-01	9.526558e-01	9.420884e-01	9.087920e-01	8.999263e-01	8.193847e-01	8.025496e-01	8.943994e-01	8.890403e-01	8.773650e-01	8.766727e-01	8.752506e-01	8.729924e-01	8.800292e-01	8.197686e-01	8.288234e-01	8.581105e-01	8.637537e-01	9.394140e-01	9.368953e-01	1.058494e+00	8.411257e-01	8.298801e-01	8.158365e-01	8.693273e-01	8.718689e-01	8.544894e-01	8.588987e-01	1.124872e+00	1.115550e+00	9.167892e-01	9.133536e-01	9.999744e-01	1.275970e+00	9.008324e-01	1.299676e+00	9.401014e-01	9.124915e-01	8.695979e-01	9.359064e-01	9.777886e-01	1.087704e+00	1.084767e+00	1.118508e+00	1.070585e+00	1.096250e+00	1.147203e+00	1.172399e+00	1.149602e+00	1.193790e+00	1.077533e+00	1.281014e+00	8.908916e-01	9.744295e-01	1.127464e+00	8.429508e-01	1.168638e+00	1.194249e+00	8.999111e-01	1.254555e+00	8.956727e-01	1.104407e+00	9.445067e-01	1.163279e+00	9.271869e-01	9.301325e-01	9.037438e-01	1.136459e+00	1.133313e+00	1.094306e+00	8.097549e-01	1.121844e+00	9.200910e-01	1.108379e+00	8.144394e-01	8.772161e-01	8.675704e-01	8.725443e-01	8.180803e-01	1.161110e+00	1.276355e+00	1.177784e+00	9.061228e-01	1.235988e+00	1.008348e+00	9.033854e-01	1.311743e+00	8.503994e-01	9.437932e-01	1.052192e+00	9.732129e-01	1.030069e+00	1.003565e+00	9.307458e-01	1.087291e+00	1.121911e+00	1.066460e+00	1.058012e+00	8.706224e-01	8.754567e-01	8.798768e-01	8.577761e-01	9.105734e-01	9.072460e-01	8.744164e-01	9.362043e-01	8.710740e-01	1.103283e+00	1.120481e+00	1.018526e+00	1.124830e+00	1.225091e+00	1.308969e+00	1.028164e+00	1.179820e+00	1.172645e+00	1.034958e+00	1.116145e+00	8.708100e-01	9.437640e-01	8.465057e-01	8.959474e-01	9.136736e-01	9.570090e-01	9.672901e-01	9.322028e-01	9.171718e-01	9.744684e-01	9.780339e-01	9.710495e-01	9.851080e-01	1.101417e+00	8.795400e-01	8.739610e-01	1.142799e+00	9.432391e-01	9.421005e-01	9.419301e-01	9.431405e-01	1.006081e+00	9.696917e-01	9.670629e-01	8.557341e-01	8.517437e-01	9.331274e-01	9.301091e-01	1.060203e+00	1.082533e+00	8.908366e-01	8.854461e-01	8.797422e-01	8.698344e-01	8.617094e-01	9.269081e-01	9.236299e-01	9.857482e-01	9.665691e-01	9.486352e-01	9.311725e-01	9.347037e-01	9.376796e-01	8.529061e-01	8.586431e-01	8.664187e-01	8.817975e-01	8.883525e-01	9.178301e-01	9.227053e-01	8.946325e-01	8.292871e-01	8.203762e-01	8.261564e-01	1.111954e+00	8.316176e-01	8.367533e-01	8.416970e-01	8.511872e-01	1.094908e+00	8.194435e-01	8.233656e-01	8.785202e-01	8.794040e-01	8.707947e-01	8.705151e-01	8.670978e-01	9.706602e-01	1.085219e+00	1.075527e+00	1.050260e+00	1.043145e+00	1.036545e+00	1.023663e+00	1.017255e+00	1.010594e+00	9.961780e-01	9.882387e-01	9.797113e-01	9.611326e-01	9.512490e-01	9.411661e-01	9.103706e-01	8.191214e-01	8.095751e-01	9.030879e-01	8.975312e-01	8.891257e-01	8.799794e-01	8.796332e-01	8.787175e-01	8.770744e-01	8.748362e-01	8.376200e-01	8.489016e-01	8.678819e-01	8.712483e-01	8.807321e-01	9.404762e-01	9.383734e-01	8.635971e-01	8.822331e-01	8.435051e-01	8.296978e-01	8.209840e-01	8.732673e-01	8.557590e-01	8.601222e-01	8.640965e-01	1.118480e+00	1.112362e+00	1.104268e+00	9.203285e-01	9.170590e-01	9.138120e-01	9.007595e-01	9.068072e-01	1.274752e+00	9.001107e-01	1.115136e+00	1.092935e+00	9.352008e-01	1.254927e+00	1.154979e+00	9.786842e-01	9.777989e-01	1.032281e+00	1.097458e+00	8.246573e-01	1.252599e+00	9.595715e-01	1.181422e+00	1.111311e+00	1.105503e+00	1.163408e+00	9.207005e-01	1.121065e+00	1.177258e+00	1.180993e+00	8.768723e-01	8.618908e-01	1.078607e+00	9.410349e-01	9.124630e-01	9.435067e-01	9.175002e-01	1.090792e+00	8.394190e-01	1.112338e+00	1.110990e+00	1.001503e+00	8.759231e-01	8.805183e-01	1.115327e+00	8.329899e-01	9.429959e-01	1.133227e+00	1.092163e+00	1.139590e+00	1.052063e+00	1.102693e+00	9.046632e-01	1.208069e+00	9.014762e-01	8.967854e-01	1.128573e+00	1.124789e+00	1.155049e+00	1.027829e+00	8.193539e-01	8.749105e-01	1.211775e+00	9.939729e-01	9.310499e-01	1.062630e+00	8.722696e-01	8.771854e-01	8.790528e-01	9.112762e-01	9.085197e-01	1.097570e+00	1.032955e+00	1.076652e+00	1.233184e+00	1.285810e+00	1.054829e+00	1.031262e+00	1.103405e+00	8.664869e-01	9.150532e-01	9.297622e-01	9.544185e-01	9.641094e-01	9.405724e-01	9.259401e-01	9.714950e-01	9.763969e-01	9.786586e-01	9.933753e-01	1.010645e+00	8.825264e-01	8.804120e-01	1.132813e+00	9.432917e-01	9.425249e-01	9.423897e-01	9.432121e-01	9.780314e-01	9.824224e-01	8.663287e-01	8.621342e-01	9.327019e-01	1.071434e+00	1.088788e+00	8.930235e-01	8.876741e-01	8.889721e-01	8.794508e-01	8.720941e-01	9.296481e-01	9.268992e-01	1.012113e+00	9.925362e-01	9.736290e-01	9.562612e-01	9.302358e-01	9.336832e-01	9.366126e-01	9.390882e-01	8.648459e-01	8.703017e-01	8.769131e-01	8.837930e-01	8.900479e-01	9.264172e-01	9.221106e-01	8.960136e-01	8.297109e-01	1.103080e+00	1.108024e+00	8.349126e-01	8.397629e-01	8.444432e-01	8.489533e-01	8.533449e-01	8.383731e-01	8.462494e-01	8.815872e-01	8.822901e-01	8.753248e-01	8.750895e-01	8.732650e-01	8.667959e-01	1.087032e+00	1.078794e+00	1.070666e+00	1.055032e+00	1.047944e+00	1.041331e+00	1.034071e+00	1.022236e+00	1.014961e+00	1.008417e+00	9.939388e-01	9.862860e-01	9.777455e-01	9.693037e-01	9.597263e-01	9.506706e-01	9.403332e-01	8.200023e-01	8.222187e-01	9.138751e-01	9.064085e-01	8.997005e-01	8.865939e-01	8.826225e-01	8.825587e-01	8.819730e-01	8.807949e-01	8.790970e-01	8.772528e-01	8.559782e-01	8.689132e-01	8.806226e-01	8.876483e-01	8.996776e-01	9.412340e-01	9.396737e-01	9.376821e-01	8.856328e-01	9.058283e-01	9.299888e-01	8.553928e-01	8.429676e-01	8.346338e-01	8.315820e-01	8.575834e-01	8.617009e-01	8.657241e-01	8.692174e-01	1.094812e+00	1.107287e+00	1.101877e+00	9.235768e-01	9.208365e-01	9.174428e-01	9.147712e-01	9.016009e-01	9.071870e-01	9.124430e-01	1.123714e+00	1.112000e+00	1.047606e+00	1.168067e+00	1.147171e+00	9.014516e-01	9.099927e-01	1.169999e+00	1.095018e+00	1.214200e+00	1.056784e+00	8.740967e-01	8.804657e-01	1.010515e+00	1.117351e+00	1.225569e+00	1.288045e+00	1.289741e+00	1.274621e+00	1.231567e+00	1.133800e+00	8.771909e-01	1.063925e+00	1.114542e+00	9.867004e-01	8.883036e-01	9.418338e-01	1.103433e+00	1.087673e+00	1.101460e+00	8.354213e-01	8.298465e-01	9.276444e-01	9.956869e-01	8.347842e-01	9.360579e-01	8.739960e-01	1.098104e+00	9.221040e-01	1.154276e+00	1.093794e+00	1.284735e+00	1.175906e+00	1.167635e+00	9.829076e-01	1.036849e+00	1.249722e+00	9.791985e-01	1.192642e+00	1.103996e+00	1.152467e+00	1.168944e+00	1.170333e+00	1.101067e+00	9.257530e-01	9.218815e-01	1.094705e+00	8.607764e-01	1.103689e+00	1.104467e+00	9.081332e-01	1.190762e+00	8.790188e-01	8.814167e-01	8.825471e-01	9.141538e-01	1.044116e+00	1.080306e+00	1.260825e+00	1.079310e+00	9.321685e-01	9.424065e-01	9.535983e-01	9.625300e-01	9.351357e-01	9.498563e-01	9.703719e-01	9.757215e-01	9.796327e-01	9.823081e-01	1.014605e+00	1.030779e+00	8.899214e-01	1.122748e+00	9.432891e-01	9.428877e-01	9.426981e-01	9.431502e-01	9.918987e-01	1.000996e+00	8.769883e-01	8.720508e-01	1.079187e+00	1.092800e+00	8.956061e-01	8.988422e-01	8.885951e-01	8.840868e-01	9.310716e-01	1.017868e+00	9.990547e-01	9.809648e-01	9.651918e-01	9.295680e-01	9.328044e-01	9.357444e-01	9.382166e-01	9.402111e-01	8.751965e-01	8.808082e-01	8.855328e-01	8.920386e-01	8.972054e-01	1.097567e+00	1.100470e+00	1.102826e+00	8.383987e-01	8.439139e-01	8.474222e-01	8.524823e-01	8.557774e-01	8.544176e-01	8.638135e-01	8.842414e-01	8.847004e-01	8.792563e-01	8.785275e-01	8.741852e-01	1.080049e+00	1.073532e+00	1.065895e+00	1.059048e+00	1.051910e+00	1.045466e+00	1.038450e+00	1.028900e+00	1.020109e+00	1.009314e+00	9.803852e-01	9.633523e-01	9.448546e-01	9.133562e-01	8.913828e-01	8.856602e-01	8.853682e-01	8.854632e-01	8.842144e-01	8.836296e-01	8.822529e-01	8.811700e-01	8.755276e-01	8.892511e-01	8.952149e-01	9.031009e-01	9.176634e-01	9.418035e-01	9.397523e-01	9.066571e-01	9.280146e-01	9.517563e-01	8.657856e-01	8.558335e-01	8.487566e-01	8.472181e-01	8.492559e-01	8.604006e-01	8.634258e-01	8.675409e-01	8.715851e-01	1.098167e+00	1.092209e+00	9.255330e-01	9.198834e-01	9.030517e-01	9.077169e-01	9.129796e-01	9.172902e-01	1.161470e+00	1.141456e+00	1.158896e+00	1.245589e+00	1.173482e+00	1.072005e+00	1.097924e+00	1.172799e+00	1.097131e+00	1.135799e+00	1.095346e+00	1.238815e+00	1.058685e+00	1.138871e+00	8.780012e-01	1.169107e+00	1.052094e+00	1.142080e+00	1.118520e+00	1.058998e+00	9.385632e-01	1.095360e+00	9.272424e-01	9.990121e-01	9.901261e-01	9.247819e-01	9.200349e-01	8.848506e-01	1.211652e+00	9.426010e-01	9.458322e-01	9.330096e-01	8.837409e-01	1.094505e+00	1.082265e+00	1.201720e+00	1.023091e+00	1.045480e+00	1.160810e+00	1.094265e+00	1.285513e+00	1.226888e+00	1.105223e+00	9.035541e-01	8.411696e-01	8.459129e-01	1.102042e+00	1.165703e+00	1.117079e+00	1.263234e+00	1.170562e+00	1.040961e+00	1.196235e+00	1.178197e+00	8.569604e-01	1.078497e+00	1.097162e+00	1.095046e+00	8.419784e-01	8.825308e-01	8.858973e-01	9.087778e-01	1.082296e+00	1.112776e+00	1.099130e+00	9.491280e-01	9.658437e-01	9.588977e-01	9.785582e-01	9.856252e-01	1.031789e+00	1.113866e+00	9.431574e-01	1.007911e+00	1.018819e+00	8.855252e-01	1.084167e+00	8.991943e-01	8.974978e-01	9.046864e-01	8.945157e-01	9.347203e-01	1.023250e+00	1.004561e+00	9.874620e-01	9.758492e-01	9.335751e-01	9.384380e-01	9.413013e-01	8.913787e-01	9.014076e-01	1.095468e+00	1.096543e+00	8.536056e-01	8.611363e-01	8.820252e-01	8.880163e-01	8.808571e-01	1.015760e+00	1.070875e+00	1.057996e+00	1.045433e+00	1.034578e+00	1.025408e+00	1.003872e+00	9.901502e-01	9.748814e-01	9.579071e-01	9.409157e-01	9.264508e-01	9.100622e-01	8.846849e-01	8.886613e-01	8.879194e-01	8.872808e-01	8.857712e-01	8.857864e-01	8.955033e-01	9.100434e-01	9.020540e-01	9.143776e-01	9.338467e-01	9.425562e-01	9.410571e-01	9.270203e-01	9.479370e-01	9.711974e-01	9.957793e-01	8.751286e-01	8.677732e-01	8.624808e-01	8.621936e-01	8.670005e-01	8.698568e-01	8.676869e-01	8.735917e-01	1.094304e+00	1.089728e+00	9.299109e-01	9.196061e-01	9.143232e-01	9.111999e-01	9.197560e-01	1.106639e+00	1.160535e+00	1.156153e+00	1.123758e+00	1.003021e+00	1.100089e+00	1.165384e+00	1.129928e+00	1.164889e+00	1.113646e+00	1.142576e+00	1.120377e+00	1.082987e+00	1.181497e+00	1.217972e+00	1.092194e+00	9.074281e-01	8.799586e-01	1.113271e+00	9.869542e-01	1.077722e+00	8.939319e-01	1.057938e+00	1.148465e+00	9.422783e-01	1.012717e+00	9.245912e-01	9.376048e-01	1.067009e+00	1.077553e+00	1.060399e+00	1.045173e+00	1.161997e+00	1.094415e+00	1.096610e+00	1.091664e+00	8.879205e-01	8.807529e-01	9.152394e-01	9.671391e-01	1.138222e+00	1.145914e+00	1.261996e+00	1.055890e+00	1.091954e+00	1.167928e+00	1.087621e+00	1.157629e+00	1.130919e+00	9.404101e-01	1.206346e+00	9.575920e-01	9.424714e-01	1.093088e+00	1.221891e+00	1.044605e+00	1.096898e+00	9.108324e-01	1.239682e+00	1.169478e+00	9.829150e-01	1.193629e+00	1.179989e+00	8.510518e-01	1.095953e+00	1.090063e+00	8.598954e-01	8.842066e-01	9.055320e-01	1.108136e+00	1.132654e+00	9.632999e-01	9.766632e-01	9.940410e-01	1.002360e+00	1.106112e+00	9.431260e-01	1.022695e+00	1.033297e+00	9.404162e-01	9.190210e-01	9.341943e-01	9.062411e-01	9.282207e-01	9.146311e-01	9.036483e-01	1.027094e+00	9.319782e-01	9.369637e-01	8.968025e-01	8.963926e-01	9.199200e-01	1.092443e+00	8.515781e-01	8.566794e-01	8.879253e-01	1.073077e+00	1.062274e+00	1.021314e+00	1.050766e+00	1.040013e+00	1.030496e+00	1.010905e+00	9.986832e-01	9.850098e-01	9.698557e-01	9.537168e-01	9.386757e-01	9.242913e-01	8.905986e-01	8.920488e-01	8.923610e-01	8.920524e-01	8.907202e-01	8.900736e-01	9.145647e-01	9.304411e-01	9.094682e-01	9.493973e-01	9.431261e-01	9.421815e-01	9.465439e-01	9.656645e-01	9.875840e-01	1.009789e+00	1.033233e+00	8.848154e-01	8.806532e-01	8.769316e-01	8.771766e-01	8.829236e-01	8.633248e-01	8.695762e-01	8.751443e-01	1.087601e+00	1.081574e+00	9.337433e-01	9.292451e-01	9.020621e-01	9.105808e-01	9.188409e-01	9.258937e-01	1.141006e+00	1.148336e+00	1.145570e+00	1.108954e+00	1.144181e+00	1.127170e+00	1.103280e+00	1.025306e+00	1.165528e+00	1.113496e+00	1.110382e+00	1.053468e+00	1.156060e+00	1.088152e+00	8.932400e-01	1.131716e+00	1.135867e+00	1.108056e+00	1.160561e+00	1.062257e+00	9.138922e-01	1.006335e+00	9.959651e-01	9.147157e-01	1.127194e+00	1.120555e+00	1.116892e+00	1.165513e+00	1.152353e+00	8.811147e-01	9.