# vtk DataFile Version 3.0
vtk output
ASCII
DATASET UNSTRUCTURED_GRID
POINTS 200 float
9.997500e-01	-3.633500e-05	0.0	9.990000e-01	-1.456344e-04	0.0	9.977600e-01	-3.292787e-04	0.0	9.960200e-01	-5.994379e-04	0.0	9.937800e-01	-9.811616e-04	0.0	9.910500e-01	-1.515061e-03	0.0	9.878400e-01	-2.253053e-03	0.0	9.841300e-01	-3.250491e-03	0.0	9.799500e-01	-4.521735e-03	0.0	9.752800e-01	-6.044178e-03	0.0	9.701500e-01	-7.721673e-03	0.0	9.645400e-01	-9.433177e-03	0.0	9.584700e-01	-1.104142e-02	0.0	9.519400e-01	-1.245473e-02	0.0	9.449600e-01	-1.364655e-02	0.0	9.375400e-01	-1.466038e-02	0.0	9.296900e-01	-1.558662e-02	0.0	9.214000e-01	-1.653009e-02	0.0	9.127000e-01	-1.757219e-02	0.0	9.035800e-01	-1.876171e-02	0.0	8.940600e-01	-2.010283e-02	0.0	8.841500e-01	-2.156740e-02	0.0	8.738500e-01	-2.310820e-02	0.0	8.631800e-01	-2.466769e-02	0.0	8.521600e-01	-2.619178e-02	0.0	8.407700e-01	-2.764181e-02	0.0	8.290500e-01	-2.898434e-02	0.0	8.170100e-01	-3.020380e-02	0.0	8.046400e-01	-3.129816e-02	0.0	7.919700e-01	-3.227076e-02	0.0	7.790100e-01	-3.313318e-02	0.0	7.657800e-01	-3.389953e-02	0.0	7.522800e-01	-3.458571e-02	0.0	7.385200e-01	-3.520564e-02	0.0	7.245300e-01	-3.577002e-02	0.0	7.103200e-01	-3.628757e-02	0.0	6.958900e-01	-3.676433e-02	0.0	6.812700e-01	-3.720285e-02	0.0	6.664700e-01	-3.760466e-02	0.0	6.515000e-01	-3.797032e-02	0.0	6.363800e-01	-3.830000e-02	0.0	6.211300e-01	-3.859448e-02	0.0	6.057600e-01	-3.885574e-02	0.0	5.902800e-01	-3.908699e-02	0.0	5.747100e-01	-3.929258e-02	0.0	5.590600e-01	-3.947810e-02	0.0	5.433600e-01	-3.964978e-02	0.0	5.276100e-01	-3.981457e-02	0.0	5.118400e-01	-3.997906e-02	0.0	4.960500e-01	-4.014966e-02	0.0	4.802700e-01	-4.033156e-02	0.0	4.645100e-01	-4.052892e-02	0.0	4.487800e-01	-4.074444e-02	0.0	4.331100e-01	-4.097893e-02	0.0	4.175000e-01	-4.123195e-02	0.0	4.019700e-01	-4.150117e-02	0.0	3.865400e-01	-4.178274e-02	0.0	3.712300e-01	-4.207151e-02	0.0	3.560400e-01	-4.236160e-02	0.0	3.409900e-01	-4.264591e-02	0.0	3.261100e-01	-4.291660e-02	0.0	3.114000e-01	-4.316600e-02	0.0	2.968700e-01	-4.338610e-02	0.0	2.825500e-01	-4.356867e-02	0.0	2.684500e-01	-4.370600e-02	0.0	2.545700e-01	-4.379075e-02	0.0	2.409400e-01	-4.381577e-02	0.0	2.275700e-01	-4.377458e-02	0.0	2.144700e-01	-4.366115e-02	0.0	2.016600e-01	-4.347011e-02	0.0	1.891400e-01	-4.319633e-02	0.0	1.769300e-01	-4.283551e-02	0.0	1.650400e-01	-4.238369e-02	0.0	1.534900e-01	-4.183792e-02	0.0	1.422900e-01	-4.119555e-02	0.0	1.314400e-01	-4.045370e-02	0.0	1.209500e-01	-3.961050e-02	0.0	1.108500e-01	-3.866667e-02	0.0	1.011300e-01	-3.762016e-02	0.0	9.181000e-02	-3.647244e-02	0.0	8.290000e-02	-3.522505e-02	0.0	7.440000e-02	-3.387880e-02	0.0	6.633000e-02	-3.243857e-02	0.0	5.869000e-02	-3.090700e-02	0.0	5.149000e-02	-2.928940e-02	0.0	4.474000e-02	-2.759233e-02	0.0	3.844000e-02	-2.582075e-02	0.0	3.260000e-02	-2.398296e-02	0.0	2.723000e-02	-2.208854e-02	0.0	2.232000e-02	-2.014005e-02	0.0	1.790000e-02	-1.815625e-02	0.0	1.395000e-02	-1.613460e-02	0.0	1.049000e-02	-1.409028e-02	0.0	7.520000e-03	-1.202801e-02	0.0	5.040000e-03	-9.949186e-03	0.0	3.050000e-03	-7.849179e-03	0.0	1.560000e-03	-5.728491e-03	0.0	5.600000e-04	-3.543465e-03	0.0	6.000000e-05	-1.232105e-03	0.0	0.000000e+00	0.000000e+00	0.0	6.000000e-05	1.187363e-03	0.0	5.600000e-04	3.302620e-03	0.0	1.560000e-03	5.192253e-03	0.0	3.050000e-03	6.936280e-03	0.0	5.040000e-03	8.586985e-03	0.0	7.520000e-03	1.015683e-02	0.0	1.049000e-02	1.166096e-02	0.0	1.395000e-02	1.310881e-02	0.0	1.790000e-02	1.450664e-02	0.0	2.232000e-02	1.585311e-02	0.0	2.723000e-02	1.715846e-02	0.0	3.260000e-02	1.841809e-02	0.0	3.844000e-02	1.963783e-02	0.0	4.474000e-02	2.081833e-02	0.0	5.149000e-02	2.196057e-02	0.0	5.869000e-02	2.306730e-02	0.0	6.633000e-02	2.413962e-02	0.0	7.440000e-02	2.517889e-02	0.0	8.290000e-02	2.618784e-02	0.0	9.181000e-02	2.716686e-02	0.0	1.011300e-01	2.811880e-02	0.0	1.108500e-01	2.904535e-02	0.0	1.209500e-01	2.994738e-02	0.0	1.314400e-01	3.082843e-02	0.0	1.422900e-01	3.168847e-02	0.0	1.534900e-01	3.252920e-02	0.0	1.650400e-01	3.335282e-02	0.0	1.769300e-01	3.416054e-02	0.0	1.891400e-01	3.495264e-02	0.0	2.016600e-01	3.572985e-02	0.0	2.144700e-01	3.649192e-02	0.0	2.275700e-01	3.723941e-02	0.0	2.409400e-01	3.797122e-02	0.0	2.545700e-01	3.868634e-02	0.0	2.684500e-01	3.938322e-02	0.0	2.825500e-01	4.005874e-02	0.0	2.968700e-01	4.071070e-02	0.0	3.114000e-01	4.133574e-02	0.0	3.261100e-01	4.192909e-02	0.0	3.409900e-01	4.248632e-02	0.0	3.560400e-01	4.300277e-02	0.0	3.712300e-01	4.347227e-02	0.0	3.865400e-01	4.388874e-02	0.0	4.019700e-01	4.424636e-02	0.0	4.175000e-01	4.453857e-02	0.0	4.331100e-01	4.475883e-02	0.0	4.487800e-01	4.490077e-02	0.0	4.645100e-01	4.495829e-02	0.0	4.802700e-01	4.492536e-02	0.0	4.960500e-01	4.479640e-02	0.0	5.118400e-01	4.456610e-02	0.0	5.276100e-01	4.422998e-02	0.0	5.433600e-01	4.378356e-02	0.0	5.590600e-01	4.322380e-02	0.0	5.747100e-01	4.254745e-02	0.0	5.902800e-01	4.175350e-02	0.0	6.057600e-01	4.084140e-02	0.0	6.211300e-01	3.981269e-02	0.0	6.363800e-01	3.867020e-02	0.0	6.515000e-01	3.741881e-02	0.0	6.664700e-01	3.606667e-02	0.0	6.812700e-01	3.462467e-02	0.0	6.958900e-01	3.310532e-02	0.0	7.103200e-01	3.152316e-02	0.0	7.245300e-01	2.989657e-02	0.0	7.385200e-01	2.824119e-02	0.0	7.522800e-01	2.657326e-02	0.0	7.657800e-01	2.490981e-02	0.0	7.790100e-01	2.326270e-02	0.0	7.919700e-01	2.163895e-02	0.0	8.046400e-01	2.004418e-02	0.0	8.170100e-01	1.847902e-02	0.0	8.290500e-01	1.694358e-02	0.0	8.407700e-01	1.543074e-02	0.0	8.521600e-01	1.393459e-02	0.0	8.631800e-01	1.245266e-02	0.0	8.738500e-01	1.097435e-02	0.0	8.841500e-01	9.494975e-03	0.0	8.940600e-01	8.012515e-03	0.0	9.035800e-01	6.528510e-03	0.0	9.127000e-01	5.058752e-03	0.0	9.214000e-01	3.640740e-03	0.0	9.296900e-01	2.331547e-03	0.0	9.375400e-01	1.215325e-03	0.0	9.449600e-01	3.755120e-04	0.0	9.519400e-01	-1.218435e-04	0.0	9.584700e-01	-2.603855e-04	0.0	9.645400e-01	-9.125400e-05	0.0	9.701500e-01	2.734295e-04	0.0	9.752800e-01	6.893889e-04	0.0	9.799500e-01	1.027549e-03	0.0	9.841300e-01	1.203720e-03	0.0	9.878400e-01	1.199368e-03	0.0	9.910500e-01	1.048342e-03	0.0	9.937800e-01	8.114772e-04	0.0	9.960200e-01	5.523192e-04	0.0	9.977600e-01	3.205336e-04	0.0	9.990000e-01	1.448360e-04	0.0	9.997500e-01	3.632235e-05	0.0	1.000000e+00	0.000000e+00	0.0	
CELLS 200	600
2	199	0	2	0	1	2	1	2	2	2	3	2	3	4	2	4	5	2	5	6	2	6	7	2	7	8	2	8	9	2	9	10	2	10	11	2	11	12	2	12	13	2	13	14	2	14	15	2	15	16	2	16	17	2	17	18	2	18	19	2	19	20	2	20	21	2	21	22	2	22	23	2	23	24	2	24	25	2	25	26	2	26	27	2	27	28	2	28	29	2	29	30	2	30	31	2	31	32	2	32	33	2	33	34	2	34	35	2	35	36	2	36	37	2	37	38	2	38	39	2	39	40	2	40	41	2	41	42	2	42	43	2	43	44	2	44	45	2	45	46	2	46	47	2	47	48	2	48	49	2	49	50	2	50	51	2	51	52	2	52	53	2	53	54	2	54	55	2	55	56	2	56	57	2	57	58	2	58	59	2	59	60	2	60	61	2	61	62	2	62	63	2	63	64	2	64	65	2	65	66	2	66	67	2	67	68	2	68	69	2	69	70	2	70	71	2	71	72	2	72	73	2	73	74	2	74	75	2	75	76	2	76	77	2	77	78	2	78	79	2	79	80	2	80	81	2	81	82	2	82	83	2	83	84	2	84	85	2	85	86	2	86	87	2	87	88	2	88	89	2	89	90	2	90	91	2	91	92	2	92	93	2	93	94	2	94	95	2	95	96	2	96	97	2	97	98	2	98	99	2	99	100	2	100	101	2	101	102	2	102	103	2	103	104	2	104	105	2	105	106	2	106	107	2	107	108	2	108	109	2	109	110	2	110	111	2	111	112	2	112	113	2	113	114	2	114	115	2	115	116	2	116	117	2	117	118	2	118	119	2	119	120	2	120	121	2	121	122	2	122	123	2	123	124	2	124	125	2	125	126	2	126	127	2	127	128	2	128	129	2	129	130	2	130	131	2	131	132	2	132	133	2	133	134	2	134	135	2	135	136	2	136	137	2	137	138	2	138	139	2	139	140	2	140	141	2	141	142	2	142	143	2	143	144	2	144	145	2	145	146	2	146	147	2	147	148	2	148	149	2	149	150	2	150	151	2	151	152	2	152	153	2	153	154	2	154	155	2	155	156	2	156	157	2	157	158	2	158	159	2	159	160	2	160	161	2	161	162	2	162	163	2	163	164	2	164	165	2	165	166	2	166	167	2	167	168	2	168	169	2	169	170	2	170	171	2	171	172	2	172	173	2	173	174	2	174	175	2	175	176	2	176	177	2	177	178	2	178	179	2	179	180	2	180	181	2	181	182	2	182	183	2	183	184	2	184	185	2	185	186	2	186	187	2	187	188	2	188	189	2	189	190	2	190	191	2	191	192	2	192	193	2	193	194	2	194	195	2	195	196	2	196	197	2	197	198	2	198	199	
CELL_TYPES 200
3	3	3	3	3	3	3	3	3	3	3	3	3	3	3	3	3	3	3	3	3	3	3	3	3	3	3	3	3	3	3	3	3	3	3	3	3	3	3	3	3	3	3	3	3	3	3	3	3	3	3	3	3	3	3	3	3	3	3	3	3	3	3	3	3	3	3	3	3	3	3	3	3	3	3	3	3	3	3	3	3	3	3	3	3	3	3	3	3	3	3	3	3	3	3	3	3	3	3	3	3	3	3	3	3	3	3	3	3	3	3	3	3	3	3	3	3	3	3	3	3	3	3	3	3	3	3	3	3	3	3	3	3	3	3	3	3	3	3	3	3	3	3	3	3	3	3	3	3	3	3	3	3	3	3	3	3	3	3	3	3	3	3	3	3	3	3	3	3	3	3	3	3	3	3	3	3	3	3	3	3	3	3	3	3	3	3	3	3	3	3	3	3	3	3	3	3	3	3	3	
POINT_DATA 200

SCALARS Conservative_1 float 1
LOOKUP_TABLE default
1.194251e+00	1.177578e+00	1.169907e+00	1.166577e+00	1.164685e+00	1.161510e+00	1.153353e+00	1.137573e+00	1.111949e+00	1.076199e+00	1.031015e+00	9.780959e-01	9.323797e-01	9.126978e-01	9.190280e-01	9.397013e-01	9.629930e-01	9.802327e-01	9.880948e-01	9.868393e-01	9.778314e-01	9.629527e-01	9.443133e-01	9.236388e-01	9.012871e-01	8.779085e-01	8.573207e-01	8.442591e-01	8.402504e-01	8.434857e-01	8.509381e-01	8.599548e-01	8.689456e-01	8.769752e-01	8.838271e-01	8.895517e-01	8.943627e-01	8.985398e-01	9.023073e-01	9.059309e-01	9.095503e-01	9.132973e-01	9.171787e-01	9.211872e-01	9.252239e-01	9.291951e-01	9.329581e-01	9.364045e-01	9.394075e-01	9.418772e-01	9.437119e-01	9.448563e-01	9.452544e-01	9.448889e-01	9.437458e-01	9.418336e-01	9.391666e-01	9.357772e-01	9.317071e-01	9.269966e-01	9.217111e-01	9.158850e-01	9.095633e-01	9.027231e-01	8.954359e-01	8.878381e-01	8.801730e-01	8.723754e-01	8.640023e-01	8.543962e-01	8.438108e-01	8.339437e-01	8.268765e-01	8.234713e-01	8.234982e-01	8.261890e-01	8.310710e-01	8.378500e-01	8.462206e-01	8.560016e-01	8.671721e-01	8.796890e-01	8.936192e-01	9.089696e-01	9.258179e-01	9.442999e-01	9.644710e-01	9.864849e-01	1.010605e+00	1.036952e+00	1.065933e+00	1.098078e+00	1.133729e+00	1.173628e+00	1.217903e+00	1.265464e+00	1.310654e+00	1.348691e+00	1.347063e+00	1.319756e+00	1.295068e+00	1.221694e+00	1.084733e+00	9.820157e-01	9.094017e-01	8.615829e-01	8.314799e-01	8.123087e-01	7.995652e-01	7.910112e-01	7.853770e-01	7.818158e-01	7.799681e-01	7.792652e-01	7.794056e-01	7.804905e-01	7.830605e-01	7.887176e-01	7.997365e-01	8.165480e-01	8.349033e-01	8.485139e-01	8.553663e-01	8.576241e-01	8.586276e-01	8.605055e-01	8.635440e-01	8.668822e-01	8.696072e-01	8.713922e-01	8.723651e-01	8.727440e-01	8.726391e-01	8.720454e-01	8.709275e-01	8.692518e-01	8.670262e-01	8.642614e-01	8.609675e-01	8.571539e-01	8.528171e-01	8.479793e-01	8.427301e-01	8.372102e-01	8.315305e-01	8.257380e-01	8.197903e-01	8.135878e-01	8.068497e-01	7.994350e-01	7.918097e-01	7.865455e-01	7.891074e-01	8.063659e-01	8.363191e-01	8.634584e-01	8.772398e-01	8.828465e-01	8.885661e-01	8.980166e-01	9.101931e-01	9.227764e-01	9.348503e-01	9.466442e-01	9.581910e-01	9.692546e-01	9.795527e-01	9.889912e-01	9.974909e-01	1.005140e+00	1.012009e+00	1.018270e+00	1.024160e+00	1.029930e+00	1.035868e+00	1.042276e+00	1.049504e+00	1.058002e+00	1.068249e+00	1.080738e+00	1.095588e+00	1.112327e+00	1.129572e+00	1.145384e+00	1.157456e+00	1.163497e+00	1.161493e+00	1.150133e+00	1.129281e+00	1.101303e+00	1.072415e+00	1.050338e+00	1.042452e+00	1.051776e+00	1.073917e+00	1.100995e+00	1.127926e+00	1.154300e+00	1.182399e+00	1.173187e+00	
SCALARS Conservative_2 float 1
LOOKUP_TABLE default
7.239453e-01	7.461763e-01	7.597320e-01	7.653809e-01	7.661445e-01	7.670772e-01	7.714493e-01	7.833013e-01	8.049277e-01	8.361596e-01	8.738227e-01	9.112362e-01	9.401842e-01	9.586468e-01	9.662313e-01	9.638876e-01	9.564419e-01	9.486556e-01	9.432552e-01	9.418973e-01	9.445315e-01	9.500505e-01	9.568843e-01	9.637663e-01	9.698154e-01	9.742613e-01	9.767083e-01	9.779104e-01	9.785711e-01	9.790586e-01	9.794174e-01	9.795077e-01	9.794448e-01	9.791304e-01	9.787105e-01	9.782040e-01	9.776920e-01	9.772090e-01	9.766674e-01	9.761194e-01	9.754802e-01	9.747839e-01	9.739707e-01	9.730878e-01	9.721134e-01	9.711154e-01	9.700968e-01	9.691367e-01	9.682509e-01	9.675087e-01	9.669240e-01	9.665646e-01	9.664272e-01	9.665409e-01	9.668977e-01	9.674985e-01	9.683152e-01	9.693259e-01	9.704883e-01	9.717537e-01	9.730992e-01	9.744514e-01	9.758101e-01	9.770946e-01	9.783038e-01	9.793037e-01	9.801029e-01	9.806540e-01	9.811024e-01	9.813455e-01	9.812629e-01	9.806639e-01	9.798515e-01	9.789815e-01	9.782823e-01	9.775503e-01	9.768315e-01	9.759297e-01	9.745421e-01	9.724972e-01	9.696761e-01	9.657560e-01	9.605075e-01	9.535351e-01	9.444072e-01	9.325521e-01	9.172694e-01	8.978141e-01	8.730481e-01	8.413959e-01	8.009655e-01	7.490696e-01	6.816885e-01	5.944624e-01	4.818012e-01	3.414509e-01	1.860403e-01	4.759226e-02	-1.237728e-02	6.558142e-03	7.644883e-02	2.357759e-01	4.628412e-01	6.419555e-01	7.582054e-01	8.301226e-01	8.738173e-01	9.011835e-01	9.186693e-01	9.304145e-01	9.386892e-01	9.446497e-01	9.492594e-01	9.529221e-01	9.559260e-01	9.586252e-01	9.612020e-01	9.639966e-01	9.672117e-01	9.700460e-01	9.714441e-01	9.719062e-01	9.724122e-01	9.731803e-01	9.740002e-01	9.746229e-01	9.749763e-01	9.751195e-01	9.752030e-01	9.753262e-01	9.755147e-01	9.757371e-01	9.759824e-01	9.762355e-01	9.765136e-01	9.768039e-01	9.771148e-01	9.774228e-01	9.777108e-01	9.779780e-01	9.781976e-01	9.783451e-01	9.783982e-01	9.783494e-01	9.781767e-01	9.778701e-01	9.773999e-01	9.767681e-01	9.758395e-01	9.747801e-01	9.737283e-01	9.733182e-01	9.742356e-01	9.773694e-01	9.790537e-01	9.776230e-01	9.758085e-01	9.748497e-01	9.739805e-01	9.723853e-01	9.698422e-01	9.665135e-01	9.627073e-01	9.585270e-01	9.539944e-01	9.492533e-01	9.444643e-01	9.398055e-01	9.352802e-01	9.310323e-01	9.269979e-01	9.230813e-01	9.191893e-01	9.151353e-01	9.106973e-01	9.056080e-01	8.994818e-01	8.918494e-01	8.820177e-01	8.693928e-01	8.535450e-01	8.348814e-01	8.149256e-01	7.966071e-01	7.835147e-01	7.790846e-01	7.856975e-01	8.038489e-01	8.312729e-01	8.631120e-01	8.917721e-01	9.091537e-01	9.111841e-01	8.993489e-01	8.766601e-01	8.472240e-01	8.134389e-01	7.754555e-01	7.319161e-01	6.682883e-01	
SCALARS Conservative_3 float 1
LOOKUP_TABLE default
1.022949e-01	1.076201e-01	1.147377e-01	1.244951e-01	1.404473e-01	1.635746e-01	1.927926e-01	2.245543e-01	2.533632e-01	2.720678e-01	2.748629e-01	2.595695e-01	2.262745e-01	1.849996e-01	1.478625e-01	1.219610e-01	1.100523e-01	1.102986e-01	1.177171e-01	1.275429e-01	1.361217e-01	1.411000e-01	1.413191e-01	1.367875e-01	1.286557e-01	1.182729e-01	1.063241e-01	9.371755e-02	8.151116e-02	7.046691e-02	6.100208e-02	5.312872e-02	4.675069e-02	4.162021e-02	3.741626e-02	3.386942e-02	3.075100e-02	2.789052e-02	2.518091e-02	2.257128e-02	2.006342e-02	1.770250e-02	1.554817e-02	1.367392e-02	1.214574e-02	1.101803e-02	1.032034e-02	1.005649e-02	1.020826e-02	1.072701e-02	1.155282e-02	1.259993e-02	1.378236e-02	1.500057e-02	1.615816e-02	1.716154e-02	1.792338e-02	1.836183e-02	1.841048e-02	1.800564e-02	1.709747e-02	1.564528e-02	1.362180e-02	1.101551e-02	7.820793e-03	4.002169e-03	-5.149052e-04	-5.757667e-03	-1.164370e-02	-1.800368e-02	-2.486048e-02	-3.247558e-02	-4.103452e-02	-5.051727e-02	-6.089685e-02	-7.216532e-02	-8.442560e-02	-9.770806e-02	-1.120631e-01	-1.275859e-01	-1.443376e-01	-1.623621e-01	-1.817356e-01	-2.024862e-01	-2.246385e-01	-2.482186e-01	-2.732379e-01	-2.996519e-01	-3.272787e-01	-3.558808e-01	-3.849560e-01	-4.131720e-01	-4.382430e-01	-4.552551e-01	-4.540880e-01	-4.172143e-01	-3.194485e-01	-1.381528e-01	1.032705e-01	2.951468e-01	4.720749e-01	6.592276e-01	7.071947e-01	6.473551e-01	5.566257e-01	4.709615e-01	4.005160e-01	3.442445e-01	2.993061e-01	2.627487e-01	2.327771e-01	2.077712e-01	1.867143e-01	1.688038e-01	1.534123e-01	1.400808e-01	1.284264e-01	1.181717e-01	1.093363e-01	1.021402e-01	9.629375e-02	9.062077e-02	8.488837e-02	7.952447e-02	7.486728e-02	7.096360e-02	6.764935e-02	6.469703e-02	6.194149e-02	5.932294e-02	5.685547e-02	5.452942e-02	5.230670e-02	5.012256e-02	4.792508e-02	4.566012e-02	4.328930e-02	4.076960e-02	3.806306e-02	3.513469e-02	3.194561e-02	2.846882e-02	2.467375e-02	2.055288e-02	1.610811e-02	1.133381e-02	6.237588e-03	8.210550e-04	-4.915661e-03	-1.106037e-02	-1.773067e-02	-2.507369e-02	-3.297703e-02	-4.074716e-02	-4.638235e-02	-5.187325e-02	-5.983346e-02	-6.888900e-02	-7.733099e-02	-8.470809e-02	-9.126491e-02	-9.731232e-02	-1.028039e-01	-1.074600e-01	-1.110729e-01	-1.137045e-01	-1.154221e-01	-1.163886e-01	-1.167970e-01	-1.169050e-01	-1.169757e-01	-1.172527e-01	-1.179399e-01	-1.191768e-01	-1.210497e-01	-1.236192e-01	-1.268719e-01	-1.306686e-01	-1.345703e-01	-1.375967e-01	-1.380571e-01	-1.336643e-01	-1.220341e-01	-1.016379e-01	-7.244221e-02	-3.649590e-02	1.929298e-03	3.663951e-02	6.028693e-02	6.624047e-02	5.147154e-02	1.956416e-02	-2.069122e-02	-5.897548e-02	-8.736251e-02	-1.033024e-01	-1.092596e-01	-1.070400e-01	-1.011506e-01	4.540908e-03	
SCALARS Conservative_4 float 1
LOOKUP_TABLE default
3.431746e+00	3.389735e+00	3.371241e+00	3.363396e+00	3.358843e+00	3.351134e+00	3.330789e+00	3.291355e+00	3.227196e+00	3.137529e+00	3.023742e+00	2.889361e+00	2.772603e+00	2.723020e+00	2.740192e+00	2.793473e+00	2.853154e+00	2.897198e+00	2.917079e+00	2.913683e+00	2.890541e+00	2.852395e+00	2.804514e+00	2.751229e+00	2.693343e+00	2.632445e+00	2.578499e+00	2.544124e+00	2.533455e+00	2.541827e+00	2.561323e+00	2.584935e+00	2.608510e+00	2.629532e+00	2.647455e+00	2.662401e+00	2.674948e+00	2.685841e+00	2.695640e+00	2.705066e+00	2.714462e+00	2.724189e+00	2.734247e+00	2.744633e+00	2.755077e+00	2.765350e+00	2.775071e+00	2.783975e+00	2.791725e+00	2.798099e+00	2.802829e+00	2.805783e+00	2.806811e+00	2.805874e+00	2.802931e+00	2.798007e+00	2.791134e+00	2.782394e+00	2.771889e+00	2.759716e+00	2.746046e+00	2.730954e+00	2.714563e+00	2.696794e+00	2.677842e+00	2.658030e+00	2.638010e+00	2.617597e+00	2.595673e+00	2.570484e+00	2.542676e+00	2.516655e+00	2.497968e+00	2.488908e+00	2.488941e+00	2.495998e+00	2.508878e+00	2.526770e+00	2.548804e+00	2.574487e+00	2.603767e+00	2.636478e+00	2.672783e+00	2.712647e+00	2.756229e+00	2.803822e+00	2.855504e+00	2.911633e+00	2.972805e+00	3.039198e+00	3.111784e+00	3.191801e+00	3.279885e+00	3.377889e+00	3.485916e+00	3.601436e+00	3.710955e+00	3.805586e+00	3.799881e+00	3.731163e+00	3.677336e+00	3.502509e+00	3.153038e+00	2.890210e+00	2.703502e+00	2.580710e+00	2.503531e+00	2.454387e+00	2.421578e+00	2.399470e+00	2.384904e+00	2.375675e+00	2.370947e+00	2.369229e+00	2.369736e+00	2.372787e+00	2.379802e+00	2.395041e+00	2.424510e+00	2.469129e+00	2.517498e+00	2.553237e+00	2.571272e+00	2.577322e+00	2.580112e+00	2.585168e+00	2.593217e+00	2.602004e+00	2.609165e+00	2.613865e+00	2.616447e+00	2.617476e+00	2.617239e+00	2.615715e+00	2.612817e+00	2.608452e+00	2.602645e+00	2.595417e+00	2.586791e+00	2.576795e+00	2.565413e+00	2.552699e+00	2.538885e+00	2.524341e+00	2.509354e+00	2.494046e+00	2.478299e+00	2.461853e+00	2.443934e+00	2.424236e+00	2.404033e+00	2.390245e+00	2.397317e+00	2.443490e+00	2.522533e+00	2.593535e+00	2.629475e+00	2.644183e+00	2.659244e+00	2.683975e+00	2.715692e+00	2.748325e+00	2.779532e+00	2.809942e+00	2.839638e+00	2.868025e+00	2.894384e+00	2.918505e+00	2.940169e+00	2.959648e+00	2.977114e+00	2.993005e+00	3.007938e+00	3.022547e+00	3.037559e+00	3.053735e+00	3.071934e+00	3.093283e+00	3.118932e+00	3.150109e+00	3.187054e+00	3.228591e+00	3.271279e+00	3.310434e+00	3.340457e+00	3.355766e+00	3.351352e+00	3.323817e+00	3.272460e+00	3.202891e+00	3.130512e+00	3.074439e+00	3.053565e+00	3.076353e+00	3.131708e+00	3.199340e+00	3.266082e+00	3.330980e+00	3.400339e+00	3.362786e+00	
SCALARS Pressure float 1
LOOKUP_TABLE default
1.283176e+00	1.259364e+00	1.247573e+00	1.242269e+00	1.239354e+00	1.234529e+00	1.222670e+00	1.199805e+00	1.162797e+00	1.111324e+00	1.046722e+00	9.721781e-01	9.084478e-01	8.803265e-01	8.881469e-01	9.164841e-01	9.487591e-01	9.727778e-01	9.839366e-01	9.823758e-01	9.699536e-01	9.493588e-01	9.236513e-01	8.953127e-01	8.649535e-01	8.335533e-01	8.062181e-01	7.890252e-01	7.838681e-01	7.882690e-01	7.981954e-01	8.101813e-01	8.221019e-01	8.327808e-01	8.419093e-01	8.495642e-01	8.560108e-01	8.616099e-01	8.666845e-01	8.715647e-01	8.764584e-01	8.815248e-01	8.867902e-01	8.922300e-01	8.977230e-01	9.031285e-01	9.082630e-01	9.129658e-01	9.170718e-01	9.204478e-01	9.229619e-01	9.245254e-01	9.250694e-01	9.245640e-01	9.229936e-01	9.203678e-01	9.167116e-01	9.120702e-01	9.065062e-01	9.000822e-01	8.928847e-01	8.849756e-01	8.764081e-01	8.671721e-01	8.573548e-01	8.471700e-01	8.369282e-01	8.265566e-01	8.154231e-01	8.026864e-01	7.887030e-01	7.757695e-01	7.665545e-01	7.621713e-01	7.622439e-01	7.658102e-01	7.722045e-01	7.810760e-01	7.920891e-01	8.050220e-01	8.198428e-01	8.365492e-01	8.552409e-01	8.759804e-01	8.989164e-01	9.242895e-01	9.522442e-01	9.830263e-01	1.017082e+00	1.054708e+00	1.096536e+00	1.143430e+00	1.196096e+00	1.255615e+00	1.322386e+00	1.394638e+00	1.463529e+00	1.519068e+00	1.518346e+00	1.479258e+00	1.435616e+00	1.320759e+00	1.129506e+00	9.868046e-01	8.868316e-01	8.208340e-01	7.791655e-01	7.526214e-01	7.351198e-01	7.234556e-01	7.157774e-01	7.109472e-01	7.083804e-01	7.073229e-01	7.073703e-01	7.086032e-01	7.117343e-01	7.188297e-01	7.328629e-01	7.546165e-01	7.787149e-01	7.967105e-01	8.057289e-01	8.085926e-01	8.097642e-01	8.121220e-01	8.160694e-01	8.204618e-01	8.240593e-01	8.264068e-01	8.276654e-01	8.281322e-01	8.279555e-01	8.271350e-01	8.256194e-01	8.233686e-01	8.203894e-01	8.167020e-01	8.123232e-01	8.072633e-01	8.015236e-01	7.951379e-01	7.882280e-01	7.809791e-01	7.735423e-01	7.659813e-01	7.582478e-01	7.502056e-01	7.415229e-01	7.319469e-01	7.220452e-01	7.150499e-01	7.180922e-01	7.400568e-01	7.792690e-01	8.154141e-01	8.338831e-01	8.413100e-01	8.488305e-01	8.614096e-01	8.777664e-01	8.948127e-01	9.112730e-01	9.274254e-01	9.433167e-01	9.586091e-01	9.729069e-01	9.860493e-01	9.979424e-01	1.008662e+00	1.018316e+00	1.027143e+00	1.035464e+00	1.043634e+00	1.052064e+00	1.061190e+00	1.071525e+00	1.083728e+00	1.098532e+00	1.116664e+00	1.138347e+00	1.162896e+00	1.188290e+00	1.211563e+00	1.229199e+00	1.237741e+00	1.234242e+00	1.216928e+00	1.185959e+00	1.145072e+00	1.103399e+00	1.072313e+00	1.062055e+00	1.076077e+00	1.108135e+00	1.147408e+00	1.186989e+00	1.226217e+00	1.267792e+00	1.268975e+00	
SCALARS Temperature float 1
LOOKUP_TABLE default
1.074461e+00	1.069452e+00	1.066386e+00	1.064884e+00	1.064111e+00	1.062865e+00	1.060100e+00	1.054705e+00	1.045729e+00	1.032638e+00	1.015235e+00	9.939497e-01	9.743325e-01	9.645323e-01	9.663980e-01	9.752930e-01	9.852191e-01	9.923947e-01	9.957916e-01	9.954770e-01	9.919436e-01	9.858831e-01	9.781195e-01	9.693321e-01	9.596870e-01	9.494762e-01	9.403926e-01	9.345770e-01	9.328982e-01	9.345375e-01	9.380182e-01	9.421208e-01	9.460913e-01	9.496059e-01	9.525724e-01	9.550476e-01	9.571182e-01	9.589001e-01	9.605203e-01	9.620654e-01	9.636173e-01	9.652112e-01	9.668674e-01	9.685653e-01	9.702765e-01	9.719470e-01	9.735303e-01	9.749695e-01	9.762237e-01	9.772482e-01	9.780123e-01	9.784826e-01	9.786460e-01	9.784896e-01	9.780108e-01	9.772085e-01	9.760905e-01	9.746660e-01	9.729519e-01	9.709660e-01	9.687251e-01	9.662519e-01	9.635483e-01	9.606180e-01	9.574720e-01	9.541942e-01	9.508679e-01	9.474781e-01	9.437742e-01	9.394780e-01	9.346918e-01	9.302420e-01	9.270483e-01	9.255590e-01	9.256170e-01	9.269189e-01	9.291680e-01	9.322385e-01	9.360315e-01	9.404446e-01	9.454211e-01	9.509601e-01	9.570529e-01	9.637070e-01	9.709429e-01	9.788094e-01	9.873228e-01	9.964940e-01	1.006409e+00	1.017123e+00	1.028710e+00	1.041301e+00	1.055011e+00	1.069858e+00	1.085789e+00	1.102076e+00	1.116640e+00	1.126328e+00	1.127153e+00	1.120857e+00	1.108525e+00	1.081088e+00	1.041276e+00	1.004877e+00	9.751814e-01	9.527046e-01	9.370828e-01	9.265214e-01	9.193994e-01	9.145959e-01	9.113807e-01	9.093538e-01	9.082171e-01	9.076794e-01	9.075766e-01	9.078947e-01	9.089136e-01	9.113904e-01	9.163805e-01	9.241545e-01	9.327007e-01	9.389482e-01	9.419695e-01	9.428288e-01	9.430913e-01	9.437732e-01	9.450235e-01	9.464512e-01	9.476224e-01	9.483752e-01	9.487604e-01	9.488832e-01	9.487949e-01	9.485000e-01	9.479772e-01	9.472153e-01	9.462106e-01	9.449710e-01	9.435004e-01	9.417950e-01	9.398540e-01	9.376854e-01	9.353268e-01	9.328351e-01	9.302633e-01	9.276324e-01	9.249289e-01	9.220954e-01	9.190347e-01	9.155803e-01	9.118924e-01	9.091017e-01	9.100057e-01	9.177679e-01	9.317843e-01	9.443583e-01	9.505760e-01	9.529516e-01	9.552811e-01	9.592357e-01	9.643738e-01	9.696961e-01	9.747795e-01	9.796979e-01	9.844767e-01	9.890169e-01	9.932155e-01	9.970254e-01	1.000453e+00	1.003504e+00	1.006232e+00	1.008714e+00	1.011037e+00	1.013306e+00	1.015636e+00	1.018146e+00	1.020983e+00	1.024315e+00	1.028348e+00	1.033242e+00	1.039028e+00	1.045462e+00	1.051982e+00	1.057778e+00	1.061984e+00	1.063811e+00	1.062634e+00	1.058076e+00	1.050190e+00	1.039743e+00	1.028892e+00	1.020922e+00	1.018804e+00	1.023105e+00	1.031863e+00	1.042156e+00	1.052364e+00	1.062303e+00	1.072220e+00	1.081648e+00	
SCALARS Pressure_Coefficient float 1
LOOKUP_TABLE default
6.320894e-01	5.789366e-01	5.526177e-01	5.407799e-01	5.342723e-01	5.235019e-01	4.970302e-01	4.459928e-01	3.633852e-01	2.484904e-01	1.042899e-01	-6.210236e-02	-2.043575e-01	-2.671284e-01	-2.496721e-01	-1.864194e-01	-1.143771e-01	-6.076394e-02	-3.585586e-02	-3.933976e-02	-6.706785e-02	-1.130384e-01	-1.704213e-01	-2.336770e-01	-3.014431e-01	-3.715329e-01	-4.325489e-01	-4.709259e-01	-4.824372e-01	-4.726138e-01	-4.504566e-01	-4.237023e-01	-3.970940e-01	-3.732571e-01	-3.528811e-01	-3.357942e-01	-3.214045e-01	-3.089064e-01	-2.975793e-01	-2.866858e-01	-2.757626e-01	-2.644536e-01	-2.527005e-01	-2.405581e-01	-2.282969e-01	-2.162311e-01	-2.047702e-01	-1.942727e-01	-1.851076e-01	-1.775720e-01	-1.719600e-01	-1.684701e-01	-1.672558e-01	-1.683839e-01	-1.718894e-01	-1.777504e-01	-1.859117e-01	-1.962719e-01	-2.086915e-01	-2.230309e-01	-2.390967e-01	-2.567509e-01	-2.758748e-01	-2.964910e-01	-3.184044e-01	-3.411384e-01	-3.639995e-01	-3.871504e-01	-4.120021e-01	-4.404321e-01	-4.716451e-01	-5.005146e-01	-5.210837e-01	-5.308676e-01	-5.307055e-01	-5.227451e-01	-5.084720e-01	-4.886696e-01	-4.640867e-01	-4.352187e-01	-4.021367e-01	-3.648455e-01	-3.231231e-01	-2.768294e-01	-2.256331e-01	-1.689965e-01	-1.065978e-01	-3.788774e-02	3.812911e-02	1.221159e-01	2.154824e-01	3.201560e-01	4.377150e-01	5.705702e-01	7.196110e-01	8.808877e-01	1.034662e+00	1.158634e+00	1.157023e+00	1.069772e+00	9.723573e-01	7.159805e-01	2.890764e-01	-2.945397e-02	-2.526080e-01	-3.999241e-01	-4.929342e-01	-5.521844e-01	-5.912505e-01	-6.172866e-01	-6.344255e-01	-6.452072e-01	-6.509365e-01	-6.532970e-01	-6.531913e-01	-6.504393e-01	-6.434503e-01	-6.276124e-01	-5.962882e-01	-5.477310e-01	-4.939400e-01	-4.537711e-01	-4.336408e-01	-4.272486e-01	-4.246334e-01	-4.193704e-01	-4.105594e-01	-4.007550e-01	-3.927248e-01	-3.874849e-01	-3.846754e-01	-3.836335e-01	-3.840279e-01	-3.858593e-01	-3.892425e-01	-3.942666e-01	-4.009165e-01	-4.091473e-01	-4.189214e-01	-4.302159e-01	-4.430276e-01	-4.572815e-01	-4.727054e-01	-4.888859e-01	-5.054860e-01	-5.223633e-01	-5.396256e-01	-5.575768e-01	-5.769579e-01	-5.983329e-01	-6.204348e-01	-6.360494e-01	-6.292584e-01	-5.802304e-01	-4.927031e-01	-4.120221e-01	-3.707967e-01	-3.542187e-01	-3.374320e-01	-3.093537e-01	-2.728429e-01	-2.347932e-01	-1.980514e-01	-1.619969e-01	-1.265251e-01	-9.239032e-02	-6.047560e-02	-3.113995e-02	-4.592853e-03	1.933540e-02	4.088336e-02	6.058793e-02	7.915975e-02	9.739692e-02	1.162144e-01	1.365843e-01	1.596544e-01	1.868919e-01	2.199373e-01	2.604117e-01	3.088109e-01	3.636081e-01	4.202894e-01	4.722389e-01	5.116055e-01	5.306728e-01	5.228620e-01	4.842153e-01	4.150871e-01	3.238218e-01	2.308016e-01	1.614137e-01	1.385151e-01	1.698158e-01	2.413721e-01	3.290364e-01	4.173855e-01	5.049491e-01	5.977505e-01	6.003903e-01	
SCALARS Mach float 1
LOOKUP_TABLE default
4.991646e-01	5.232120e-01	5.375079e-01	5.444017e-01	5.479262e-01	5.535659e-01	5.659302e-01	5.894817e-01	6.272096e-01	6.795333e-01	7.452446e-01	8.211919e-01	8.880336e-01	9.205537e-01	9.144014e-01	8.848180e-01	8.512579e-01	8.265878e-01	8.147761e-01	8.158739e-01	8.281495e-01	8.489903e-01	8.753237e-01	9.046905e-01	9.364517e-01	9.696097e-01	9.987598e-01	1.017272e+00	1.022596e+00	1.017397e+00	1.006331e+00	9.932368e-01	9.805077e-01	9.691914e-01	9.596018e-01	9.515725e-01	9.448357e-01	9.390230e-01	9.337255e-01	9.286619e-01	9.235646e-01	9.183169e-01	9.128508e-01	9.072324e-01	9.015550e-01	8.959970e-01	8.907150e-01	8.859014e-01	8.816969e-01	8.782555e-01	8.756846e-01	8.741007e-01	8.735500e-01	8.740769e-01	8.756898e-01	8.783888e-01	8.821439e-01	8.869177e-01	8.926462e-01	8.992627e-01	9.067029e-01	9.148840e-01	9.237915e-01	9.334054e-01	9.436828e-01	9.543438e-01	9.651162e-01	9.760481e-01	9.879431e-01	1.001679e+00	1.016907e+00	1.031002e+00	1.041082e+00	1.045773e+00	1.045591e+00	1.041490e+00	1.034395e+00	1.024685e+00	1.012652e+00	9.985938e-01	9.826605e-01	9.648179e-01	9.450486e-01	9.232694e-01	8.993395e-01	8.729992e-01	8.440631e-01	8.123227e-01	7.772454e-01	7.382937e-01	6.947056e-01	6.452317e-01	5.881666e-01	5.212973e-01	4.409103e-01	3.429813e-01	2.255846e-01	8.627848e-02	6.146527e-02	1.785716e-01	2.964167e-01	4.658187e-01	6.453341e-01	7.827220e-01	8.851918e-01	9.591734e-01	1.009309e+00	1.042742e+00	1.065113e+00	1.080132e+00	1.090156e+00	1.096464e+00	1.099998e+00	1.101669e+00	1.101988e+00	1.101000e+00	1.097833e+00	1.090126e+00	1.074558e+00	1.050192e+00	1.023221e+00	1.003368e+00	9.937208e-01	9.909714e-01	9.901307e-01	9.879462e-01	9.839367e-01	9.793510e-01	9.755836e-01	9.731594e-01	9.719181e-01	9.715221e-01	9.718069e-01	9.727573e-01	9.744414e-01	9.768939e-01	9.801245e-01	9.841052e-01	9.888204e-01	9.942787e-01	1.000479e+00	1.007391e+00	1.014891e+00	1.022795e+00	1.030934e+00	1.039241e+00	1.047756e+00	1.056660e+00	1.066255e+00	1.077058e+00	1.088562e+00	1.097248e+00	1.094436e+00	1.070220e+00	1.026123e+00	9.860708e-01	9.660592e-01	9.583732e-01	9.508138e-01	9.379269e-01	9.210755e-01	9.034826e-01	8.865376e-01	8.700009e-01	8.537895e-01	8.382468e-01	8.237418e-01	8.104637e-01	7.984188e-01	7.876105e-01	7.778785e-01	7.689615e-01	7.605634e-01	7.523071e-01	7.437720e-01	7.345091e-01	7.239573e-01	7.114366e-01	6.960935e-01	6.771777e-01	6.543486e-01	6.283038e-01	6.011067e-01	5.761532e-01	5.575299e-01	5.492865e-01	5.546056e-01	5.748500e-01	6.086715e-01	6.514912e-01	6.940079e-01	7.241832e-01	7.320698e-01	7.159991e-01	6.825452e-01	6.417814e-01	5.994874e-01	5.560941e-01	5.100344e-01	4.629135e-01	