# vtk DataFile Version 3.0
vtk output
ASCII
DATASET UNSTRUCTURED_GRID
POINTS 5233 float
9.997500e-01	-3.633650e-05	0.0	9.990000e-01	-1.457287e-04	0.0	9.977600e-01	-3.303104e-04	0.0	9.960200e-01	-6.049839e-04	0.0	9.937800e-01	-1.001065e-03	0.0	9.910500e-01	-1.569525e-03	0.0	9.878400e-01	-2.375117e-03	0.0	9.841300e-01	-3.485161e-03	0.0	9.799500e-01	-4.916644e-03	0.0	9.752800e-01	-6.637404e-03	0.0	9.701500e-01	-8.524346e-03	0.0	9.645400e-01	-1.042084e-02	0.0	9.584700e-01	-1.215204e-02	0.0	9.519400e-01	-1.360063e-02	0.0	9.449600e-01	-1.473324e-02	0.0	9.375400e-01	-1.560648e-02	0.0	9.296900e-01	-1.633786e-02	0.0	9.214000e-01	-1.706359e-02	0.0	9.127000e-01	-1.789381e-02	0.0	9.035800e-01	-1.889618e-02	0.0	8.940600e-01	-2.008403e-02	0.0	8.841500e-01	-2.142895e-02	0.0	8.738500e-01	-2.287728e-02	0.0	8.631800e-01	-2.436202e-02	0.0	8.521600e-01	-2.581899e-02	0.0	8.407700e-01	-2.720029e-02	0.0	8.290500e-01	-2.846565e-02	0.0	8.170100e-01	-2.959488e-02	0.0	8.046400e-01	-3.058339e-02	0.0	7.919700e-01	-3.143434e-02	0.0	7.790100e-01	-3.216051e-02	0.0	7.657800e-01	-3.277855e-02	0.0	7.522800e-01	-3.330745e-02	0.0	7.385200e-01	-3.376479e-02	0.0	7.245300e-01	-3.416540e-02	0.0	7.103200e-01	-3.452185e-02	0.0	6.958900e-01	-3.484376e-02	0.0	6.812700e-01	-3.513733e-02	0.0	6.664700e-01	-3.540710e-02	0.0	6.515000e-01	-3.565627e-02	0.0	6.363800e-01	-3.588727e-02	0.0	6.211300e-01	-3.610266e-02	0.0	6.057600e-01	-3.630568e-02	0.0	5.902800e-01	-3.650034e-02	0.0	5.747100e-01	-3.669142e-02	0.0	5.590600e-01	-3.688453e-02	0.0	5.433600e-01	-3.708545e-02	0.0	5.276100e-01	-3.730043e-02	0.0	5.118400e-01	-3.753493e-02	0.0	4.960500e-01	-3.779405e-02	0.0	4.802700e-01	-3.808130e-02	0.0	4.645100e-01	-3.839902e-02	0.0	4.487800e-01	-3.874793e-02	0.0	4.331100e-01	-3.912653e-02	0.0	4.175000e-01	-3.953226e-02	0.0	4.019700e-01	-3.996038e-02	0.0	3.865400e-01	-4.040461e-02	0.0	3.712300e-01	-4.085730e-02	0.0	3.560400e-01	-4.131039e-02	0.0	3.409900e-01	-4.175442e-02	0.0	3.261100e-01	-4.217914e-02	0.0	3.114000e-01	-4.257495e-02	0.0	2.968700e-01	-4.293194e-02	0.0	2.825500e-01	-4.323994e-02	0.0	2.684500e-01	-4.348975e-02	0.0	2.545700e-01	-4.367277e-02	0.0	2.409400e-01	-4.378060e-02	0.0	2.275700e-01	-4.380595e-02	0.0	2.144700e-01	-4.374222e-02	0.0	2.016600e-01	-4.358371e-02	0.0	1.891400e-01	-4.332525e-02	0.0	1.769300e-01	-4.296279e-02	0.0	1.650400e-01	-4.249288e-02	0.0	1.534900e-01	-4.191342e-02	0.0	1.422900e-01	-4.122283e-02	0.0	1.314400e-01	-4.041955e-02	0.0	1.209500e-01	-3.950325e-02	0.0	1.108500e-01	-3.847664e-02	0.0	1.011300e-01	-3.733954e-02	0.0	9.181000e-02	-3.609579e-02	0.0	8.290000e-02	-3.474934e-02	0.0	7.440000e-02	-3.330349e-02	0.0	6.633000e-02	-3.176595e-02	0.0	5.869000e-02	-3.014206e-02	0.0	5.149000e-02	-2.843998e-02	0.0	4.474000e-02	-2.666920e-02	0.0	3.844000e-02	-2.483741e-02	0.0	3.260000e-02	-2.295573e-02	0.0	2.723000e-02	-2.103638e-02	0.0	2.232000e-02	-1.908431e-02	0.0	1.790000e-02	-1.712037e-02	0.0	1.395000e-02	-1.514386e-02	0.0	1.049000e-02	-1.317093e-02	0.0	7.520000e-03	-1.120665e-02	0.0	5.040000e-03	-9.251660e-03	0.0	3.050000e-03	-7.299161e-03	0.0	1.560000e-03	-5.343803e-03	0.0	5.600000e-04	-3.333343e-03	0.0	6.000000e-05	-1.182547e-03	0.0	0.000000e+00	0.000000e+00	0.0	6.000000e-05	1.143813e-03	0.0	5.600000e-04	3.137709e-03	0.0	1.560000e-03	4.924243e-03	0.0	3.050000e-03	6.604230e-03	0.0	5.040000e-03	8.237673e-03	0.0	7.520000e-03	9.840581e-03	0.0	1.049000e-02	1.142852e-02	0.0	1.395000e-02	1.300974e-02	0.0	1.790000e-02	1.458810e-02	0.0	2.232000e-02	1.615795e-02	0.0	2.723000e-02	1.772651e-02	0.0	3.260000e-02	1.928309e-02	0.0	3.844000e-02	2.082919e-02	0.0	4.474000e-02	2.235975e-02	0.0	5.149000e-02	2.386995e-02	0.0	5.869000e-02	2.535712e-02	0.0	6.633000e-02	2.681644e-02	0.0	7.440000e-02	2.824340e-02	0.0	8.290000e-02	2.963545e-02	0.0	9.181000e-02	3.098698e-02	0.0	1.011300e-01	3.229593e-02	0.0	1.108500e-01	3.355895e-02	0.0	1.209500e-01	3.477193e-02	0.0	1.314400e-01	3.593470e-02	0.0	1.422900e-01	3.704282e-02	0.0	1.534900e-01	3.809473e-02	0.0	1.650400e-01	3.908997e-02	0.0	1.769300e-01	4.002736e-02	0.0	1.891400e-01	4.090535e-02	0.0	2.016600e-01	4.172353e-02	0.0	2.144700e-01	4.248114e-02	0.0	2.275700e-01	4.317881e-02	0.0	2.409400e-01	4.381617e-02	0.0	2.545700e-01	4.439353e-02	0.0	2.684500e-01	4.491118e-02	0.0	2.825500e-01	4.536874e-02	0.0	2.968700e-01	4.576687e-02	0.0	3.114000e-01	4.610565e-02	0.0	3.261100e-01	4.638460e-02	0.0	3.409900e-01	4.660360e-02	0.0	3.560400e-01	4.676232e-02	0.0	3.712300e-01	4.685987e-02	0.0	3.865400e-01	4.689540e-02	0.0	4.019700e-01	4.686786e-02	0.0	4.175000e-01	4.677596e-02	0.0	4.331100e-01	4.661831e-02	0.0	4.487800e-01	4.639349e-02	0.0	4.645100e-01	4.609961e-02	0.0	4.802700e-01	4.573515e-02	0.0	4.960500e-01	4.529816e-02	0.0	5.118400e-01	4.478650e-02	0.0	5.276100e-01	4.419861e-02	0.0	5.433600e-01	4.353184e-02	0.0	5.590600e-01	4.278478e-02	0.0	5.747100e-01	4.195480e-02	0.0	5.902800e-01	4.104119e-02	0.0	6.057600e-01	4.004280e-02	0.0	6.211300e-01	3.896011e-02	0.0	6.363800e-01	3.779424e-02	0.0	6.515000e-01	3.654793e-02	0.0	6.664700e-01	3.522675e-02	0.0	6.812700e-01	3.383865e-02	0.0	6.958900e-01	3.239294e-02	0.0	7.103200e-01	3.090085e-02	0.0	7.245300e-01	2.937720e-02	0.0	7.385200e-01	2.783430e-02	0.0	7.522800e-01	2.628506e-02	0.0	7.657800e-01	2.474313e-02	0.0	7.790100e-01	2.321734e-02	0.0	7.919700e-01	2.171194e-02	0.0	8.046400e-01	2.022980e-02	0.0	8.170100e-01	1.876900e-02	0.0	8.290500e-01	1.732706e-02	0.0	8.407700e-01	1.589468e-02	0.0	8.521600e-01	1.446362e-02	0.0	8.631800e-01	1.302908e-02	0.0	8.738500e-01	1.157873e-02	0.0	8.841500e-01	1.010642e-02	0.0	8.940600e-01	8.609584e-03	0.0	9.035800e-01	7.090401e-03	0.0	9.127000e-01	5.566798e-03	0.0	9.214000e-01	4.080185e-03	0.0	9.296900e-01	2.692876e-03	0.0	9.375400e-01	1.495699e-03	0.0	9.449600e-01	5.786308e-04	0.0	9.519400e-01	1.362684e-05	0.0	9.584700e-01	-1.789011e-04	0.0	9.645400e-01	-4.856036e-05	0.0	9.701500e-01	2.914896e-04	0.0	9.752800e-01	6.941634e-04	0.0	9.799500e-01	1.026684e-03	0.0	9.841300e-01	1.201504e-03	0.0	9.878400e-01	1.197585e-03	0.0	9.910500e-01	1.047349e-03	0.0	9.937800e-01	8.110642e-04	0.0	9.960200e-01	5.521946e-04	0.0	9.977600e-01	3.205093e-04	0.0	9.990000e-01	1.448337e-04	0.0	9.997500e-01	3.632231e-05	0.0	1.000000e+00	0.000000e+00	0.0	1.984229e+01	2.506660e+00	0.0	1.937166e+01	4.973800e+00	0.0	1.859553e+01	7.362490e+00	0.0	1.752613e+01	9.635070e+00	0.0	1.618034e+01	1.175571e+01	0.0	1.457937e+01	1.369094e+01	0.0	1.274848e+01	1.541027e+01	0.0	1.071654e+01	1.688656e+01	0.0	8.515590e+00	1.809654e+01	0.0	6.180340e+00	1.902113e+01	0.0	3.747630e+00	1.964575e+01	0.0	1.255810e+00	1.996053e+01	0.0	-1.255810e+00	1.996053e+01	0.0	-3.747630e+00	1.964574e+01	0.0	-6.180340e+00	1.902113e+01	0.0	-8.515590e+00	1.809654e+01	0.0	-1.071654e+01	1.688656e+01	0.0	-1.274848e+01	1.541026e+01	0.0	-1.457937e+01	1.369094e+01	0.0	-1.618034e+01	1.175570e+01	0.0	-1.752613e+01	9.635070e+00	0.0	-1.859553e+01	7.362490e+00	0.0	-1.937166e+01	4.973800e+00	0.0	-1.984229e+01	2.506660e+00	0.0	-2.000000e+01	0.000000e+00	0.0	-1.984229e+01	-2.506670e+00	0.0	-1.937166e+01	-4.973800e+00	0.0	-1.859553e+01	-7.362490e+00	0.0	-1.752613e+01	-9.635080e+00	0.0	-1.618034e+01	-1.175571e+01	0.0	-1.457937e+01	-1.369094e+01	0.0	-1.274848e+01	-1.541027e+01	0.0	-1.071653e+01	-1.688656e+01	0.0	-8.515580e+00	-1.809654e+01	0.0	-6.180340e+00	-1.902113e+01	0.0	-3.747620e+00	-1.964575e+01	0.0	-1.255810e+00	-1.996053e+01	0.0	1.255810e+00	-1.996053e+01	0.0	3.747630e+00	-1.964574e+01	0.0	6.180340e+00	-1.902113e+01	0.0	8.515590e+00	-1.809654e+01	0.0	1.071654e+01	-1.688656e+01	0.0	1.274848e+01	-1.541026e+01	0.0	1.457937e+01	-1.369094e+01	0.0	1.618034e+01	-1.175570e+01	0.0	1.752614e+01	-9.635070e+00	0.0	1.859553e+01	-7.362490e+00	0.0	1.937166e+01	-4.973790e+00	0.0	1.984229e+01	-2.506660e+00	0.0	2.000000e+01	0.000000e+00	0.0	6.108363e-02	-3.783355e-02	0.0	6.595809e-01	-4.932240e-02	0.0	4.256123e-01	6.091732e-02	0.0	6.897905e-01	4.636021e-02	0.0	3.792400e-01	-5.491047e-02	0.0	9.994685e-01	-7.277937e-04	0.0	9.985577e-01	-1.337513e-03	0.0	7.733677e-01	-4.440357e-02	0.0	6.892533e-01	-4.842757e-02	0.0	-8.144337e-04	4.864526e-03	0.0	7.462583e-01	-4.604075e-02	0.0	5.833888e-01	5.557868e-02	0.0	9.928491e-01	-3.877460e-03	0.0	9.899909e-01	-5.024879e-03	0.0	5.989631e-01	5.453371e-02	0.0	7.181876e-01	-4.735034e-02	0.0	-1.240032e-03	5.770031e-04	0.0	9.866559e-01	-6.408999e-03	0.0	9.828482e-01	-8.039620e-03	0.0	-8.870276e-04	-5.208185e-03	0.0	6.445079e-01	-4.971492e-02	0.0	8.242201e-01	-3.977338e-02	0.0	7.993879e-01	-4.235027e-02	0.0	3.485219e-01	6.043838e-02	0.0	8.477158e-01	-3.670719e-02	0.0	2.473440e-01	5.659391e-02	0.0	8.698085e-01	-3.330604e-02	0.0	1.064683e-02	1.547244e-02	0.0	8.903966e-01	-2.989095e-02	0.0	7.735055e-02	-4.168345e-02	0.0	9.094254e-01	-2.679675e-02	0.0	-1.448156e-03	-2.610478e-03	0.0	9.425545e-01	-2.141358e-02	0.0	9.268375e-01	-2.409822e-02	0.0	1.838283e-02	-2.214427e-02	0.0	4.257265e-01	-5.391211e-02	0.0	8.589467e-01	-3.502899e-02	0.0	9.564856e-01	-1.813963e-02	0.0	9.785551e-01	-9.926981e-03	0.0	9.685093e-01	-1.410307e-02	0.0	1.586123e-01	-5.270626e-02	0.0	9.001113e-01	-2.828963e-02	0.0	7.599435e-01	-4.526882e-02	0.0	9.971445e-01	-2.110721e-03	0.0	5.985220e-01	-5.071795e-02	0.0	4.413824e-01	-5.358169e-02	0.0	5.359596e-01	-5.181493e-02	0.0	4.728573e-01	-5.294960e-02	0.0	5.044179e-01	-5.236302e-02	0.0	4.886263e-01	-5.264961e-02	0.0	1.252820e-01	-4.944876e-02	0.0	2.825025e-02	-2.688567e-02	0.0	3.946434e-01	-5.458267e-02	0.0	4.658159e-02	-3.365402e-02	0.0	4.101402e-01	-5.424857e-02	0.0	3.189729e-01	-5.601252e-02	0.0	3.488065e-01	-5.552437e-02	0.0	3.389753e-02	-2.918334e-02	0.0	2.898179e-01	-5.631447e-02	0.0	9.349137e-01	-2.279225e-02	0.0	1.471476e-01	-5.173725e-02	0.0	1.950061e-01	-5.489180e-02	0.0	8.612181e-02	-4.346063e-02	0.0	1.049133e-01	-4.669279e-02	0.0	5.673691e-01	-5.128806e-02	0.0	1.704205e-01	-5.355601e-02	0.0	6.139703e-01	-5.040622e-02	0.0	8.802983e-01	-3.157814e-02	0.0	2.308914e-02	-2.453455e-02	0.0	9.952399e-01	-2.932833e-03	0.0	7.198724e-03	-1.493388e-02	0.0	1.861496e-02	1.952917e-02	0.0	9.183360e-01	-2.541071e-02	0.0	9.497
[...]
POINT_DATA 5233

SCALARS Conservative_1 float 1
LOOKUP_TABLE default
1.193805e+00	1.179371e+00	1.173257e+00	1.171450e+00	1.170745e+00	1.168184e+00	1.159684e+00	1.142194e+00	1.112796e+00	1.070712e+00	1.015918e+00	9.394890e-01	8.656649e-01	8.418363e-01	8.621640e-01	9.018525e-01	9.421665e-01	9.706760e-01	9.852460e-01	9.877610e-01	9.804213e-01	9.657696e-01	9.465235e-01	9.245780e-01	8.992627e-01	8.703003e-01	8.445239e-01	8.303439e-01	8.290564e-01	8.366992e-01	8.486612e-01	8.616895e-01	8.740808e-01	8.849997e-01	8.943780e-01	9.023175e-01	9.090591e-01	9.148787e-01	9.199780e-01	9.246079e-01	9.288984e-01	9.329894e-01	9.369090e-01	9.406802e-01	9.442429e-01	9.475433e-01	9.504804e-01	9.529753e-01	9.549257e-01	9.562573e-01	9.568879e-01	9.567730e-01	9.558684e-01	9.541586e-01	9.516270e-01	9.482820e-01	9.441258e-01	9.391919e-01	9.335558e-01	9.273089e-01	9.204667e-01	9.128020e-01	9.042101e-01	8.953963e-01	8.878153e-01	8.815181e-01	8.733640e-01	8.578492e-01	8.332036e-01	8.083299e-01	7.937766e-01	7.904637e-01	7.940170e-01	8.004271e-01	8.078306e-01	8.157852e-01	8.246253e-01	8.346858e-01	8.459504e-01	8.583472e-01	8.718846e-01	8.865115e-01	9.022743e-01	9.191541e-01	9.371886e-01	9.564542e-01	9.769519e-01	9.987806e-01	1.022112e+00	1.046976e+00	1.073696e+00	1.102737e+00	1.134466e+00	1.169888e+00	1.209869e+00	1.254338e+00	1.299845e+00	1.345373e+00	1.350434e+00	1.328567e+00	1.306138e+00	1.237678e+00	1.117527e+00	1.036890e+00	9.858124e-01	9.546613e-01	9.347485e-01	9.202751e-01	9.083346e-01	8.979524e-01	8.886031e-01	8.798672e-01	8.716522e-01	8.637849e-01	8.562396e-01	8.490449e-01	8.420996e-01	8.353295e-01	8.287876e-01	8.225286e-01	8.166437e-01	8.111100e-01	8.057920e-01	8.006160e-01	7.956993e-01	7.912458e-01	7.873143e-01	7.837177e-01	7.803271e-01	7.772100e-01	7.745492e-01	7.724136e-01	7.707300e-01	7.693458e-01	7.681473e-01	7.670793e-01	7.662375e-01	7.658009e-01	7.655872e-01	7.643216e-01	7.604561e-01	7.560216e-01	7.625826e-01	7.977086e-01	8.527548e-01	8.875113e-01	8.915491e-01	8.811612e-01	8.717235e-01	8.684095e-01	8.696290e-01	8.726788e-01	8.761374e-01	8.800897e-01	8.849122e-01	8.906675e-01	8.971096e-01	9.041206e-01	9.117399e-01	9.200102e-01	9.288530e-01	9.381235e-01	9.476129e-01	9.571339e-01	9.664540e-01	9.754006e-01	9.837758e-01	9.914708e-01	9.983807e-01	1.004566e+00	1.010094e+00	1.015134e+00	1.019928e+00	1.024755e+00	1.029933e+00	1.035823e+00	1.042830e+00	1.051469e+00	1.062260e+00	1.075698e+00	1.091829e+00	1.110036e+00	1.128753e+00	1.145911e+00	1.159140e+00	1.166143e+00	1.164938e+00	1.154261e+00	1.134001e+00	1.106494e+00	1.077862e+00	1.055802e+00	1.047648e+00	1.056472e+00	1.078062e+00	1.104694e+00	1.131309e+00	1.157370e+00	1.185593e+00	1.174632e+00	9.999686e-01	9.999783e-01	9.999701e-01	9.999535e-01	9.999375e-01	9.999187e-01	9.998907e-01	9.998501e-01	9.998030e-01	9.997621e-01	9.997333e-01	9.997389e-01	9.997784e-01	9.998619e-01	9.999345e-01	9.999934e-01	1.000026e+00	1.000045e+00	1.000056e+00	1.000060e+00	1.000062e+00	1.000063e+00	1.000063e+00	1.000064e+00	1.000065e+00	1.000067e+00	1.000071e+00	1.000076e+00	1.000084e+00	1.000094e+00	1.000106e+00	1.000123e+00	1.000137e+00	1.000158e+00	1.000169e+00	1.000173e+00	1.000167e+00	1.000150e+00	1.000136e+00	1.000124e+00	1.000118e+00	1.000109e+00	1.000098e+00	1.000085e+00	1.000069e+00	1.000051e+00	1.000039e+00	1.000032e+00	9.999981e-01	9.999607e-01	9.251669e-01	9.235528e-01	8.806836e-01	9.458208e-01	9.416964e-01	1.179010e+00	1.172709e+00	8.614740e-01	9.136896e-01	1.231773e+00	8.836625e-01	8.917461e-01	1.159418e+00	1.152319e+00	8.979122e-01	9.009244e-01	1.322516e+00	1.139794e+00	1.119430e+00	1.323437e+00	9.278469e-01	8.446741e-01	8.405688e-01	7.668942e-01	8.926079e-01	7.744180e-01	9.389447e-01	9.653209e-01	9.705097e-01	8.926351e-01	9.810832e-01	1.344392e+00	8.981218e-01	9.567243e-01	1.079240e+00	9.522723e-01	9.183996e-01	8.807385e-01	1.090024e+00	9.994539e-01	8.060561e-01	9.794905e-01	8.730503e-01	1.166790e+00	9.393562e-01	9.542754e-01	9.514365e-01	9.560402e-01	9.549630e-01	9.558413e-01	8.308375e-01	1.027683e+00	9.459775e-01	9.622574e-01	9.495047e-01	9.182622e-01	9.311424e-01	1.004445e+00	9.019541e-01	9.300155e-01	8.137014e-01	8.045885e-01	8.780318e-01	8.520627e-01	9.460299e-01	7.998244e-01	9.357040e-01	9.562893e-01	1.052536e+00	1.163488e+00	1.173983e+00	9.285725e-01	9.737710e-01	8.754375e-01	1.052148e+00	1.153811e+00	8.648368e-01	8.832138e-01	9.489319e-01	8.929358e-01	8.499020e-01	8.408203e-01	8.508641e-01	9.428196e-01	9.188944e-01	9.431253e-01	1.211465e+00	1.108103e+00	9.367136e-01	7.978309e-01	1.203714e+00	8.723667e-01	8.645085e-01	9.104598e-01	8.885762e-01	9.555296e-01	9.077839e-01	1.294493e+00	1.291072e+00	8.781356e-01	1.335264e+00	9.029571e-01	8.648652e-01	8.824660e-01	8.161627e-01	8.258640e-01	1.122825e+00	8.745425e-01	8.793644e-01	1.114696e+00	1.144728e+00	1.059338e+00	8.723452e-01	8.995525e-01	7.592436e-01	1.114987e+00	1.084358e+00	8.418391e-01	1.094303e+00	1.150107e+00	1.141375e+00	8.282008e-01	8.568425e-01	7.705133e-01	7.729539e-01	7.914289e-01	7.692942e-01	8.920849e-01	7.748419e-01	8.000080e-01	8.105025e-01	9.118704e-01	7.841082e-01	7.782904e-01	9.280127e-01	8.863559e-01	9.808909e-01	9.639149e-01	1.008016e+00	9.956837e-01	1.029100e+00	1.018625e+00	1.070872e+00	1.041745e+00	1.148694e+00	1.099406e+00	1.132522e+00	1.034992e+00	1.049738e+00	1.013452e+00	1.023749e+00	9.886054e-01	1.002146e+00	9.549218e-01	9.726189e-01	9.196654e-01	9.367884e-01	8.819306e-01	9.046361e-01	7.809482e-01	7.761564e-01	7.954999e-01	7.876527e-01	8.733611e-01	8.050663e-01	9.448868e-01	8.922789e-01	8.238867e-01	1.031323e+00	9.291396e-01	8.372642e-01	9.250423e-01	9.534759e-01	1.085350e+00	9.148516e-01	9.925535e-01	8.348173e-01	8.491802e-01	7.716542e-01	8.220183e-01	1.076445e+00	1.066524e+00	7.696730e-01	1.068338e+00	1.081132e+00	7.689346e-01	7.618565e-01	1.129570e+00	1.201256e+00	1.145608e+00	1.165881e+00	9.318685e-01	9.826748e-01	1.100819e+00	8.717742e-01	1.251723e+00	1.139611e+00	9.083366e-01	8.219245e-01	8.942231e-01	8.568138e-01	1.210826e+00	1.267772e+00	9.009950e-01	9.125785e-01	9.726259e-01	1.167974e+00	8.935303e-01	9.178421e-01	8.624623e-01	1.134850e+00	9.229929e-01	9.130238e-01	8.662100e-01	8.850186e-01	1.297351e+00	8.435951e-01	1.107639e+00	9.363584e-01	8.207933e-01	9.065358e-01	9.268617e-01	9.540275e-01	8.994409e-01	9.436868e-01	9.710714e-01	8.535489e-01	1.015365e+00	9.457126e-01	9.361263e-01	1.028060e+00	8.281559e-01	9.446586e-01	8.006388e-01	1.048102e+00	1.080291e+00	7.721962e-01	8.776144e-01	1.135741e+00	1.056723e+00	1.086018e+00	1.134310e+00	1.091236e+00	7.807026e-01	7.733327e-01	7.829398e-01	8.346398e-01	9.225778e-01	8.216948e-01	9.869385e-01	8.102816e-01	8.831644e-01	1.117361e+00	1.098577e+00	1.066673e+00	8.132653e-01	1.209339e+00	1.132777e+00	1.114732e+00	1.052025e+00	1.151866e+00	1.200877e+00	1.332211e+00	1.323218e+00	1.080351e+00	1.211007e+00	9.313690e-01	1.163104e+00	1.152577e+00	8.610917e-01	9.499198e-01	1.119154e+00	9.484289e-01	8.993723e-01	1.145555e+00	1.322698e+00	9.524880e-01	8.051833e-01	8.890620e-01	7.757506e-01	9.325809e-01	9.616030e-01	9.148830e-01	9.751098e-01	9.628590e-01	9.074535e-01	1.031070e+00	9.071768e-01	9.865872e-01	1.096785e+00	8.383238e-01	8.826230e-01	8.726948e-01	1.157904e+00	9.548759e-01	9.550648e-01	9.546059e-01	1.055014e+00	9.473254e-01	9.502644e-01	9.289813e-01	9.875286e-01	9.461042e-01	9.251086e-01	8.292696e-01	8.716094e-01	9.474346e-01	9.381609e-01	1.032686e+00	1.068080e+00	8.996507e-01	8.917237e-01	8.593651e-01	8.482775e-01	9.446172e-01	9.414957e-01	9.677160e-01	9.490055e-01	1.136709e+00	9.344200e-01	9.393647e-01	8.085379e-01	8.099075e-01	8.668250e-01	8.818232e-01	9.086824e-01	9.162773e-01	8.892512e-01	1.307210e+00	1.235420e+00	8.931829e-01	1.082137e+00	8.805903e-01	8.762982e-01	8.789798e-01	8.872588e-01	1.104141e+00	1.127980e+00	1.102876e+00	8.972934e-01	8.949122e-01	7.707906e-01	1.090223e+00	1.132467e+00	8.650716e-01	8.738338e-01	7.788148e-01	7.771761e-01	8.052332e-01	8.159400e-01	8.219488e-01	1.005821e+00	9.783298e-01	9.702672e-01	9.997187e-01	1.022507e+00	1.077911e+00	1.040597e+00	1.034004e+00	1.017116e+00	1.011617e+00	9.930865e-01	9.859527e-01	9.618826e-01	9.532962e-01	9.278516e-01	9.199951e-01	8.883913e-01	8.841644e-01	9.126366e-01	9.057712e-01	7.855712e-01	7.887122e-01	7.923301e-01	7.963673e-01	9.644018e-01	9.041747e-01	9.163954e-01	8.487132e-01	8.520087e-01	9.535692e-01	9.519755e-01	1.098506e+00	9.300426e-01	8.415516e-01	8.489458e-01	7.737947e-01	7.745669e-01	7.644524e-01	7.687832e-01	1.125194e+00	1.114927e+00	9.346006e-01	9.308634e-01	1.008579e+00	1.269245e+00	8.944826e-01	1.296129e+00	9.453237e-01	9.076356e-01	8.663808e-01	9.505491e-01	9.663732e-01	1.091638e+00	1.088827e+00	1.121079e+00	1.105327e+00	1.099963e+00	1.150306e+00	1.175285e+00	1.153072e+00	1.194665e+00	1.081461e+00	1.285519e+00	8.928966e-01	9.566777e-01	1.131589e+00	8.959143e-01	1.170684e+00	1.190813e+00	9.117265e-01	1.249245e+00	9.058006e-01	1.106633e+00	9.434552e-01	1.161620e+00	9.272007e-01	9.286237e-01	9.170223e-01	1.140964e+00	1.133604e+00	1.098137e+00	8.837741e-01	1.123225e+00	9.363682e-01	1.111852e+00	8.816849e-01	7.816365e-01	7.774129e-01	8.110611e-01	8.733932e-01	1.163896e+00	1.271630e+00	1.193909e+00	9.796056e-01	1.244762e+00	9.836682e-01	9.070881e-01	1.314656e+00	8.285274e-01	9.536738e-01	1.057515e+00	1.030704e+00	1.026952e+00	1.003962e+00	9.444031e-01	1.091322e+00	1.123919e+00	1.062758e+00	1.053994e+00	7.781972e-01	7.801253e-01	7.878383e-01	8.415559e-01	9.260314e-01	9.217390e-01	8.385489e-01	1.002895e+00	8.160790e-01	1.106784e+00	1.123801e+00	1.064776e+00	1.149568e+00	1.220378e+00	1.308301e+00	1.034570e+00	1.179944e+00	1.173863e+00	1.022108e+00	1.119323e+00	9.014863e-01	9.525459e-01	8.384220e-01	8.882364e-01	9.098750e-01	9.556049e-01	9.650260e-01	9.383568e-01	9.222612e-01	9.704949e-01	9.711239e-01	9.306288e-01	9.479446e-01	1.102699e+00	8.828243e-01	8.742056e-01	1.146787e+00	9.541907e-01	9.540749e-01	9.483873e-01	9.507756e-01	1.013169e+00	9.436286e-01	9.321896e-01	8.465495e-01	8.372006e-01	9.484745e-01	9.460565e-01	1.053984e+00	1.080668e+00	8.990222e-01	8.913441e-01	8.797173e-01	8.673944e-01	8.563432e-01	9.433030e-01	9.403096e-01	9.931161e-01	9.738699e-01	9.555257e-01	9.324777e-01	9.373266e-01	9.416157e-01	8.219549e-01	8.191837e-01	8.238919e-01	8.600681e-01	8.786604e-01	9.147195e-01	9.213046e-01	8.895946e-01	9.035219e-01	8.820201e-01	8.865838e-01	1.115025e+00	8.953128e-01	9.000975e-01	8.843456e-01	7.910037e-01	1.093188e+00	8.827753e-01	8.928045e-01	7.833848e-01	7.854547e-01	8.216007e-01	8.280130e-01	8.347855e-01	9.765831e-01	1.082714e+00	1.072342e+00	1.046154e+00	1.039160e+00	1.032901e+00	1.021220e+00	1.015640e+00	1.009922e+00	9.977567e-01	9.911144e-01	9.840390e-01	9.688080e-01	9.607596e-01	9.526068e-01	9.285509e-01	8.908830e-01	8.869711e-01	9.211899e-01	9.142043e-01	9.076601e-01	7.906161e-01	7.937396e-01	7.973929e-01	8.015564e-01	8.062198e-01	9.152180e-01	9.284359e-01	8.610321e-01	8.614898e-01	8.703745e-01	9.534204e-01	9.521976e-01	9.433151e-01	9.600270e-01	8.486463e-01	8.563612e-01	8.646030e-01	7.789630e-01	7.718765e-01	7.720313e-01	7.754334e-01	1.119166e+00	1.112283e+00	1.103373e+00	9.370699e-01	9.336377e-01	9.299582e-01	8.956175e-01	9.011332e-01	1.271270e+00	9.013567e-01	1.118416e+00	1.096458e+00	9.493234e-01	1.259463e+00	1.157712e+00	9.633493e-01	9.564604e-01	1.037449e+00	1.100960e+00	8.866758e-01	1.248574e+00	1.015939e+00	1.178943e+00	1.113365e+00	1.108868e+00	1.179193e+00	9.366883e-01	1.143692e+00	1.180280e+00	1.180855e+00	8.721795e-01	8.386363e-01	1.081709e+00	9.465942e-01	9.153022e-01	9.523208e-01	9.138899e-01	1.094425e+00	8.982807e-01	1.113861e+00	1.111936e+00	1.002519e+00	8.230698e-01	7.889285e-01	1.118320e+00	8.916807e-01	9.408831e-01	1.136428e+00	1.095775e+00	1.143056e+00	1.043982e+00	1.104494e+00	9.164150e-01	1.204539e+00	9.116158e-01	9.053420e-01	1.128892e+00	1.128471e+00	1.153889e+00	1.025456e+00	8.867930e-01	7.842468e-01	1.221095e+00	1.042390e+00	9.449345e-01	1.059552e+00	7.833149e-01	7.854926e-01	7.869985e-01	9.253150e-01	9.213752e-01	1.100855e+00	1.072508e+00	1.107194e+00	1.229033e+00	1.284070e+00	1.059090e+00	1.017133e+00	1.104970e+00	9.045064e-01	9.100433e-01	9.270251e-01	9.519839e-01	9.608503e-01	9.456083e-01	9.300310e-01	9.668002e-01	9.693428e-01	9.680936e-01	9.631270e-01	9.877476e-01	8.841081e-01	8.790308e-01	1.136663e+00	9.531162e-01	9.533323e-01	9.490807e-01	9.509780e-01	9.504544e-01	9.508187e-01	8.560475e-01	8.461221e-01	9.472623e-01	1.067512e+00	1.088100e+00	8.995458e-01	8.916032e-01	8.882676e-01	8.763739e-01	8.659837e-01	9.448700e-01	9.422685e-01	1.017844e+00	9.985304e-01	9.796167e-01	9.619372e-01	9.309222e-01	9.356128e-01	9.397657e-01	9.434626e-01	8.337529e-01	8.335526e-01	8.407582e-01	8.560423e-01	8.741460e-01	9.258106e-01	9.200544e-01	8.882308e-01	8.883493e-01	1.106026e+00	1.110553e+00	8.935693e-01	8.996311e-01	8.950873e-01	8.671284e-01	8.218581e-01	9.024775e-01	9.141569e-01	7.910733e-01	7.937334e-01	8.286055e-01	8.346106e-01	8.417298e-01	8.491711e-01	1.085394e+00	1.076577e+00	1.067922e+00	1.051732e+00	1.044650e+00	1.038163e+00	1.031370e+00	1.020503e+00	1.014123e+00	1.008367e+00	9.960469e-01	9.896452e-01	9.824821e-01	9.755273e-01	9.676776e-01	9.603992e-01	9.521457e-01	8.901825e-01	8.930056e-01	9.299812e-01	9.222323e-01	9.162804e-01	9.092217e-01	7.965981e-01	7.999252e-01	8.033767e-01	8.074343e-01	8.120382e-01	8.173016e-01	9.263803e-01	9.399322e-01	8.732602e-01	8.785889e-01	8.917168e-01	9.530009e-01	9.523179e-01	9.509352e-01	9.557177e-01	9.732578e-01	9.928377e-01	8.565618e-01	8.642419e-01	8.728579e-01	8.820056e-01	7.893516e-01	7.793268e-01	7.801438e-01	7.820180e-01	1.093836e+00	1.107613e+00	1.101559e+00	9.392820e-01	9.362921e-01	9.327983e-01	9.294126e-01	8.965210e-01	9.023072e-01	9.077235e-01	1.124049e+00	1.115215e+00	1.038880e+00	1.171130e+00	1.146378e+00	9.092567e-01	9.105181e-01	1.168219e+00	1.098067e+00	1.211087e+00	1.060178e+00	8.515553e-01	8.370148e-01	1.051163e+00	1.137784e+00	1.230853e+00	1.290526e+00	1.291559e+00	1.276920e+00	1.228408e+00	1.137368e+00	7.902024e-01	1.058776e+00	1.117356e+00	9.649950e-01	8.843731e-01	9.476758e-01	1.106635e+00	1.086713e+00	1.102136e+00	8.974960e-01	8.920960e-01	9.413387e-01	9.977584e-01	8.934760e-01	9.490725e-01	7.881147e-01	1.101356e+00	9.241313e-01	1.157352e+00	1.097000e+00	1.285351e+00	1.176537e+00	1.169125e+00	9.650506e-01	1.040939e+00	1.246792e+00	1.026493e+00	1.190058e+00	1.105635e+00	1.167312e+00	1.171458e+00	1.171457e+00	1.102491e+00	9.244086e-01	9.194355e-01	1.097970e+00	9.065120e-01	1.104860e+00	1.106168e+00	9.188614e-01	1.200317e+00	7.905505e-01	7.931734e-01	7.941689e-01	9.270120e-01	1.077814e+00	1.107081e+00	1.258835e+00	1.081750e+00	9.285100e-01	9.396079e-01	9.503216e-01	9.586478e-01	9.383122e-01	9.538277e-01	9.650261e-01	9.686642e-01	9.696815e-01	9.685515e-01	9.952381e-01	1.017311e+00	8.908888e-01	1.126123e+00	9.520493e-01	9.524519e-01	9.495136e-01	9.508355e-01	9.671314e-01	9.770348e-01	8.656742e-01	8.551480e-01	1.076965e+00	1.092864e+00	9.001305e-01	8.974326e-01	8.849656e-01	8.775555e-01	9.450974e-01	1.022419e+00	1.003872e+00	9.857941e-01	9.696936e-01	9.294453e-01	9.339706e-01	9.380790e-01	9.417944e-01	9.448371e-01	8.457442e-01	8.493805e-01	8.551902e-01	8.694769e-01	8.838807e-01	1.100363e+00	1.102938e+00	1.104904e+00	8.958454e-01	9.007296e-01	8.998183e-01	8.812643e-01	8.480981e-01	9.126918e-01	9.250238e-01	7.976453e-01	7.993020e-01	8.409850e-01	8.489946e-01	8.572579e-01	1.078651e+00	1.071597e+00	1.063696e+00	1.056486e+00	1.049362e+00	1.042798e+00	1.036119e+00	1.027063e+00	1.019107e+00	1.009534e+00	9.847635e-01	9.707561e-01	9.560853e-01	9.273031e-01	9.151986e-01	8.036844e-01	8.059047e-01	8.109440e-01	8.134592e-01	8.192859e-01	8.245318e-01	8.304285e-01	9.380514e-01	9.517309e-01	8.878816e-01	8.952163e-01	9.118184e-01	9.524414e-01	9.515409e-01	9.673389e-01	9.855160e-01	1.004788e+00	8.653529e-01	8.734138e-01	8.820348e-01	8.921674e-01	9.023274e-01	8.136531e-01	7.916208e-01	7.882224e-01	7.875662e-01	1.098330e+00	1.091843e+00	9.399804e-01	9.339762e-01	8.951688e-01	9.030511e-01	9.090942e-01	9.138054e-01	1.163818e+00	1.144530e+00	1.157711e+00	1.248431e+00	1.174000e+00	1.068937e+00	1.100905e+00	1.182482e+00	1.098852e+00	1.139142e+00	1.095930e+00	1.237044e+00	1.061349e+00	1.138430e+00	7.947351e-01	1.172216e+00	1.080779e+00	1.155973e+00	1.118894e+00	1.053492e+00	9.500308e-01	1.098284e+00	9.260403e-01	9.799115e-01	9.737777e-01	9.379298e-01	9.197441e-01	8.617819e-01	1.209317e+00	9.489817e-01	9.481112e-01	9.342227e-01	8.532176e-01	1.097130e+00	1.081659e+00	1.207795e+00	1.057193e+00	1.037132e+00	1.163795e+00	1.097072e+00	1.287184e+00	1.224645e+00	1.107086e+00	9.089789e-01	8.985119e-01	9.033485e-01	1.105052e+00	1.167713e+00	1.120246e+00	1.262743e+00	1.171588e+00	1.044139e+00	1.194031e+00	1.176407e+00	9.064962e-01	1.080461e+00	1.098520e+00	1.095985e+00	8.988274e-01	7.975525e-01	8.018813e-01	9.171604e-01	1.105640e+00	1.131145e+00	1.100287e+00	9.455051e-01	9.609293e-01	9.619469e-01	9.705707e-01	9.734114e-01	1.019972e+00	1.116556e+00	9.511620e-01	9.891691e-01	1.003111e+00	8.713306e-01	1.083129e+00	9.013521e-01	8.959262e-01	9.016938e-01	8.872264e-01	9.472080e-01	1.026795e+00	1.008338e+00	9.913143e-01	9.793639e-01	9.344297e-01	9.416017e-01	9.462205e-01	8.652322e-01	8.849501e-01	1.097845e+00	1.098619e+00	8.956576e-01	8.491770e-01	9.355834e-01	8.078963e-01	8.653333e-01	1.015661e+00	1.069509e+00	1.056137e+00	1.043482e+00	1.033017e+00	1.024415e+00	1.005133e+00	9.932139e-01	9.803254e-01	9.667358e-01	9.526724e-01	9.388099e-01	9.265221e-01	9.163046e-01	8.153722e-01	8.237506e-01	8.328324e-01	8.369261e-01	8.449406e-01	9.498213e-01	9.637008e-01	8.968998e-01	9.079028e-01	9.292229e-01	9.519097e-01	9.514873e-01	9.786247e-01	9.962508e-01	1.015338e+00	1.035172e+00	8.748102e-01	8.832761e-01	8.919924e-01	9.021704e-01	9.145563e-01	9.223260e-01	8.065136e-01	7.956060e-01	1.094821e+00	1.089824e+00	9.430573e-01	9.319776e-01	9.250930e-01	9.053706e-01	9.172786e-01	1.109659e+00	1.162547e+00	1.158596e+00	1.126926e+00	1.005987e+00	1.102912e+00	1.168497e+00	1.133229e+00	1.163759e+00	1.114066e+00	1.145932e+00	1.123532e+00	1.103307e+00	1.188033e+00	1.216691e+00	1.094230e+00	9.104871e-01	8.026547e-01	1.116387e+00	9.769421e-01	1.079303e+00	9.400406e-01	1.082321e+00	1.147776e+00	9.475025e-01	9.980820e-01	9.362013e-01	9.486382e-01	1.063692e+00	1.075905e+00	1.062461e+00	1.047555e+00	1.165045e+00	1.097020e+00	1.099319e+00	1.093139e+00	8.075264e-01	9.165912e-01	9.237821e-01	9.694275e-01	1.141368e+00	1.148981e+00	1.263047e+00	1.050619e+00	1.093716e+00	1.168708e+00	1.087408e+00	1.167136e+00	1.130773e+00	9.504971e-01	1.204831e+00	9.591684e-01	9.429705e-01	1.095550e+00	1.225296e+00	1.037152e+00	1.097920e+00	9.168382e-01	1.239154e+00	1.170372e+00	9.855874e-01	1.192068e+00	1.178562e+00	9.030217e-01	1.096951e+00	1.091196e+00	9.072037e-01	8.034585e-01	9.268581e-01	1.124547e+00	1.145503e+00	9.586494e-01	9.698021e-01	9.809325e-01	9.873937e-01	1.108160e+00	9.497575e-01	1.010215e+00	1.023420e+00	9.440827e-01	9.137878e-01	9.291609e-01	9.061097e-01	9.270213e-01	9.106276e-01	8.951611e-01	1.029779e+00	9.317491e-01	9.386672e-01	8.817210e-01	8.752920e-01	9.303683e-01	1.094714e+00	9.057910e-01	9.042331e-01	8.729848e-01	1.072471e+00	1.061174e+00	1.021159e+00	1.049448e+00	1.038827e+00	1.029720e+00	1.011729e+00	1.000892e+00	9.890273e-01	9.764880e-01	9.633644e-01	9.499937e-01	9.375793e-01	8.134311e-01	8.210994e-01	8.300352e-01	8.397923e-01	8.489706e-01	8.614255e-01	9.603758e-01	9.753741e-01	9.062263e-01	9.452829e-01	9.511328e-01	9.513137e-01	9.895415e-01	1.005722e+00	1.024060e+00	1.042388e+00	1.061764e+00	8.848549e-01	8.948372e-01	9.031370e-01	9.125361e-01	9.245831e-01	8.774489e-01	8.348881e-01	8.094693e-01	1.088190e+00	1.081583e+00	9.455189e-01	9.412749e-01	8.818850e-01	8.988951e-01	9.146061e-01	9.243162e-01	1.144150e+00	1.151354e+00	1.148977e+00	1.112099e+00	1.153410e+00	1.130366e+00	1.117941e+00	1.015455e+00	1.166184e+00	1.116203e+00	1.112875e+00	1.048685e+00	1.159073e+00	1.089906e+00	8.197474e-01	1.134855e+00	1.138885e+00	1.108562e+00	1.163931e+00	1.082907e+00	9.046811e-01	1.008429e+00	9.853859e-01	9.155718e-01	1.130631e+00	1.123683e+00	1.119999e+00	1.166806e+00	1.151805e+00	9.174301e-01	9.