# vtk DataFile Version 3.0
vtk output
ASCII
DATASET UNSTRUCTURED_GRID
POINTS 200 float
9.997500e-01	-3.633650e-05	0.0	9.990000e-01	-1.457287e-04	0.0	9.977600e-01	-3.303104e-04	0.0	9.960200e-01	-6.049839e-04	0.0	9.937800e-01	-1.001065e-03	0.0	9.910500e-01	-1.569525e-03	0.0	9.878400e-01	-2.375117e-03	0.0	9.841300e-01	-3.485161e-03	0.0	9.799500e-01	-4.916644e-03	0.0	9.752800e-01	-6.637404e-03	0.0	9.701500e-01	-8.524346e-03	0.0	9.645400e-01	-1.042084e-02	0.0	9.584700e-01	-1.215204e-02	0.0	9.519400e-01	-1.360063e-02	0.0	9.449600e-01	-1.473324e-02	0.0	9.375400e-01	-1.560648e-02	0.0	9.296900e-01	-1.633786e-02	0.0	9.214000e-01	-1.706359e-02	0.0	9.127000e-01	-1.789381e-02	0.0	9.035800e-01	-1.889618e-02	0.0	8.940600e-01	-2.008403e-02	0.0	8.841500e-01	-2.142895e-02	0.0	8.738500e-01	-2.287728e-02	0.0	8.631800e-01	-2.436202e-02	0.0	8.521600e-01	-2.581899e-02	0.0	8.407700e-01	-2.720029e-02	0.0	8.290500e-01	-2.846565e-02	0.0	8.170100e-01	-2.959488e-02	0.0	8.046400e-01	-3.058339e-02	0.0	7.919700e-01	-3.143434e-02	0.0	7.790100e-01	-3.216051e-02	0.0	7.657800e-01	-3.277855e-02	0.0	7.522800e-01	-3.330745e-02	0.0	7.385200e-01	-3.376479e-02	0.0	7.245300e-01	-3.416540e-02	0.0	7.103200e-01	-3.452185e-02	0.0	6.958900e-01	-3.484376e-02	0.0	6.812700e-01	-3.513733e-02	0.0	6.664700e-01	-3.540710e-02	0.0	6.515000e-01	-3.565627e-02	0.0	6.363800e-01	-3.588727e-02	0.0	6.211300e-01	-3.610266e-02	0.0	6.057600e-01	-3.630568e-02	0.0	5.902800e-01	-3.650034e-02	0.0	5.747100e-01	-3.669142e-02	0.0	5.590600e-01	-3.688453e-02	0.0	5.433600e-01	-3.708545e-02	0.0	5.276100e-01	-3.730043e-02	0.0	5.118400e-01	-3.753493e-02	0.0	4.960500e-01	-3.779405e-02	0.0	4.802700e-01	-3.808130e-02	0.0	4.645100e-01	-3.839902e-02	0.0	4.487800e-01	-3.874793e-02	0.0	4.331100e-01	-3.912653e-02	0.0	4.175000e-01	-3.953226e-02	0.0	4.019700e-01	-3.996038e-02	0.0	3.865400e-01	-4.040461e-02	0.0	3.712300e-01	-4.085730e-02	0.0	3.560400e-01	-4.131039e-02	0.0	3.409900e-01	-4.175442e-02	0.0	3.261100e-01	-4.217914e-02	0.0	3.114000e-01	-4.257495e-02	0.0	2.968700e-01	-4.293194e-02	0.0	2.825500e-01	-4.323994e-02	0.0	2.684500e-01	-4.348975e-02	0.0	2.545700e-01	-4.367277e-02	0.0	2.409400e-01	-4.378060e-02	0.0	2.275700e-01	-4.380595e-02	0.0	2.144700e-01	-4.374222e-02	0.0	2.016600e-01	-4.358371e-02	0.0	1.891400e-01	-4.332525e-02	0.0	1.769300e-01	-4.296279e-02	0.0	1.650400e-01	-4.249288e-02	0.0	1.534900e-01	-4.191342e-02	0.0	1.422900e-01	-4.122283e-02	0.0	1.314400e-01	-4.041955e-02	0.0	1.209500e-01	-3.950325e-02	0.0	1.108500e-01	-3.847664e-02	0.0	1.011300e-01	-3.733954e-02	0.0	9.181000e-02	-3.609579e-02	0.0	8.290000e-02	-3.474934e-02	0.0	7.440000e-02	-3.330349e-02	0.0	6.633000e-02	-3.176595e-02	0.0	5.869000e-02	-3.014206e-02	0.0	5.149000e-02	-2.843998e-02	0.0	4.474000e-02	-2.666920e-02	0.0	3.844000e-02	-2.483741e-02	0.0	3.260000e-02	-2.295573e-02	0.0	2.723000e-02	-2.103638e-02	0.0	2.232000e-02	-1.908431e-02	0.0	1.790000e-02	-1.712037e-02	0.0	1.395000e-02	-1.514386e-02	0.0	1.049000e-02	-1.317093e-02	0.0	7.520000e-03	-1.120665e-02	0.0	5.040000e-03	-9.251660e-03	0.0	3.050000e-03	-7.299161e-03	0.0	1.560000e-03	-5.343803e-03	0.0	5.600000e-04	-3.333343e-03	0.0	6.000000e-05	-1.182547e-03	0.0	0.000000e+00	0.000000e+00	0.0	6.000000e-05	1.143813e-03	0.0	5.600000e-04	3.137709e-03	0.0	1.560000e-03	4.924243e-03	0.0	3.050000e-03	6.604230e-03	0.0	5.040000e-03	8.237673e-03	0.0	7.520000e-03	9.840581e-03	0.0	1.049000e-02	1.142852e-02	0.0	1.395000e-02	1.300974e-02	0.0	1.790000e-02	1.458810e-02	0.0	2.232000e-02	1.615795e-02	0.0	2.723000e-02	1.772651e-02	0.0	3.260000e-02	1.928309e-02	0.0	3.844000e-02	2.082919e-02	0.0	4.474000e-02	2.235975e-02	0.0	5.149000e-02	2.386995e-02	0.0	5.869000e-02	2.535712e-02	0.0	6.633000e-02	2.681644e-02	0.0	7.440000e-02	2.824340e-02	0.0	8.290000e-02	2.963545e-02	0.0	9.181000e-02	3.098698e-02	0.0	1.011300e-01	3.229593e-02	0.0	1.108500e-01	3.355895e-02	0.0	1.209500e-01	3.477193e-02	0.0	1.314400e-01	3.593470e-02	0.0	1.422900e-01	3.704282e-02	0.0	1.534900e-01	3.809473e-02	0.0	1.650400e-01	3.908997e-02	0.0	1.769300e-01	4.002736e-02	0.0	1.891400e-01	4.090535e-02	0.0	2.016600e-01	4.172353e-02	0.0	2.144700e-01	4.248114e-02	0.0	2.275700e-01	4.317881e-02	0.0	2.409400e-01	4.381617e-02	0.0	2.545700e-01	4.439353e-02	0.0	2.684500e-01	4.491118e-02	0.0	2.825500e-01	4.536874e-02	0.0	2.968700e-01	4.576687e-02	0.0	3.114000e-01	4.610565e-02	0.0	3.261100e-01	4.638460e-02	0.0	3.409900e-01	4.660360e-02	0.0	3.560400e-01	4.676232e-02	0.0	3.712300e-01	4.685987e-02	0.0	3.865400e-01	4.689540e-02	0.0	4.019700e-01	4.686786e-02	0.0	4.175000e-01	4.677596e-02	0.0	4.331100e-01	4.661831e-02	0.0	4.487800e-01	4.639349e-02	0.0	4.645100e-01	4.609961e-02	0.0	4.802700e-01	4.573515e-02	0.0	4.960500e-01	4.529816e-02	0.0	5.118400e-01	4.478650e-02	0.0	5.276100e-01	4.419861e-02	0.0	5.433600e-01	4.353184e-02	0.0	5.590600e-01	4.278478e-02	0.0	5.747100e-01	4.195480e-02	0.0	5.902800e-01	4.104119e-02	0.0	6.057600e-01	4.004280e-02	0.0	6.211300e-01	3.896011e-02	0.0	6.363800e-01	3.779424e-02	0.0	6.515000e-01	3.654793e-02	0.0	6.664700e-01	3.522675e-02	0.0	6.812700e-01	3.383865e-02	0.0	6.958900e-01	3.239294e-02	0.0	7.103200e-01	3.090085e-02	0.0	7.245300e-01	2.937720e-02	0.0	7.385200e-01	2.783430e-02	0.0	7.522800e-01	2.628506e-02	0.0	7.657800e-01	2.474313e-02	0.0	7.790100e-01	2.321734e-02	0.0	7.919700e-01	2.171194e-02	0.0	8.046400e-01	2.022980e-02	0.0	8.170100e-01	1.876900e-02	0.0	8.290500e-01	1.732706e-02	0.0	8.407700e-01	1.589468e-02	0.0	8.521600e-01	1.446362e-02	0.0	8.631800e-01	1.302908e-02	0.0	8.738500e-01	1.157873e-02	0.0	8.841500e-01	1.010642e-02	0.0	8.940600e-01	8.609584e-03	0.0	9.035800e-01	7.090401e-03	0.0	9.127000e-01	5.566798e-03	0.0	9.214000e-01	4.080185e-03	0.0	9.296900e-01	2.692876e-03	0.0	9.375400e-01	1.495699e-03	0.0	9.449600e-01	5.786308e-04	0.0	9.519400e-01	1.362684e-05	0.0	9.584700e-01	-1.789011e-04	0.0	9.645400e-01	-4.856036e-05	0.0	9.701500e-01	2.914896e-04	0.0	9.752800e-01	6.941634e-04	0.0	9.799500e-01	1.026684e-03	0.0	9.841300e-01	1.201504e-03	0.0	9.878400e-01	1.197585e-03	0.0	9.910500e-01	1.047349e-03	0.0	9.937800e-01	8.110642e-04	0.0	9.960200e-01	5.521946e-04	0.0	9.977600e-01	3.205093e-04	0.0	9.990000e-01	1.448337e-04	0.0	9.997500e-01	3.632231e-05	0.0	1.000000e+00	0.000000e+00	0.0	
CELLS 200	600
2	199	0	2	0	1	2	1	2	2	2	3	2	3	4	2	4	5	2	5	6	2	6	7	2	7	8	2	8	9	2	9	10	2	10	11	2	11	12	2	12	13	2	13	14	2	14	15	2	15	16	2	16	17	2	17	18	2	18	19	2	19	20	2	20	21	2	21	22	2	22	23	2	23	24	2	24	25	2	25	26	2	26	27	2	27	28	2	28	29	2	29	30	2	30	31	2	31	32	2	32	33	2	33	34	2	34	35	2	35	36	2	36	37	2	37	38	2	38	39	2	39	40	2	40	41	2	41	42	2	42	43	2	43	44	2	44	45	2	45	46	2	46	47	2	47	48	2	48	49	2	49	50	2	50	51	2	51	52	2	52	53	2	53	54	2	54	55	2	55	56	2	56	57	2	57	58	2	58	59	2	59	60	2	60	61	2	61	62	2	62	63	2	63	64	2	64	65	2	65	66	2	66	67	2	67	68	2	68	69	2	69	70	2	70	71	2	71	72	2	72	73	2	73	74	2	74	75	2	75	76	2	76	77	2	77	78	2	78	79	2	79	80	2	80	81	2	81	82	2	82	83	2	83	84	2	84	85	2	85	86	2	86	87	2	87	88	2	88	89	2	89	90	2	90	91	2	91	92	2	92	93	2	93	94	2	94	95	2	95	96	2	96	97	2	97	98	2	98	99	2	99	100	2	100	101	2	101	102	2	102	103	2	103	104	2	104	105	2	105	106	2	106	107	2	107	108	2	108	109	2	109	110	2	110	111	2	111	112	2	112	113	2	113	114	2	114	115	2	115	116	2	116	117	2	117	118	2	118	119	2	119	120	2	120	121	2	121	122	2	122	123	2	123	124	2	124	125	2	125	126	2	126	127	2	127	128	2	128	129	2	129	130	2	130	131	2	131	132	2	132	133	2	133	134	2	134	135	2	135	136	2	136	137	2	137	138	2	138	139	2	139	140	2	140	141	2	141	142	2	142	143	2	143	144	2	144	145	2	145	146	2	146	147	2	147	148	2	148	149	2	149	150	2	150	151	2	151	152	2	152	153	2	153	154	2	154	155	2	155	156	2	156	157	2	157	158	2	158	159	2	159	160	2	160	161	2	161	162	2	162	163	2	163	164	2	164	165	2	165	166	2	166	167	2	167	168	2	168	169	2	169	170	2	170	171	2	171	172	2	172	173	2	173	174	2	174	175	2	175	176	2	176	177	2	177	178	2	178	179	2	179	180	2	180	181	2	181	182	2	182	183	2	183	184	2	184	185	2	185	186	2	186	187	2	187	188	2	188	189	2	189	190	2	190	191	2	191	192	2	192	193	2	193	194	2	194	195	2	195	196	2	196	197	2	197	198	2	198	199	
CELL_TYPES 200
3	3	3	3	3	3	3	3	3	3	3	3	3	3	3	3	3	3	3	3	3	3	3	3	3	3	3	3	3	3	3	3	3	3	3	3	3	3	3	3	3	3	3	3	3	3	3	3	3	3	3	3	3	3	3	3	3	3	3	3	3	3	3	3	3	3	3	3	3	3	3	3	3	3	3	3	3	3	3	3	3	3	3	3	3	3	3	3	3	3	3	3	3	3	3	3	3	3	3	3	3	3	3	3	3	3	3	3	3	3	3	3	3	3	3	3	3	3	3	3	3	3	3	3	3	3	3	3	3	3	3	3	3	3	3	3	3	3	3	3	3	3	3	3	3	3	3	3	3	3	3	3	3	3	3	3	3	3	3	3	3	3	3	3	3	3	3	3	3	3	3	3	3	3	3	3	3	3	3	3	3	3	3	3	3	3	3	3	3	3	3	3	3	3	3	3	3	3	3	3	
POINT_DATA 200

SCALARS Conservative_1 float 1
LOOKUP_TABLE default
1.193805e+00	1.179371e+00	1.173257e+00	1.171450e+00	1.170745e+00	1.168184e+00	1.159684e+00	1.142194e+00	1.112796e+00	1.070712e+00	1.015918e+00	9.394890e-01	8.656649e-01	8.418363e-01	8.621640e-01	9.018525e-01	9.421665e-01	9.706760e-01	9.852460e-01	9.877610e-01	9.804213e-01	9.657696e-01	9.465235e-01	9.245780e-01	8.992627e-01	8.703003e-01	8.445239e-01	8.303439e-01	8.290564e-01	8.366992e-01	8.486612e-01	8.616895e-01	8.740808e-01	8.849997e-01	8.943780e-01	9.023175e-01	9.090591e-01	9.148787e-01	9.199780e-01	9.246079e-01	9.288984e-01	9.329894e-01	9.369090e-01	9.406802e-01	9.442429e-01	9.475433e-01	9.504804e-01	9.529753e-01	9.549257e-01	9.562573e-01	9.568879e-01	9.567730e-01	9.558684e-01	9.541586e-01	9.516270e-01	9.482820e-01	9.441258e-01	9.391919e-01	9.335558e-01	9.273089e-01	9.204667e-01	9.128020e-01	9.042101e-01	8.953963e-01	8.878153e-01	8.815181e-01	8.733640e-01	8.578492e-01	8.332036e-01	8.083299e-01	7.937766e-01	7.904637e-01	7.940170e-01	8.004271e-01	8.078306e-01	8.157852e-01	8.246253e-01	8.346858e-01	8.459504e-01	8.583472e-01	8.718846e-01	8.865115e-01	9.022743e-01	9.191541e-01	9.371886e-01	9.564542e-01	9.769519e-01	9.987806e-01	1.022112e+00	1.046976e+00	1.073696e+00	1.102737e+00	1.134466e+00	1.169888e+00	1.209869e+00	1.254338e+00	1.299845e+00	1.345373e+00	1.350434e+00	1.328567e+00	1.306138e+00	1.237678e+00	1.117527e+00	1.036890e+00	9.858124e-01	9.546613e-01	9.347485e-01	9.202751e-01	9.083346e-01	8.979524e-01	8.886031e-01	8.798672e-01	8.716522e-01	8.637849e-01	8.562396e-01	8.490449e-01	8.420996e-01	8.353295e-01	8.287876e-01	8.225286e-01	8.166437e-01	8.111100e-01	8.057920e-01	8.006160e-01	7.956993e-01	7.912458e-01	7.873143e-01	7.837177e-01	7.803271e-01	7.772100e-01	7.745492e-01	7.724136e-01	7.707300e-01	7.693458e-01	7.681473e-01	7.670793e-01	7.662375e-01	7.658009e-01	7.655872e-01	7.643216e-01	7.604561e-01	7.560216e-01	7.625826e-01	7.977086e-01	8.527548e-01	8.875113e-01	8.915491e-01	8.811612e-01	8.717235e-01	8.684095e-01	8.696290e-01	8.726788e-01	8.761374e-01	8.800897e-01	8.849122e-01	8.906675e-01	8.971096e-01	9.041206e-01	9.117399e-01	9.200102e-01	9.288530e-01	9.381235e-01	9.476129e-01	9.571339e-01	9.664540e-01	9.754006e-01	9.837758e-01	9.914708e-01	9.983807e-01	1.004566e+00	1.010094e+00	1.015134e+00	1.019928e+00	1.024755e+00	1.029933e+00	1.035823e+00	1.042830e+00	1.051469e+00	1.062260e+00	1.075698e+00	1.091829e+00	1.110036e+00	1.128753e+00	1.145911e+00	1.159140e+00	1.166143e+00	1.164938e+00	1.154261e+00	1.134001e+00	1.106494e+00	1.077862e+00	1.055802e+00	1.047648e+00	1.056472e+00	1.078062e+00	1.104694e+00	1.131309e+00	1.157370e+00	1.185593e+00	1.174632e+00	
SCALARS Conservative_2 float 1
LOOKUP_TABLE default
7.006972e-01	7.224625e-01	7.342206e-01	7.375381e-01	7.359316e-01	7.351047e-01	7.388239e-01	7.517986e-01	7.768343e-01	8.137402e-01	8.588966e-01	9.052702e-01	9.386329e-01	9.618514e-01	9.751380e-01	9.739025e-01	9.652095e-01	9.547665e-01	9.461892e-01	9.425262e-01	9.438899e-01	9.490040e-01	9.559306e-01	9.631934e-01	9.698823e-01	9.747636e-01	9.767859e-01	9.774957e-01	9.781566e-01	9.788382e-01	9.793062e-01	9.793346e-01	9.790164e-01	9.782346e-01	9.772588e-01	9.761374e-01	9.750036e-01	9.739259e-01	9.728257e-01	9.717749e-01	9.706905e-01	9.696170e-01	9.684987e-01	9.673881e-01	9.662660e-01	9.652001e-01	9.641968e-01	9.633306e-01	9.626186e-01	9.621240e-01	9.618582e-01	9.618757e-01	9.621680e-01	9.627532e-01	9.636095e-01	9.647372e-01	9.660882e-01	9.676301e-01	9.692915e-01	9.710005e-01	9.727646e-01	9.745535e-01	9.763225e-01	9.777295e-01	9.786066e-01	9.790466e-01	9.797451e-01	9.809323e-01	9.814664e-01	9.794463e-01	9.768067e-01	9.755202e-01	9.754022e-01	9.756494e-01	9.759668e-01	9.759646e-01	9.756573e-01	9.749305e-01	9.734810e-01	9.711560e-01	9.678547e-01	9.632650e-01	9.571832e-01	9.492669e-01	9.391569e-01	9.263716e-01	9.103597e-01	8.905664e-01	8.661122e-01	8.357446e-01	7.979768e-01	7.505564e-01	6.899050e-01	6.116863e-01	5.093058e-01	3.769745e-01	2.204412e-01	6.909292e-02	-4.481014e-03	7.643293e-03	7.465038e-02	2.366154e-01	4.603327e-01	6.294117e-01	7.401879e-01	8.105664e-01	8.553190e-01	8.851079e-01	9.056576e-01	9.205944e-01	9.318236e-01	9.404071e-01	9.471743e-01	9.525768e-01	9.568892e-01	9.603543e-01	9.631105e-01	9.652669e-01	9.669950e-01	9.683211e-01	9.693237e-01	9.700689e-01	9.705463e-01	9.707534e-01	9.708273e-01	9.708156e-01	9.707613e-01	9.705896e-01	9.703504e-01	9.700687e-01	9.698407e-01	9.696606e-01	9.695389e-01	9.694255e-01	9.693259e-01	9.692308e-01	9.691770e-01	9.691754e-01	9.690957e-01	9.685623e-01	9.678443e-01	9.673947e-01	9.700447e-01	9.777454e-01	9.787675e-01	9.761529e-01	9.758720e-01	9.771753e-01	9.784395e-01	9.790193e-01	9.790065e-01	9.786932e-01	9.782197e-01	9.776840e-01	9.769570e-01	9.760203e-01	9.748192e-01	9.733257e-01	9.714905e-01	9.692770e-01	9.666403e-01	9.635961e-01	9.601625e-01	9.564191e-01	9.524509e-01	9.483866e-01	9.443406e-01	9.404552e-01	9.367342e-01	9.332907e-01	9.300529e-01	9.269110e-01	9.237458e-01	9.203585e-01	9.164788e-01	9.118040e-01	9.058836e-01	8.981910e-01	8.879656e-01	8.745831e-01	8.576228e-01	8.375593e-01	8.160565e-01	7.962240e-01	7.817956e-01	7.762930e-01	7.821291e-01	7.998126e-01	8.270878e-01	8.590663e-01	8.881058e-01	9.059622e-01	9.083610e-01	8.966832e-01	8.739941e-01	8.444511e-01	8.105222e-01	7.725258e-01	7.296459e-01	6.570859e-01	
SCALARS Conservative_3 float 1
LOOKUP_TABLE default
9.993294e-02	1.044472e-01	1.121656e-01	1.233689e-01	1.420056e-01	1.692361e-01	2.037201e-01	2.413467e-01	2.758355e-01	2.981156e-01	2.997565e-01	2.821799e-01	2.383973e-01	1.828669e-01	1.349924e-01	1.008633e-01	8.559902e-02	8.657800e-02	9.678586e-02	1.103447e-01	1.227173e-01	1.309538e-01	1.334580e-01	1.300811e-01	1.224403e-01	1.124070e-01	9.996712e-02	8.614206e-02	7.265809e-02	6.052542e-02	5.021637e-02	4.177632e-02	3.513434e-02	2.999791e-02	2.603802e-02	2.297154e-02	2.054784e-02	1.856865e-02	1.690248e-02	1.546539e-02	1.423176e-02	1.321294e-02	1.244391e-02	1.196921e-02	1.183391e-02	1.206648e-02	1.268074e-02	1.366143e-02	1.498005e-02	1.657398e-02	1.837563e-02	2.029045e-02	2.222698e-02	2.407898e-02	2.574633e-02	2.713056e-02	2.814553e-02	2.870793e-02	2.874313e-02	2.816127e-02	2.691121e-02	2.504085e-02	2.263260e-02	1.954044e-02	1.539761e-02	9.940579e-03	3.545337e-03	-2.614408e-03	-7.845429e-03	-1.430805e-02	-2.299042e-02	-3.276105e-02	-4.319199e-02	-5.418849e-02	-6.588941e-02	-7.840171e-02	-9.185568e-02	-1.062592e-01	-1.216010e-01	-1.379239e-01	-1.552326e-01	-1.735121e-01	-1.927797e-01	-2.130022e-01	-2.341369e-01	-2.561541e-01	-2.790269e-01	-3.027019e-01	-3.270263e-01	-3.518978e-01	-3.770805e-01	-4.018281e-01	-4.248742e-01	-4.430656e-01	-4.488223e-01	-4.270479e-01	-3.509382e-01	-1.871511e-01	5.053813e-02	2.478005e-01	4.330810e-01	6.216739e-01	6.663013e-01	6.149531e-01	5.420240e-01	4.756612e-01	4.211918e-01	3.767878e-01	3.401566e-01	3.092526e-01	2.829144e-01	2.600066e-01	2.397874e-01	2.217164e-01	2.053797e-01	1.904721e-01	1.767638e-01	1.640442e-01	1.522053e-01	1.411291e-01	1.307403e-01	1.209994e-01	1.118297e-01	1.031424e-01	9.492016e-02	8.714424e-02	7.984378e-02	7.294086e-02	6.640072e-02	6.017208e-02	5.427365e-02	4.870274e-02	4.344267e-02	3.843987e-02	3.365980e-02	2.905868e-02	2.461288e-02	2.033780e-02	1.632399e-02	1.250787e-02	8.437146e-03	3.378819e-03	-2.753172e-03	-7.777148e-03	-6.098941e-03	-7.893863e-03	-1.366794e-02	-2.014721e-02	-2.571176e-02	-3.024745e-02	-3.452255e-02	-3.907196e-02	-4.403267e-02	-4.930834e-02	-5.473088e-02	-6.025517e-02	-6.588727e-02	-7.160013e-02	-7.729282e-02	-8.283950e-02	-8.808810e-02	-9.292083e-02	-9.717895e-02	-1.007744e-01	-1.036102e-01	-1.057068e-01	-1.070971e-01	-1.079352e-01	-1.084149e-01	-1.087870e-01	-1.093130e-01	-1.102379e-01	-1.117765e-01	-1.140774e-01	-1.172372e-01	-1.213166e-01	-1.262818e-01	-1.319400e-01	-1.377566e-01	-1.426061e-01	-1.446173e-01	-1.413289e-01	-1.302444e-01	-1.098383e-01	-8.015348e-02	-4.335887e-02	-3.844118e-03	3.210286e-02	5.704647e-02	6.426056e-02	5.055841e-02	1.939917e-02	-2.043641e-02	-5.855597e-02	-8.691734e-02	-1.028673e-01	-1.088324e-01	-1.066848e-01	-9.983672e-02	3.476417e-03	
SCALARS Conservative_4 float 1
LOOKUP_TABLE default
3.426495e+00	3.390386e+00	3.375772e+00	3.371697e+00	3.370064e+00	3.363879e+00	3.342678e+00	3.298978e+00	3.225339e+00	3.119629e+00	2.981273e+00	2.786093e+00	2.595958e+00	2.536661e+00	2.591892e+00	2.695091e+00	2.799292e+00	2.872582e+00	2.909576e+00	2.915740e+00	2.896812e+00	2.859238e+00	2.809815e+00	2.753282e+00	2.687749e+00	2.612299e+00	2.544653e+00	2.507247e+00	2.503727e+00	2.523717e+00	2.555098e+00	2.589271e+00	2.621771e+00	2.650326e+00	2.674812e+00	2.695487e+00	2.713015e+00	2.728136e+00	2.741353e+00	2.753350e+00	2.764446e+00	2.775024e+00	2.785141e+00	2.794874e+00	2.804056e+00	2.812561e+00	2.820121e+00	2.826545e+00	2.831561e+00	2.834989e+00	2.836609e+00	2.836317e+00	2.833994e+00	2.829602e+00	2.823092e+00	2.814490e+00	2.803790e+00	2.791077e+00	2.776537e+00	2.760395e+00	2.742702e+00	2.722852e+00	2.700563e+00	2.677609e+00	2.657786e+00	2.641247e+00	2.619912e+00	2.579386e+00	2.514814e+00	2.449078e+00	2.410275e+00	2.401298e+00	2.410649e+00	2.427629e+00	2.447303e+00	2.468400e+00	2.491823e+00	2.518434e+00	2.548122e+00	2.580686e+00	2.616158e+00	2.654349e+00	2.695371e+00	2.739130e+00	2.785687e+00	2.835190e+00	2.887588e+00	2.943120e+00	3.002162e+00	3.064687e+00	3.131479e+00	3.203628e+00	3.281878e+00	3.368759e+00	3.466260e+00	3.574205e+00	3.684456e+00	3.798194e+00	3.808515e+00	3.753186e+00	3.704449e+00	3.541338e+00	3.235281e+00	3.030726e+00	2.901972e+00	2.824332e+00	2.774921e+00	2.738838e+00	2.708711e+00	2.682282e+00	2.658332e+00	2.635801e+00	2.614528e+00	2.594086e+00	2.574411e+00	2.555601e+00	2.537391e+00	2.519588e+00	2.502363e+00	2.485851e+00	2.470300e+00	2.455659e+00	2.441559e+00	2.427795e+00	2.414714e+00	2.402857e+00	2.392386e+00	2.382781e+00	2.373718e+00	2.365377e+00	2.358264e+00	2.352552e+00	2.348051e+00	2.344345e+00	2.341138e+00	2.338282e+00	2.336036e+00	2.334869e+00	2.334258e+00	2.330766e+00	2.320479e+00	2.308831e+00	2.326773e+00	2.420761e+00	2.565272e+00	2.656182e+00	2.666806e+00	2.639759e+00	2.615269e+00	2.606751e+00	2.610010e+00	2.618014e+00	2.627063e+00	2.637416e+00	2.650030e+00	2.665069e+00	2.681875e+00	2.700132e+00	2.719934e+00	2.741389e+00	2.764280e+00	2.788230e+00	2.812687e+00	2.837175e+00	2.861093e+00	2.884010e+00	2.905424e+00	2.925077e+00	2.942685e+00	2.958441e+00	2.972505e+00	2.985309e+00	2.997480e+00	3.009722e+00	3.022835e+00	3.037726e+00	3.055395e+00	3.077130e+00	3.104177e+00	3.137764e+00	3.177944e+00	3.223166e+00	3.269528e+00	3.312024e+00	3.344909e+00	3.362593e+00	3.360158e+00	3.334331e+00	3.284484e+00	3.216140e+00	3.144460e+00	3.088480e+00	3.066952e+00	3.088451e+00	3.142372e+00	3.208838e+00	3.274759e+00	3.338866e+00	3.408739e+00	3.364988e+00	
SCALARS Pressure float 1
LOOKUP_TABLE default
1.286671e+00	1.265791e+00	1.256270e+00	1.253210e+00	1.252059e+00	1.248132e+00	1.235774e+00	1.210424e+00	1.168000e+00	1.107563e+00	1.029591e+00	9.230268e-01	8.217025e-01	7.869244e-01	8.119466e-01	8.654387e-01	9.203983e-01	9.596647e-01	9.801928e-01	9.839582e-01	9.739089e-01	9.536379e-01	9.270765e-01	8.969683e-01	8.625560e-01	8.236626e-01	7.895424e-01	7.709662e-01	7.694028e-01	7.795864e-01	7.954322e-01	8.126949e-01	8.291159e-01	8.436687e-01	8.562090e-01	8.668786e-01	8.759667e-01	8.838220e-01	8.907372e-01	8.970187e-01	9.028620e-01	9.084355e-01	9.137927e-01	9.189484e-01	9.238322e-01	9.283566e-01	9.323925e-01	9.358190e-01	9.385027e-01	9.403327e-01	9.412021e-01	9.410398e-01	9.397923e-01	9.374341e-01	9.339489e-01	9.293450e-01	9.236359e-01	9.168695e-01	9.091586e-01	9.006369e-01	8.913169e-01	8.809070e-01	8.692747e-01	8.574316e-01	8.473245e-01	8.390031e-01	8.281450e-01	8.074179e-01	7.746886e-01	7.422232e-01	7.235690e-01	7.194674e-01	7.241449e-01	7.324718e-01	7.420268e-01	7.523342e-01	7.638126e-01	7.769204e-01	7.917055e-01	8.080839e-01	8.260580e-01	8.456147e-01	8.668240e-01	8.897067e-01	9.143502e-01	9.409085e-01	9.694355e-01	1.000084e+00	1.033154e+00	1.068794e+00	1.107493e+00	1.149996e+00	1.197016e+00	1.249979e+00	1.310325e+00	1.377945e+00	1.447356e+00	1.513361e+00	1.523025e+00	1.492022e+00	1.452207e+00	1.345036e+00	1.176735e+00	1.062935e+00	9.900327e-01	9.446887e-01	9.154832e-01	8.944248e-01	8.774102e-01	8.628503e-01	8.498887e-01	8.379310e-01	8.267704e-01	8.161530e-01	8.060380e-01	7.964433e-01	7.872335e-01	7.783087e-01	7.697050e-01	7.615066e-01	7.538241e-01	7.466176e-01	7.397223e-01	7.330513e-01	7.267210e-01	7.209956e-01	7.159447e-01	7.113506e-01	7.070277e-01	7.030623e-01	6.996704e-01	6.969511e-01	6.948047e-01	6.930461e-01	6.915215e-01	6.901613e-01	6.890833e-01	6.885273e-01	6.882936e-01	6.867895e-01	6.818150e-01	6.759562e-01	6.839176e-01	7.286064e-01	8.014198e-01	8.477291e-01	8.530463e-01	8.390813e-01	8.263118e-01	8.217461e-01	8.233016e-01	8.273383e-01	8.319434e-01	8.371938e-01	8.436197e-01	8.513020e-01	8.599301e-01	8.693531e-01	8.796318e-01	8.908276e-01	9.028483e-01	9.154990e-01	9.285059e-01	9.416070e-01	9.544853e-01	9.668889e-01	9.785406e-01	9.892678e-01	9.989404e-01	1.007606e+00	1.015365e+00	1.022458e+00	1.029215e+00	1.036029e+00	1.043361e+00	1.051722e+00	1.061715e+00	1.074089e+00	1.089644e+00	1.109111e+00	1.132615e+00	1.159274e+00	1.186808e+00	1.212054e+00	1.231397e+00	1.241360e+00	1.239038e+00	1.222712e+00	1.192572e+00	1.152316e+00	1.110958e+00	1.079843e+00	1.069182e+00	1.082519e+00	1.113837e+00	1.152516e+00	1.191670e+00	1.230450e+00	1.272005e+00	1.272479e+00	
SCALARS Temperature float 1
LOOKUP_TABLE default
1.077789e+00	1.073276e+00	1.070754e+00	1.069794e+00	1.069455e+00	1.068438e+00	1.065613e+00	1.059736e+00	1.049609e+00	1.034417e+00	1.013459e+00	9.824775e-01	9.492154e-01	9.347713e-01	9.417543e-01	9.596233e-01	9.768956e-01	9.886561e-01	9.948711e-01	9.961500e-01	9.933576e-01	9.874384e-01	9.794543e-01	9.701381e-01	9.591814e-01	9.464120e-01	9.348964e-01	9.284902e-01	9.280465e-01	9.317404e-01	9.372789e-01	9.431413e-01	9.485576e-01	9.532983e-01	9.573234e-01	9.607246e-01	9.635972e-01	9.660538e-01	9.682157e-01	9.701612e-01	9.719708e-01	9.736826e-01	9.753270e-01	9.768977e-01	9.783840e-01	9.797512e-01	9.809697e-01	9.819971e-01	9.828019e-01	9.833469e-01	9.836075e-01	9.835559e-01	9.831816e-01	9.824719e-01	9.814232e-01	9.800302e-01	9.782975e-01	9.762323e-01	9.738664e-01	9.712373e-01	9.683314e-01	9.650581e-01	9.613637e-01	9.576002e-01	9.543929e-01	9.517707e-01	9.482244e-01	9.412119e-01	9.297711e-01	9.182182e-01	9.115524e-01	9.101840e-01	9.120018e-01	9.151013e-01	9.185426e-01	9.222210e-01	9.262542e-01	9.307938e-01	9.358769e-01	9.414418e-01	9.474396e-01	9.538677e-01	9.607100e-01	9.679626e-01	9.756310e-01	9.837465e-01	9.923062e-01	1.001305e+00	1.010803e+00	1.020839e+00	1.031477e+00	1.042857e+00	1.055136e+00	1.068460e+00	1.083030e+00	1.098543e+00	1.113483e+00	1.124864e+00	1.127804e+00	1.123031e+00	1.111833e+00	1.086742e+00	1.052981e+00	1.025118e+00	1.004281e+00	9.895538e-01	9.793899e-01	9.719102e-01	9.659548e-01	9.609087e-01	9.564324e-01	9.523381e-01	9.485096e-01	9.448567e-01	9.413697e-01	9.380462e-01	9.348460e-01	9.317385e-01	9.287120e-01	9.258116e-01	9.230759e-01	9.204887e-01	9.180065e-01	9.156091e-01	9.133112e-01	9.112158e-01	9.093506e-01	9.076619e-01	9.060657e-01	9.045976e-01	9.033261e-01	9.023030e-01	9.014891e-01	9.008252e-01	9.002460e-01	8.997262e-01	8.993077e-01	8.990944e-01	8.990401e-01	8.985609e-01	8.965869e-01	8.940965e-01	8.968439e-01	9.133741e-01	9.398009e-01	9.551755e-01	9.568136e-01	9.522449e-01	9.479058e-01	9.462656e-01	9.467273e-01	9.480444e-01	9.495581e-01	9.512596e-01	9.533372e-01	9.558023e-01	9.585564e-01	9.615455e-01	9.647836e-01	9.682801e-01	9.720035e-01	9.758833e-01	9.798368e-01	9.837777e-01	9.876159e-01	9.912736e-01	9.946785e-01	9.977781e-01	1.000561e+00	1.003025e+00	1.005218e+00	1.007215e+00	1.009106e+00	1.011002e+00	1.013037e+00	1.015349e+00	1.018110e+00	1.021513e+00	1.025779e+00	1.031062e+00	1.037356e+00	1.044358e+00	1.051433e+00	1.057721e+00	1.062337e+00	1.064501e+00	1.063608e+00	1.059303e+00	1.051650e+00	1.041413e+00	1.030706e+00	1.022771e+00	1.020555e+00	1.024655e+00	1.033184e+00	1.043290e+00	1.053355e+00	1.063143e+00	1.072885e+00	1.083300e+00	
SCALARS Pressure_Coefficient float 1
LOOKUP_TABLE default
6.398902e-01	5.932831e-01	5.720303e-01	5.652018e-01	5.626325e-01	5.538665e-01	5.262813e-01	4.696968e-01	3.750010e-01	2.400954e-01	6.605199e-02	-1.718151e-01	-3.979854e-01	-4.756151e-01	-4.197620e-01	-3.003601e-01	-1.776823e-01	-9.003405e-02	-4.421254e-02	-3.580766e-02	-5.823900e-02	-1.034868e-01	-1.627758e-01	-2.299815e-01	-3.067946e-01	-3.936102e-01	-4.697715e-01	-5.112362e-01	-5.147258e-01	-4.919946e-01	-4.566245e-01	-4.180917e-01	-3.814376e-01	-3.489538e-01	-3.209622e-01	-2.971460e-01	-2.768600e-01	-2.593258e-01	-2.438903e-01	-2.298690e-01	-2.168258e-01	-2.043850e-01	-1.924270e-01	-1.809188e-01	-1.700175e-01	-1.599182e-01	-1.509097e-01	-1.432612e-01	-1.372707e-01	-1.331859e-01	-1.312453e-01	-1.316077e-01	-1.343922e-01	-1.396561e-01	-1.474355e-01	-1.577121e-01	-1.704555e-01	-1.855592e-01	-2.027709e-01	-2.217926e-01	-2.425963e-01	-2.658327e-01	-2.917975e-01	-3.182330e-01	-3.407935e-01	-3.593680e-01	-3.836048e-01	-4.298708e-01	-5.029272e-01	-5.753946e-01	-6.170335e-01	-6.261889e-01	-6.157480e-01	-5.971611e-01	-5.758331e-01	-5.528255e-01	-5.272040e-01	-4.979456e-01	-4.649431e-01	-4.283841e-01	-3.882634e-01	-3.446101e-01	-2.972678e-01	-2.461903e-01	-1.911826e-01	-1.319007e-01	-6.822438e-02	1.883728e-04	7.400395e-02	1.535576e-01	2.399406e-01	3.348130e-01	4.397684e-01	5.579878e-01	6.926891e-01	8.436264e-01	9.985618e-01	1.145895e+00	1.167466e+00	1.098263e+00	1.009390e+00	7.701694e-01	3.944970e-01	1.404801e-01	-2.224841e-02	-1.234627e-01	-1.886536e-01	-2.356590e-01	-2.736380e-01	-3.061378e-01	-3.350698e-01	-3.617611e-01	-3.866732e-01	-4.103727e-01	-4.329509e-01	-4.543676e-01	-4.749253e-01	-4.948467e-01	-5.140513e-01	-5.323514e-01	-5.494998e-01	-5.655857e-01	-5.809769e-01	-5.958677e-01	-6.099977e-01	-6.227776e-01	-6.340520e-01	-6.443066e-01	-6.539561e-01	-6.628074e-01	-6.703785e-01	-6.764485e-01	-6.812395e-01	-6.851650e-01	-6.885681e-01	-6.916042e-01	-6.940105e-01	-6.952515e-01	-6.957733e-01	-6.991306e-01	-7.102344e-01	-7.233120e-01	-7.055411e-01	-6.057893e-01	-4.432595e-01	-3.398904e-01	-3.280216e-01	-3.591936e-01	-3.876968e-01	-3.978882e-01	-3.944162e-01	-3.854056e-01	-3.751264e-01	-3.634068e-01	-3.490632e-01	-3.319151e-01	-3.126559e-01	-2.916227e-01	-2.686791e-01	-2.436885e-01	-2.168565e-01	-1.886182e-01	-1.595850e-01	-1.303414e-01	-1.015952e-01	-7.390880e-02	-4.790056e-02	-2.395580e-02	-2.365204e-03	1.697683e-02	3.429708e-02	5.012970e-02	6.521301e-02	8.042271e-02	9.678723e-02	1.154504e-01	1.377576e-01	1.653781e-01	2.000986e-01	2.435511e-01	2.960162e-01	3.555231e-01	4.169826e-01	4.733357e-01	5.165104e-01	5.387509e-01	5.335664e-01	4.971254e-01	4.298471e-01	3.399918e-01	2.476752e-01	1.782215e-01	1.544251e-01	1.841943e-01	2.540996e-01	3.404378e-01	4.278358e-01	5.143970e-01	6.071548e-01	6.082116e-01	
SCALARS Mach float 1
LOOKUP_TABLE default
4.826568e-01	5.049367e-01	5.170518e-01	5.216014e-01	5.232004e-01	5.279755e-01	5.410655e-01	5.675418e-01	6.111102e-01	6.725873e-01	7.517495e-01	8.605905e-01	9.704517e-01	1.016656e+00	9.944099e-01	9.366607e-01	8.794416e-01	8.394880e-01	8.179865e-01	8.135256e-01	8.232497e-01	8.436678e-01	8.708244e-01	9.020156e-01	9.381051e-01	9.794779e-01	1.016259e+00	1.036535e+00	1.037935e+00	1.026263e+00	1.008686e+00	9.899715e-01	9.725726e-01	9.572505e-01	9.441680e-01	9.330574e-01	9.236316e-01	9.155386e-01	9.083914e-01	9.019388e-01	8.959188e-01	8.902073e-01	8.847046e-01	8.794343e-01	8.744336e-01	8.698218e-01	8.657017e-01	8.622204e-01	8.594889e-01	8.576366e-01	8.567504e-01	8.569256e-01	8.581985e-01	8.606094e-01	8.641658e-01	8.688793e-01	8.747252e-01	8.816688e-01	8.895929e-01	8.983611e-01	9.080081e-01	9.188226e-01	9.309637e-01	9.432657e-01	9.536998e-01	9.621977e-01	9.736460e-01	9.961435e-01	1.032491e+00	1.068812e+00	1.089622e+00	1.093882e+00	1.088222e+00	1.078555e+00	1.067797e+00	1.056267e+00	1.043585e+00	1.029258e+00	1.013144e+00	9.954088e-01	9.761728e-01	9.554041e-01	9.331050e-01	9.092295e-01	8.836860e-01	8.562771e-01	8.268950e-01	7.954075e-01	7.614111e-01	7.244961e-01	6.840397e-01	6.389416e-01	5.876290e-01	5.278712e-01	4.556691e-01	3.661901e-01	2.553603e-01	1.181630e-01	2.989960e-02	1.488214e-01	2.696834e-01	4.357174e-01	5.968628e-01	7.083995e-01	7.848461e-01	8.364000e-01	8.710417e-01	8.961206e-01	9.158653e-01	9.324545e-01	9.470700e-01	9.603613e-01	9.727272e-01	9.844727e-01	9.956393e-01	1.006243e+00	1.016419e+00	1.026269e+00	1.035835e+00	1.044979e+00	1.053582e+00	1.061701e+00	1.069474e+00	1.076969e+00	1.084140e+00	1.090670e+00	1.096475e+00	1.101724e+00	1.106681e+00	1.111236e+00	1.115178e+00	1.118347e+00	1.120867e+00	1.122922e+00	1.124715e+00	1.126323e+00	1.127617e+00	1.128276e+00	1.128444e+00	1.129926e+00	1.136024e+00	1.143710e+00	1.135231e+00	1.083944e+00	1.000649e+00	9.511577e-01	9.458287e-01	9.606629e-01	9.746720e-01	9.799486e-01	9.784642e-01	9.742257e-01	9.693462e-01	9.638505e-01	9.571245e-01	9.491202e-01	9.401463e-01	9.303681e-01	9.197267e-01	9.081782e-01	8.958098e-01	8.828399e-01	8.695328e-01	8.561710e-01	8.430589e-01	8.304675e-01	8.186575e-01	8.078277e-01	7.980386e-01	7.893122e-01	7.815033e-01	7.743539e-01	7.675504e-01	7.606900e-01	7.532882e-01	7.448259e-01	7.346440e-01	7.219747e-01	7.058927e-01	6.856498e-01	6.610012e-01	6.328290e-01	6.034324e-01	5.764056e-01	5.559464e-01	5.461515e-01	5.502069e-01	5.694553e-01	6.025170e-01	6.447836e-01	6.870255e-01	7.172558e-01	7.255556e-01	7.101536e-01	6.774057e-01	6.371835e-01	5.952677e-01	5.523105e-01	5.068316e-01	4.542428e-01	