# vtk DataFile Version 3.0
vtk output
ASCII
DATASET UNSTRUCTURED_GRID
POINTS 5233 float
9.997500e-01	-3.633243e-05	0.0	9.990000e-01	-1.454723e-04	0.0	9.977600e-01	-3.275075e-04	0.0	9.960200e-01	-5.899280e-04	0.0	9.937800e-01	-9.470977e-04	0.0	9.910500e-01	-1.422105e-03	0.0	9.878400e-01	-2.045536e-03	0.0	9.841300e-01	-2.853713e-03	0.0	9.799500e-01	-3.858951e-03	0.0	9.752800e-01	-5.058412e-03	0.0	9.701500e-01	-6.405276e-03	0.0	9.645400e-01	-7.841067e-03	0.0	9.584700e-01	-9.290443e-03	0.0	9.519400e-01	-1.069805e-02	0.0	9.449600e-01	-1.203593e-02	0.0	9.375400e-01	-1.330848e-02	0.0	9.296900e-01	-1.454301e-02	0.0	9.214000e-01	-1.577781e-02	0.0	9.127000e-01	-1.704013e-02	0.0	9.035800e-01	-1.835100e-02	0.0	8.940600e-01	-1.971406e-02	0.0	8.841500e-01	-2.112471e-02	0.0	8.738500e-01	-2.257474e-02	0.0	8.631800e-01	-2.405204e-02	0.0	8.521600e-01	-2.554596e-02	0.0	8.407700e-01	-2.705334e-02	0.0	8.290500e-01	-2.856493e-02	0.0	8.170100e-01	-3.007690e-02	0.0	8.046400e-01	-3.158842e-02	0.0	7.919700e-01	-3.309384e-02	0.0	7.790100e-01	-3.458989e-02	0.0	7.657800e-01	-3.607196e-02	0.0	7.522800e-01	-3.753749e-02	0.0	7.385200e-01	-3.898263e-02	0.0	7.245300e-01	-4.040151e-02	0.0	7.103200e-01	-4.179051e-02	0.0	6.958900e-01	-4.314706e-02	0.0	6.812700e-01	-4.446597e-02	0.0	6.664700e-01	-4.574423e-02	0.0	6.515000e-01	-4.697907e-02	0.0	6.363800e-01	-4.816718e-02	0.0	6.211300e-01	-4.930564e-02	0.0	6.057600e-01	-5.039261e-02	0.0	5.902800e-01	-5.142644e-02	0.0	5.747100e-01	-5.240509e-02	0.0	5.590600e-01	-5.332739e-02	0.0	5.433600e-01	-5.419125e-02	0.0	5.276100e-01	-5.499648e-02	0.0	5.118400e-01	-5.574144e-02	0.0	4.960500e-01	-5.642607e-02	0.0	4.802700e-01	-5.704902e-02	0.0	4.645100e-01	-5.760991e-02	0.0	4.487800e-01	-5.810826e-02	0.0	4.331100e-01	-5.854300e-02	0.0	4.175000e-01	-5.891390e-02	0.0	4.019700e-01	-5.922006e-02	0.0	3.865400e-01	-5.946060e-02	0.0	3.712300e-01	-5.963463e-02	0.0	3.560400e-01	-5.974136e-02	0.0	3.409900e-01	-5.977963e-02	0.0	3.261100e-01	-5.974835e-02	0.0	3.114000e-01	-5.964635e-02	0.0	2.968700e-01	-5.947228e-02	0.0	2.825500e-01	-5.922504e-02	0.0	2.684500e-01	-5.890335e-02	0.0	2.545700e-01	-5.850552e-02	0.0	2.409400e-01	-5.803070e-02	0.0	2.275700e-01	-5.747760e-02	0.0	2.144700e-01	-5.684493e-02	0.0	2.016600e-01	-5.613201e-02	0.0	1.891400e-01	-5.533717e-02	0.0	1.769300e-01	-5.445997e-02	0.0	1.650400e-01	-5.349958e-02	0.0	1.534900e-01	-5.245622e-02	0.0	1.422900e-01	-5.132962e-02	0.0	1.314400e-01	-5.011851e-02	0.0	1.209500e-01	-4.882265e-02	0.0	1.108500e-01	-4.744481e-02	0.0	1.011300e-01	-4.598282e-02	0.0	9.181000e-02	-4.443880e-02	0.0	8.290000e-02	-4.281387e-02	0.0	7.440000e-02	-4.110738e-02	0.0	6.633000e-02	-3.932287e-02	0.0	5.869000e-02	-3.746004e-02	0.0	5.149000e-02	-3.552090e-02	0.0	4.474000e-02	-3.350799e-02	0.0	3.844000e-02	-3.142098e-02	0.0	3.260000e-02	-2.926274e-02	0.0	2.723000e-02	-2.703693e-02	0.0	2.232000e-02	-2.473854e-02	0.0	1.790000e-02	-2.238155e-02	0.0	1.395000e-02	-1.995515e-02	0.0	1.049000e-02	-1.747060e-02	0.0	7.520000e-03	-1.492881e-02	0.0	5.040000e-03	-1.232996e-02	0.0	3.050000e-03	-9.672527e-03	0.0	1.560000e-03	-6.971741e-03	0.0	5.600000e-04	-4.206463e-03	0.0	6.000000e-05	-1.384063e-03	0.0	0.000000e+00	0.000000e+00	0.0	6.000000e-05	1.263780e-03	0.0	5.600000e-04	3.625238e-03	0.0	1.560000e-03	5.789216e-03	0.0	3.050000e-03	7.807444e-03	0.0	5.040000e-03	9.724933e-03	0.0	7.520000e-03	1.154943e-02	0.0	1.049000e-02	1.329591e-02	0.0	1.395000e-02	1.497489e-02	0.0	1.790000e-02	1.659429e-02	0.0	2.232000e-02	1.815371e-02	0.0	2.723000e-02	1.966631e-02	0.0	3.260000e-02	2.112795e-02	0.0	3.844000e-02	2.254634e-02	0.0	4.474000e-02	2.392284e-02	0.0	5.149000e-02	2.525882e-02	0.0	5.869000e-02	2.655731e-02	0.0	6.633000e-02	2.781903e-02	0.0	7.440000e-02	2.904466e-02	0.0	8.290000e-02	3.023609e-02	0.0	9.181000e-02	3.139225e-02	0.0	1.011300e-01	3.251463e-02	0.0	1.108500e-01	3.360321e-02	0.0	1.209500e-01	3.465686e-02	0.0	1.314400e-01	3.567743e-02	0.0	1.422900e-01	3.666264e-02	0.0	1.534900e-01	3.761222e-02	0.0	1.650400e-01	3.852655e-02	0.0	1.769300e-01	3.940494e-02	0.0	1.891400e-01	4.024591e-02	0.0	2.016600e-01	4.104869e-02	0.0	2.144700e-01	4.181177e-02	0.0	2.275700e-01	4.253476e-02	0.0	2.409400e-01	4.321593e-02	0.0	2.545700e-01	4.385405e-02	0.0	2.684500e-01	4.444770e-02	0.0	2.825500e-01	4.499459e-02	0.0	2.968700e-01	4.549355e-02	0.0	3.114000e-01	4.594278e-02	0.0	3.261100e-01	4.633984e-02	0.0	3.409900e-01	4.668285e-02	0.0	3.560400e-01	4.696994e-02	0.0	3.712300e-01	4.719853e-02	0.0	3.865400e-01	4.736634e-02	0.0	4.019700e-01	4.747120e-02	0.0	4.175000e-01	4.751067e-02	0.0	4.331100e-01	4.748240e-02	0.0	4.487800e-01	4.738415e-02	0.0	4.645100e-01	4.721358e-02	0.0	4.802700e-01	4.696870e-02	0.0	4.960500e-01	4.664750e-02	0.0	5.118400e-01	4.624805e-02	0.0	5.276100e-01	4.576922e-02	0.0	5.433600e-01	4.520930e-02	0.0	5.590600e-01	4.456794e-02	0.0	5.747100e-01	4.384402e-02	0.0	5.902800e-01	4.303817e-02	0.0	6.057600e-01	4.215067e-02	0.0	6.211300e-01	4.118290e-02	0.0	6.363800e-01	4.013624e-02	0.0	6.515000e-01	3.901266e-02	0.0	6.664700e-01	3.781549e-02	0.0	6.812700e-01	3.654895e-02	0.0	6.958900e-01	3.521720e-02	0.0	7.103200e-01	3.382504e-02	0.0	7.245300e-01	3.238003e-02	0.0	7.385200e-01	3.088752e-02	0.0	7.522800e-01	2.935444e-02	0.0	7.657800e-01	2.779070e-02	0.0	7.790100e-01	2.620468e-02	0.0	7.919700e-01	2.460402e-02	0.0	8.046400e-01	2.299924e-02	0.0	8.170100e-01	2.139998e-02	0.0	8.290500e-01	1.981860e-02	0.0	8.407700e-01	1.826189e-02	0.0	8.521600e-01	1.673829e-02	0.0	8.631800e-01	1.525865e-02	0.0	8.738500e-01	1.382343e-02	0.0	8.841500e-01	1.243588e-02	0.0	8.940600e-01	1.109718e-02	0.0	9.035800e-01	9.805654e-03	0.0	9.127000e-01	8.564002e-03	0.0	9.214000e-01	7.383169e-03	0.0	9.296900e-01	6.279718e-03	0.0	9.375400e-01	5.284613e-03	0.0	9.449600e-01	4.426997e-03	0.0	9.519400e-01	3.731788e-03	0.0	9.584700e-01	3.205102e-03	0.0	9.645400e-01	2.826760e-03	0.0	9.701500e-01	2.551902e-03	0.0	9.752800e-01	2.324725e-03	0.0	9.799500e-01	2.092991e-03	0.0	9.841300e-01	1.826983e-03	0.0	9.878400e-01	1.519879e-03	0.0	9.910500e-01	1.190192e-03	0.0	9.937800e-01	8.630181e-04	0.0	9.960200e-01	5.666253e-04	0.0	9.977600e-01	3.231881e-04	0.0	9.990000e-01	1.450783e-04	0.0	9.997500e-01	3.632619e-05	0.0	1.000000e+00	0.000000e+00	0.0	1.984229e+01	2.506660e+00	0.0	1.937166e+01	4.973800e+00	0.0	1.859553e+01	7.362490e+00	0.0	1.752613e+01	9.635070e+00	0.0	1.618034e+01	1.175571e+01	0.0	1.457937e+01	1.369094e+01	0.0	1.274848e+01	1.541027e+01	0.0	1.071654e+01	1.688656e+01	0.0	8.515590e+00	1.809654e+01	0.0	6.180340e+00	1.902113e+01	0.0	3.747630e+00	1.964575e+01	0.0	1.255810e+00	1.996053e+01	0.0	-1.255810e+00	1.996053e+01	0.0	-3.747630e+00	1.964574e+01	0.0	-6.180340e+00	1.902113e+01	0.0	-8.515590e+00	1.809654e+01	0.0	-1.071654e+01	1.688656e+01	0.0	-1.274848e+01	1.541026e+01	0.0	-1.457937e+01	1.369094e+01	0.0	-1.618034e+01	1.175570e+01	0.0	-1.752613e+01	9.635070e+00	0.0	-1.859553e+01	7.362490e+00	0.0	-1.937166e+01	4.973800e+00	0.0	-1.984229e+01	2.506660e+00	0.0	-2.000000e+01	0.000000e+00	0.0	-1.984229e+01	-2.506670e+00	0.0	-1.937166e+01	-4.973800e+00	0.0	-1.859553e+01	-7.362490e+00	0.0	-1.752613e+01	-9.635080e+00	0.0	-1.618034e+01	-1.175571e+01	0.0	-1.457937e+01	-1.369094e+01	0.0	-1.274848e+01	-1.541027e+01	0.0	-1.071653e+01	-1.688656e+01	0.0	-8.515580e+00	-1.809654e+01	0.0	-6.180340e+00	-1.902113e+01	0.0	-3.747620e+00	-1.964575e+01	0.0	-1.255810e+00	-1.996053e+01	0.0	1.255810e+00	-1.996053e+01	0.0	3.747630e+00	-1.964574e+01	0.0	6.180340e+00	-1.902113e+01	0.0	8.515590e+00	-1.809654e+01	0.0	1.071654e+01	-1.688656e+01	0.0	1.274848e+01	-1.541026e+01	0.0	1.457937e+01	-1.369094e+01	0.0	1.618034e+01	-1.175570e+01	0.0	1.752614e+01	-9.635070e+00	0.0	1.859553e+01	-7.362490e+00	0.0	1.937166e+01	-4.973790e+00	0.0	1.984229e+01	-2.506660e+00	0.0	2.000000e+01	0.000000e+00	0.0	6.074231e-02	-4.532311e-02	0.0	6.601883e-01	-6.002288e-02	0.0	4.255533e-01	6.172075e-02	0.0	6.897642e-01	4.910482e-02	0.0	3.791232e-01	-7.360655e-02	0.0	9.994675e-01	-7.275899e-04	0.0	9.985544e-01	-1.331423e-03	0.0	7.738132e-01	-4.740098e-02	0.0	6.898600e-01	-5.714909e-02	0.0	-1.127299e-03	5.516971e-03	0.0	7.467800e-01	-5.080841e-02	0.0	5.833311e-01	5.753233e-02	0.0	9.928160e-01	-3.736245e-03	0.0	9.899359e-01	-4.744204e-03	0.0	5.989071e-01	5.659753e-02	0.0	7.187646e-01	-5.406454e-02	0.0	-1.468753e-03	5.998419e-04	0.0	9.865725e-01	-5.906517e-03	0.0	9.827328e-01	-7.226438e-03	0.0	-1.302168e-03	-6.473352e-03	0.0	6.451051e-01	-6.137347e-02	0.0	8.244819e-01	-4.029871e-02	0.0	7.997421e-01	-4.389507e-02	0.0	3.484810e-01	6.060641e-02	0.0	8.479020e-01	-3.666824e-02	0.0	2.473657e-01	5.609708e-02	0.0	8.699420e-01	-3.302789e-02	0.0	1.046385e-02	1.734470e-02	0.0	8.904957e-01	-2.943379e-02	0.0	7.702145e-02	-4.970110e-02	0.0	9.094909e-01	-2.594073e-02	0.0	-1.766867e-03	-3.207122e-03	0.0	9.424826e-01	-1.916861e-02	0.0	9.268474e-01	-2.255060e-02	0.0	1.794772e-02	-2.749827e-02	0.0	4.257416e-01	-7.303737e-02	0.0	8.591036e-01	-3.484386e-02	0.0	9.563355e-01	-1.566719e-02	0.0	9.784088e-01	-8.725426e-03	0.0	9.683301e-01	-1.208083e-02	0.0	1.582633e-01	-6.357533e-02	0.0	9.001950e-01	-2.767266e-02	0.0	7.604294e-01	-4.912051e-02	0.0	9.971359e-01	-2.087284e-03	0.0	5.990500e-01	-6.504609e-02	0.0	4.414441e-01	-7.268753e-02	0.0	5.363196e-01	-6.898106e-02	0.0	4.730157e-01	-7.175508e-02	0.0	5.046766e-01	-7.051768e-02	0.0	4.888342e-01	-7.117332e-02	0.0	1.249493e-01	-5.906707e-02	0.0	2.784407e-02	-3.297816e-02	0.0	3.945689e-01	-7.349856e-02	0.0	4.621894e-02	-4.062497e-02	0.0	4.101097e-01	-7.330916e-02	0.0	3.187147e-01	-7.321457e-02	0.0	3.486125e-01	-7.358127e-02	0.0	3.350764e-02	-3.559157e-02	0.0	2.895104e-01	-7.250919e-02	0.0	9.348849e-01	-2.086648e-02	0.0	1.468046e-01	-6.216327e-02	0.0	1.946434e-01	-6.723506e-02	0.0	8.579566e-02	-5.175878e-02	0.0	1.045869e-01	-5.560597e-02	0.0	5.678223e-01	-6.716132e-02	0.0	1.700658e-01	-6.489359e-02	0.0	6.145275e-01	-6.388440e-02	0.0	8.804132e-01	-3.122240e-02	0.0	2.266804e-02	-3.027872e-02	0.0	9.952218e-01	-2.870142e-03	0.0	6.736252e-03	-1.882252e-02	0.0	1.849204e-02	2.151364e-02	0.0	9.183776e-01	-2.423619e-02	0.0	9.49640
[...]
POINT_DATA 5233

SCALARS Conservative_1 float 1
LOOKUP_TABLE default
1.199829e+00	1.181604e+00	1.171180e+00	1.164741e+00	1.160168e+00	1.155703e+00	1.148819e+00	1.137901e+00	1.121720e+00	1.100364e+00	1.075075e+00	1.048463e+00	1.024894e+00	1.008359e+00	9.999846e-01	9.979260e-01	9.990352e-01	1.000478e+00	1.000505e+00	9.985162e-01	9.947323e-01	9.897104e-01	9.840358e-01	9.781800e-01	9.724208e-01	9.668691e-01	9.615161e-01	9.563153e-01	9.512022e-01	9.461451e-01	9.411282e-01	9.361076e-01	9.310494e-01	9.259699e-01	9.209205e-01	9.159494e-01	9.110755e-01	9.063031e-01	9.016438e-01	8.971139e-01	8.927132e-01	8.884523e-01	8.843136e-01	8.803137e-01	8.764677e-01	8.728270e-01	8.693811e-01	8.660663e-01	8.627352e-01	8.593783e-01	8.561980e-01	8.535482e-01	8.515428e-01	8.498899e-01	8.479166e-01	8.448712e-01	8.402537e-01	8.342116e-01	8.276244e-01	8.217495e-01	8.174738e-01	8.149907e-01	8.140274e-01	8.141510e-01	8.150515e-01	8.165297e-01	8.185364e-01	8.209878e-01	8.237978e-01	8.268539e-01	8.301750e-01	8.339244e-01	8.383490e-01	8.435167e-01	8.493512e-01	8.557059e-01	8.626457e-01	8.703488e-01	8.788724e-01	8.882558e-01	8.986108e-01	9.099962e-01	9.225635e-01	9.364306e-01	9.517874e-01	9.689110e-01	9.880297e-01	1.009502e+00	1.033814e+00	1.061280e+00	1.092432e+00	1.127736e+00	1.167040e+00	1.209883e+00	1.254554e+00	1.298041e+00	1.331743e+00	1.350899e+00	1.339537e+00	1.308278e+00	1.284270e+00	1.221116e+00	1.099487e+00	1.002011e+00	9.260123e-01	8.702968e-01	8.323074e-01	8.072966e-01	7.904584e-01	7.790534e-01	7.713861e-01	7.662875e-01	7.631980e-01	7.613799e-01	7.604592e-01	7.604322e-01	7.611706e-01	7.624375e-01	7.639113e-01	7.652650e-01	7.665150e-01	7.679851e-01	7.699343e-01	7.722128e-01	7.744213e-01	7.763316e-01	7.780354e-01	7.796797e-01	7.813677e-01	7.831698e-01	7.851414e-01	7.872665e-01	7.894722e-01	7.916585e-01	7.937825e-01	7.958189e-01	7.977583e-01	7.995619e-01	8.012394e-01	8.029076e-01	8.047829e-01	8.070253e-01	8.096832e-01	8.127099e-01	8.160902e-01	8.198644e-01	8.240537e-01	8.286384e-01	8.334809e-01	8.384134e-01	8.432483e-01	8.480292e-01	8.530270e-01	8.585715e-01	8.647162e-01	8.712360e-01	8.779188e-01	8.847690e-01	8.919545e-01	8.995212e-01	9.074163e-01	9.155520e-01	9.238801e-01	9.323884e-01	9.410471e-01	9.498425e-01	9.587245e-01	9.676755e-01	9.766214e-01	9.855644e-01	9.944217e-01	1.003112e+00	1.011574e+00	1.019723e+00	1.027512e+00	1.034921e+00	1.041995e+00	1.048916e+00	1.055942e+00	1.063464e+00	1.071777e+00	1.080979e+00	1.090687e+00	1.100039e+00	1.107786e+00	1.112590e+00	1.113364e+00	1.109743e+00	1.102492e+00	1.093776e+00	1.086674e+00	1.084155e+00	1.088060e+00	1.098275e+00	1.112850e+00	1.130015e+00	1.148478e+00	1.168636e+00	1.192714e+00	1.181127e+00	9.999764e-01	9.999694e-01	9.999527e-01	9.999288e-01	9.999047e-01	9.998765e-01	9.998369e-01	9.997816e-01	9.997189e-01	9.996669e-01	9.996324e-01	9.996439e-01	9.996983e-01	9.998090e-01	9.999041e-01	9.999809e-01	1.000023e+00	1.000049e+00	1.000064e+00	1.000070e+00	1.000073e+00	1.000074e+00	1.000074e+00	1.000076e+00	1.000077e+00	1.000080e+00	1.000085e+00	1.000092e+00	1.000101e+00	1.000114e+00	1.000129e+00	1.000150e+00	1.000169e+00	1.000196e+00	1.000213e+00	1.000224e+00	1.000226e+00	1.000213e+00	1.000203e+00	1.000190e+00	1.000183e+00	1.000168e+00	1.000151e+00	1.000130e+00	1.000106e+00	1.000078e+00	1.000060e+00	1.000046e+00	1.000013e+00	9.999797e-01	9.443116e-01	9.020594e-01	8.216308e-01	9.232667e-01	8.406866e-01	1.183062e+00	1.173570e+00	9.407973e-01	9.112648e-01	1.217026e+00	9.308240e-01	8.720925e-01	1.151719e+00	1.144989e+00	8.787004e-01	9.208825e-01	1.307645e+00	1.136017e+00	1.123649e+00	1.337687e+00	8.976424e-01	9.608974e-01	9.507365e-01	8.073464e-01	9.714684e-01	7.943187e-01	9.825748e-01	8.784399e-01	9.931852e-01	9.171112e-01	1.000614e+00	1.344666e+00	1.006085e+00	1.002998e+00	1.100360e+00	8.522877e-01	9.769782e-01	1.025354e+00	1.107397e+00	1.065588e+00	8.484342e-01	9.974941e-01	9.358304e-01	1.164147e+00	8.851281e-01	8.538336e-01	8.706295e-01	8.576863e-01	8.639644e-01	8.606355e-01	8.683134e-01	1.042977e+00	8.461757e-01	9.775343e-01	8.499736e-01	8.197329e-01	8.278138e-01	1.018698e+00	8.182213e-01	1.003609e+00	8.544566e-01	8.348121e-01	9.053754e-01	8.849808e-01	8.774913e-01	8.431684e-01	8.891815e-01	9.880812e-01	1.070105e+00	1.157650e+00	1.209197e+00	8.234982e-01	1.002352e+00	1.012765e+00	1.087635e+00	1.133896e+00	9.661149e-01	8.225034e-01	8.739805e-01	9.258186e-01	9.457499e-01	8.762152e-01	8.280007e-01	8.812230e-01	9.066083e-01	9.600753e-01	1.248742e+00	1.133823e+00	8.341479e-01	8.387013e-01	1.211158e+00	8.250461e-01	8.946979e-01	8.183248e-01	8.204785e-01	8.554497e-01	9.160245e-01	1.279740e+00	1.318486e+00	8.546027e-01	1.324591e+00	7.951152e-01	7.745570e-01	7.811260e-01	7.755715e-01	8.180058e-01	1.140213e+00	8.497579e-01	8.349288e-01	1.097230e+00	1.105872e+00	1.052288e+00	8.399461e-01	8.256682e-01	8.118718e-01	1.083649e+00	1.067051e+00	7.730258e-01	1.092476e+00	1.106617e+00	1.099065e+00	7.739555e-01	7.731568e-01	8.003898e-01	7.964067e-01	7.836249e-01	8.039685e-01	8.301256e-01	8.147543e-01	7.807513e-01	7.771729e-01	8.923408e-01	7.865316e-01	7.901424e-01	9.072773e-01	8.656954e-01	9.569852e-01	9.398919e-01	9.915060e-01	9.742838e-01	1.023934e+00	1.008234e+00	1.059449e+00	1.038439e+00	1.104233e+00	1.075187e+00	1.102348e+00	1.031328e+00	1.045367e+00	9.999621e-01	1.016232e+00	9.656304e-01	9.829376e-01	9.315047e-01	9.483912e-01	8.996299e-01	9.151764e-01	8.598277e-01	8.854011e-01	7.882362e-01	7.922059e-01	7.822509e-01	7.850219e-01	7.771439e-01	7.790348e-01	8.464965e-01	7.868774e-01	8.312809e-01	9.814932e-01	1.043720e+00	9.557784e-01	8.228418e-01	8.673338e-01	1.053457e+00	8.069029e-01	9.226407e-01	7.735055e-01	7.727627e-01	7.984333e-01	7.745297e-01	1.090299e+00	1.092372e+00	8.022438e-01	1.099369e+00	1.110418e+00	8.056100e-01	8.093924e-01	1.091891e+00	1.206471e+00	1.157951e+00	1.174454e+00	8.933460e-01	9.969860e-01	1.124414e+00	8.449267e-01	1.286682e+00	1.170395e+00	9.300384e-01	8.611067e-01	8.190101e-01	7.850840e-01	1.199602e+00	1.259550e+00	8.238729e-01	9.165054e-01	1.003316e+00	1.199629e+00	8.735219e-01	9.118574e-01	9.456767e-01	1.133354e+00	8.258136e-01	9.762901e-01	9.657690e-01	9.126158e-01	1.317253e+00	8.363871e-01	1.132821e+00	1.041623e+00	8.603681e-01	9.212351e-01	9.028851e-01	8.580241e-01	9.245606e-01	8.471625e-01	9.965462e-01	9.505698e-01	9.565439e-01	8.548467e-01	9.153201e-01	1.020542e+00	7.830210e-01	9.231586e-01	7.883107e-01	1.041859e+00	1.100604e+00	8.104219e-01	8.518507e-01	1.099648e+00	1.048673e+00	1.108352e+00	1.100929e+00	1.094588e+00	7.974927e-01	8.087134e-01	7.955603e-01	7.828883e-01	9.073258e-01	8.402291e-01	9.139944e-01	7.860048e-01	7.939718e-01	1.098097e+00	1.119026e+00	1.055548e+00	8.542249e-01	1.215365e+00	1.145817e+00	1.131611e+00	1.009114e+00	1.133534e+00	1.234088e+00	1.331027e+00	1.315065e+00	1.102257e+00	1.217657e+00	9.519710e-01	1.163047e+00	1.148577e+00	8.240188e-01	8.755279e-01	1.123032e+00	9.869467e-01	8.799857e-01	1.141662e+00	1.332381e+00	8.564835e-01	8.205421e-01	9.709778e-01	8.033773e-01	9.816483e-01	9.919956e-01	9.376309e-01	1.000355e+00	1.005622e+00	1.017433e+00	1.048635e+00	1.027462e+00	1.058816e+00	1.110020e+00	8.747498e-01	9.359100e-01	9.408115e-01	1.155387e+00	8.599504e-01	8.625888e-01	8.657094e-01	1.074335e+00	8.516680e-01	8.546375e-01	8.296433e-01	1.004261e+00	1.007899e+00	1.011327e+00	8.672533e-01	9.017121e-01	8.789404e-01	8.903233e-01	1.077037e+00	1.094515e+00	9.260378e-01	9.309694e-01	8.918553e-01	8.829008e-01	8.825680e-01	8.863604e-01	9.851871e-01	9.678094e-01	1.165340e+00	8.350754e-01	8.413122e-01	8.489834e-01	8.443842e-01	8.329190e-01	8.298490e-01	8.232698e-01	8.238034e-01	8.272874e-01	1.298366e+00	1.267562e+00	8.001398e-01	1.095898e+00	8.566534e-01	8.469406e-01	8.419038e-01	8.369064e-01	1.095745e+00	1.100204e+00	1.077314e+00	8.322244e-01	8.279126e-01	8.174507e-01	1.069905e+00	1.096251e+00	7.867732e-01	7.896025e-01	7.994695e-01	8.014327e-01	7.871521e-01	7.849026e-01	7.838005e-01	9.889550e-01	9.557137e-01	9.474257e-01	9.807230e-01	1.012981e+00	1.062593e+00	1.034945e+00	1.027850e+00	1.005211e+00	9.971763e-01	9.723809e-01	9.640359e-01	9.392291e-01	9.311250e-01	9.076807e-01	9.002965e-01	8.672999e-01	8.616753e-01	8.932682e-01	8.865240e-01	7.937349e-01	7.921198e-01	7.907150e-01	7.894898e-01	8.808085e-01	8.085970e-01	8.199725e-01	9.555505e-01	9.606280e-01	8.689853e-01	8.722251e-01	1.069745e+00	8.350059e-01	7.833266e-01	7.840478e-01	8.070354e-01	8.052545e-01	8.147343e-01	8.123800e-01	1.091041e+00	1.084528e+00	8.943850e-01	8.985851e-01	1.025294e+00	1.297444e+00	8.252507e-01	1.311611e+00	8.534830e-01	8.291985e-01	9.510618e-01	8.777033e-01	1.007439e+00	1.107319e+00	1.101253e+00	1.096613e+00	1.081203e+00	1.115972e+00	1.160562e+00	1.181452e+00	1.153145e+00	1.200927e+00	1.103900e+00	1.283265e+00	9.202701e-01	1.010847e+00	1.131559e+00	8.756583e-01	1.172914e+00	1.220862e+00	9.222630e-01	1.275977e+00	9.269307e-01	1.131348e+00	9.863581e-01	1.190707e+00	8.325165e-01	9.812302e-01	9.176573e-01	1.139454e+00	1.160735e+00	1.095993e+00	8.592769e-01	1.093257e+00	9.162956e-01	1.125965e+00	8.543651e-01	8.065377e-01	8.137142e-01	7.935110e-01	7.997935e-01	1.171571e+00	1.293315e+00	1.184898e+00	9.088777e-01	1.240752e+00	1.055117e+00	9.323101e-01	1.312125e+00	8.665289e-01	8.627410e-01	1.078020e+00	9.819761e-01	1.017744e+00	9.871810e-01	9.238642e-01	1.097522e+00	1.095650e+00	1.051742e+00	1.045116e+00	8.120091e-01	8.084327e-01	8.009632e-01	7.917584e-01	9.087062e-01	9.131325e-01	8.458150e-01	9.421953e-01	7.926529e-01	1.095970e+00	1.136241e+00	1.028989e+00	1.134236e+00	1.249581e+00	1.315003e+00	1.053684e+00	1.186192e+00	1.178452e+00	1.070321e+00	1.122724e+00	8.819739e-01	8.611084e-01	8.267323e-01	9.708724e-01	9.760422e-01	9.913450e-01	9.960330e-01	9.597913e-01	9.454787e-01	1.000280e+00	1.004060e+00	1.029626e+00	1.041164e+00	1.112211e+00	9.414353e-01	9.462614e-01	1.145974e+00	8.650137e-01	8.679829e-01	8.572349e-01	8.595375e-01	1.031610e+00	1.015031e+00	1.021000e+00	8.815377e-01	8.736830e-01	8.810400e-01	8.845560e-01	1.085512e+00	1.099623e+00	9.317090e-01	9.366195e-01	9.092468e-01	8.990341e-01	8.898477e-01	8.882432e-01	8.921066e-01	1.011530e+00	9.927979e-01	9.754925e-01	8.368354e-01	8.424608e-01	8.483587e-01	8.604922e-01	8.551517e-01	8.503013e-01	8.417876e-01	8.381714e-01	8.289136e-01	8.298696e-01	8.350671e-01	8.181267e-01	8.492544e-01	8.440863e-01	1.096482e+00	8.391925e-01	8.346345e-01	8.304765e-01	8.234264e-01	1.071766e+00	8.041832e-01	8.101750e-01	8.046259e-01	8.027712e-01	7.920774e-01	7.918973e-01	7.917290e-01	9.552734e-01	1.065112e+00	1.058366e+00	1.038451e+00	1.031739e+00	1.024910e+00	1.010343e+00	1.002820e+00	9.950669e-01	9.793014e-01	9.713090e-01	9.632895e-01	9.473157e-01	9.393957e-01	9.315882e-01	9.089037e-01	8.695492e-01	8.642530e-01	9.018080e-01	8.949949e-01	8.884013e-01	7.992816e-01	7.977450e-01	7.964614e-01	7.953622e-01	7.944274e-01	8.287367e-01	8.425594e-01	9.559116e-01	9.608669e-01	9.658185e-01	8.711875e-01	8.744201e-01	8.600663e-01	8.817394e-01	7.926367e-01	7.944380e-01	7.967420e-01	8.102769e-01	8.205141e-01	8.179434e-01	8.156383e-01	1.089392e+00	1.084280e+00	1.078290e+00	8.960815e-01	9.001800e-01	9.043827e-01	8.324551e-01	8.304828e-01	1.289946e+00	9.280872e-01	1.129355e+00	1.097676e+00	8.830908e-01	1.261900e+00	1.159457e+00	1.013177e+00	1.018101e+00	1.057411e+00	1.112693e+00	8.575556e-01	1.271271e+00	9.660624e-01	1.206347e+00	1.092416e+00	1.120628e+00	1.172043e+00	9.172821e-01	1.130625e+00	1.185407e+00	1.188067e+00	9.563905e-01	8.739408e-01	1.104100e+00	8.600134e-01	9.402397e-01	8.662765e-01	8.357737e-01	1.101032e+00	8.780663e-01	1.090333e+00	1.087299e+00	9.861675e-01	7.998336e-01	8.102876e-01	1.122119e+00	8.186638e-01	9.865861e-01	1.146692e+00	1.105999e+00	1.144058e+00	1.078630e+00	1.128377e+00	9.233954e-01	1.231575e+00	9.285055e-01	9.325985e-01	1.154390e+00	1.129951e+00	1.180680e+00	1.015151e+00	8.614843e-01	8.157848e-01	1.219420e+00	1.002414e+00	9.253594e-01	1.048418e+00	8.175618e-01	8.140063e-01	8.121206e-01	9.144721e-01	9.194717e-01	1.095701e+00	1.042560e+00	1.086596e+00	1.254720e+00	1.296770e+00	1.080046e+00	1.065698e+00	1.113092e+00	8.850393e-01	9.764832e-01	9.814690e-01	9.914592e-01	9.961927e-01	9.673899e-01	9.532745e-01	1.000613e+00	1.004877e+00	1.009004e+00	1.041509e+00	1.053085e+00	9.468011e-01	9.520275e-01	1.137240e+00	8.682021e-01	8.708938e-01	8.628952e-01	8.647477e-01	1.024024e+00	1.031680e+00	8.890949e-01	8.806166e-01	8.871834e-01	1.091098e+00	1.102743e+00	9.377183e-01	9.429913e-01	9.168974e-01	9.067631e-01	8.977829e-01	8.901626e-01	8.945494e-01	1.037352e+00	1.017923e+00	9.994028e-01	9.825627e-01	8.403586e-01	8.449238e-01	8.502780e-01	8.555056e-01	8.679339e-01	8.623657e-01	8.571295e-01	8.524289e-01	8.482072e-01	8.372956e-01	8.358014e-01	8.445305e-01	8.519786e-01	1.094599e+00	1.093693e+00	8.469171e-01	8.421513e-01	8.377426e-01	8.337389e-01	8.301591e-01	8.267850e-01	8.370618e-01	8.084738e-01	8.068467e-01	7.996261e-01	7.999335e-01	8.007022e-01	8.014581e-01	1.067030e+00	1.060916e+00	1.054740e+00	1.042058e+00	1.035725e+00	1.029370e+00	1.021899e+00	1.008910e+00	1.000847e+00	9.934083e-01	9.781940e-01	9.709389e-01	9.627676e-01	9.555947e-01	9.473363e-01	9.403344e-01	9.321192e-01	8.673193e-01	8.717114e-01	9.108756e-01	9.031653e-01	8.972523e-01	8.900290e-01	8.052636e-01	8.039011e-01	8.025755e-01	8.015557e-01	8.006620e-01	8.000683e-01	8.491947e-01	8.647035e-01	9.615966e-01	9.667614e-01	9.715166e-01	8.740750e-01	8.764116e-01	8.803309e-01	8.841560e-01	9.071266e-01	9.339784e-01	8.025678e-01	8.048591e-01	8.086554e-01	8.130933e-01	8.269946e-01	8.242342e-01	8.217616e-01	8.193944e-01	1.072929e+00	1.083240e+00	1.078468e+00	8.978060e-01	9.024244e-01	9.059206e-01	9.107435e-01	8.413279e-01	8.387383e-01	8.368060e-01	1.148049e+00	1.125342e+00	1.073701e+00	1.177465e+00	1.171257e+00	9.363752e-01	9.362817e-01	1.193493e+00	1.096514e+00	1.235367e+00	1.081060e+00	8.826837e-01	8.076342e-01	1.018717e+00	1.127178e+00	1.234995e+00	1.292325e+00	1.294376e+00	1.281523e+00	1.250851e+00	1.138725e+00	8.218772e-01	1.084565e+00	1.121531e+00	1.026543e+00	9.595689e-01	8.664516e-01	1.115924e+00	1.068627e+00	1.081998e+00	8.773605e-01	8.677628e-01	9.226611e-01	9.813173e-01	8.606028e-01	8.874854e-01	8.229724e-01	1.109672e+00	9.483702e-01	1.165199e+00	1.099798e+00	1.292580e+00	1.182391e+00	1.173230e+00	1.019718e+00	1.061224e+00	1.266773e+00	9.858965e-01	1.215153e+00	1.088027e+00	1.162038e+00	1.177068e+00	1.178082e+00	1.125468e+00	8.423626e-01	8.430863e-01	1.104118e+00	8.873906e-01	1.085385e+00	1.113478e+00	9.275474e-01	1.200190e+00	8.193522e-01	8.182117e-01	8.156754e-01	9.187651e-01	1.053297e+00	1.090014e+00	1.275309e+00	1.103690e+00	9.825584e-01	9.866763e-01	9.920541e-01	9.964819e-01	9.611861e-01	9.754449e-01	1.001608e+00	1.005601e+00	1.010543e+00	1.015613e+00	1.052036e+00	1.062703e+00	9.507918e-01	1.128574e+00	8.712845e-01	8.741550e-01	8.679872e-01	8.702904e-01	1.033975e+00	1.042186e+00	8.964267e-01	8.873573e-01	1.095030e+00	1.104728e+00	9.443516e-01	9.247561e-01	9.138901e-01	9.071861e-01	8.946912e-01	1.042317e+00	1.023723e+00	1.005920e+00	9.904173e-01	8.451997e-01	8.475714e-01	8.527384e-01	8.570483e-01	8.623091e-01	8.749074e-01	8.704682e-01	8.634107e-01	8.598859e-01	8.541781e-01	1.094057e+00	1.092109e+00	1.090214e+00	8.543786e-01	8.502368e-01	8.448442e-01	8.413666e-01	8.367024e-01	8.442351e-01	8.563670e-01	8.147183e-01	8.123990e-01	8.070197e-01	8.098096e-01	8.117988e-01	1.062734e+00	1.057301e+00	1.051227e+00	1.045391e+00	1.039176e+00	1.033232e+00	1.026393e+00	1.016499e+00	1.007094e+00	9.954026e-01	9.666369e-01	9.518484e-01	9.371565e-01	9.086623e-01	8.963010e-01	8.118154e-01	8.097329e-01	8.095181e-01	8.075953e-01	8.079628e-01	8.072424e-01	8.072198e-01	8.706186e-01	8.867852e-01	9.677397e-01	9.722192e-01	9.772648e-01	8.772599e-01	8.811067e-01	9.067080e-01	9.305729e-01	9.565352e-01	8.137875e-01	8.167760e-01	8.216486e-01	8.286653e-01	8.357719e-01	8.340762e-01	8.302771e-01	8.286290e-01	8.258066e-01	1.078202e+00	1.072943e+00	9.023093e-01	9.103341e-01	8.516237e-01	8.471242e-01	8.457296e-01	8.427837e-01	1.166078e+00	1.154375e+00	1.181133e+00	1.255002e+00	1.180682e+00	1.088606e+00	1.106554e+00	1.183419e+00	1.086403e+00	1.141046e+00	1.105939e+00	1.255342e+00	1.081810e+00	1.161523e+00	8.283013e-01	1.177728e+00	1.060989e+00	1.152361e+00	1.141412e+00	1.079418e+00	8.887948e-01	1.101715e+00	8.496499e-01	1.035164e+00	1.024794e+00	9.106041e-01	9.441900e-01	8.864824e-01	1.231224e+00	8.726324e-01	9.701446e-01	9.572910e-01	8.172102e-01	1.094246e+00	1.066032e+00	1.212912e+00	1.031039e+00	1.070052e+00	1.170731e+00	1.097581e+00	1.291361e+00	1.245002e+00	1.113742e+00	9.441359e-01	8.700408e-01	8.600104e-01	1.112129e+00	1.173869e+00	1.129521e+00	1.275261e+00	1.176732e+00	1.064252e+00	1.216967e+00	1.199795e+00	8.879769e-01	1.101538e+00	1.083946e+00	1.080338e+00	8.786419e-01	8.245559e-01	8.210384e-01	9.358590e-01	1.091864e+00	1.122791e+00	1.122173e+00	9.901214e-01	9.994857e-01	9.829945e-01	1.009056e+00	1.017507e+00	1.060614e+00	1.120995e+00	8.760532e-01	1.043360e+00	1.051496e+00	8.996313e-01	1.097454e+00	9.513514e-01	9.587415e-01	9.280221e-01	9.145755e-01	8.954299e-01	1.046647e+00	1.028090e+00	1.011321e+00	9.997620e-01	8.534459e-01	8.612403e-01	8.688083e-01	8.740356e-01	8.636645e-01	1.091457e+00	1.088962e+00	8.504706e-01	8.423356e-01	8.759844e-01	8.182071e-01	8.224768e-01	1.003201e+00	1.056072e+00	1.044843e+00	1.033303e+00	1.022716e+00	1.013323e+00	9.908564e-01	9.771707e-01	9.630747e-01	9.489392e-01	9.347860e-01	9.208152e-01	9.081022e-01	8.976000e-01	8.161496e-01	8.148365e-01	8.150479e-01	8.137834e-01	8.158475e-01	8.921766e-01	9.090255e-01	9.672406e-01	9.753226e-01	9.832550e-01	8.800600e-01	8.837831e-01	9.281704e-01	9.512376e-01	9.763636e-01	1.002464e+00	8.262947e-01	8.298990e-01	8.354537e-01	8.439373e-01	8.547870e-01	8.607807e-01	8.361220e-01	8.325974e-01	1.077798e+00	1.073292e+00	9.028407e-01	9.187187e-01	9.272037e-01	8.557751e-01	8.507794e-01	1.117388e+00	1.166019e+00	1.161178e+00	1.136252e+00	1.025466e+00	1.108369e+00	1.173798e+00	1.135621e+00	1.185598e+00	1.135182e+00	1.147604e+00	1.126775e+00	1.092517e+00	1.193620e+00	1.235633e+00	1.088367e+00	9.515799e-01	8.359300e-01	1.125043e+00	1.017126e+00	1.099448e+00	8.876349e-01	1.066674e+00	1.169561e+00	8.756799e-01	1.043569e+00	9.189896e-01	8.966323e-01	1.083528e+00	1.091447e+00	1.082181e+00	1.067009e+00	1.171389e+00	1.098735e+00	1.103072e+00	1.082831e+00	8.283333e-01	8.985320e-01	9.355790e-01	9.897426e-01	1.150517e+00	1.157258e+00	1.272009e+00	1.075361e+00	1.085452e+00	1.175645e+00	1.099194e+00	1.169048e+00	1.152264e+00	8.908566e-01	1.224911e+00	9.799651e-01	9.646709e-01	1.094848e+00	1.233607e+00	1.067209e+00	1.106562e+00	9.438953e-01	1.254317e+00	1.176116e+00	1.005248e+00	1.213098e+00	1.200150e+00	8.801421e-01	1.117595e+00	1.079350e+00	8.890991e-01	8.319091e-01	9.086356e-01	1.118340e+00	1.143443e+00	9.980281e-01	1.007577e+00	1.025396e+00	1.034304e+00	1.114269e+00	8.793694e-01	1.051244e+00	1.059000e+00	8.698616e-01	9.748643e-01	9.827968e-01	9.588286e-01	9.500412e-01	9.347697e-01	9.199657e-01	1.049053e+00	8.581058e-01	8.628164e-01	9.055587e-01	8.916330e-01	9.271607e-01	1.091450e+00	8.707270e-01	8.610004e-01	8.331668e-01	1.059487e+00	1.049545e+00	1.009809e+00	1.038880e+00	1.028574e+00	1.019148e+00	9.991185e-01	9.867750e-01	9.735561e-01	9.600794e-01	9.464836e-01	9.328382e-01	9.199240e-01	8.254798e-01	8.236578e-01	8.227710e-01	8.228046e-01	8.229878e-01	8.273612e-01	9.123063e-01	9.305329e-01	9.666023e-01	9.900177e-01	8.826144e-01	8.863410e-01	9.484975e-01	9.694056e-01	9.929381e-01	1.016445e+00	1.041015e+00	8.402305e-01	8.460362e-01	8.513875e-01	8.596012e-01	8.716969e-01	8.522231e-01	8.452177e-01	8.401632e-01	1.074559e+00	1.067819e+00	9.035806e-01	9.111355e-01	8.791433e-01	8.690301e-01	8.617279e-01	8.577883e-01	1.152327e+00	1.152978e+00	1.149675e+00	1.121131e+00	1.156078e+00	1.140384e+00	1.113598e+00	1.050482e+00	1.172800e+00	1.120685e+00	1.117931e+00	1.071725e+00	1.166005e+00	1.084786e+00	8.331287e-01	1.137607e+00	1.141597e+00	1.128289e+00	1.169441e+00	1.070953e+00	9.260523e-01	1.027029e+00	1.024944e+00	9.594667e-01	1.132801e+00	1.131996e+00	1.128186e+00	1.171839e+00	1.172190e+00	9.001979e-01	9.