# vtk DataFile Version 3.0
vtk output
ASCII
DATASET UNSTRUCTURED_GRID
POINTS 200 float
9.997500e-01	-3.633243e-05	0.0	9.990000e-01	-1.454723e-04	0.0	9.977600e-01	-3.275075e-04	0.0	9.960200e-01	-5.899280e-04	0.0	9.937800e-01	-9.470977e-04	0.0	9.910500e-01	-1.422105e-03	0.0	9.878400e-01	-2.045536e-03	0.0	9.841300e-01	-2.853713e-03	0.0	9.799500e-01	-3.858951e-03	0.0	9.752800e-01	-5.058412e-03	0.0	9.701500e-01	-6.405276e-03	0.0	9.645400e-01	-7.841067e-03	0.0	9.584700e-01	-9.290443e-03	0.0	9.519400e-01	-1.069805e-02	0.0	9.449600e-01	-1.203593e-02	0.0	9.375400e-01	-1.330848e-02	0.0	9.296900e-01	-1.454301e-02	0.0	9.214000e-01	-1.577781e-02	0.0	9.127000e-01	-1.704013e-02	0.0	9.035800e-01	-1.835100e-02	0.0	8.940600e-01	-1.971406e-02	0.0	8.841500e-01	-2.112471e-02	0.0	8.738500e-01	-2.257474e-02	0.0	8.631800e-01	-2.405204e-02	0.0	8.521600e-01	-2.554596e-02	0.0	8.407700e-01	-2.705334e-02	0.0	8.290500e-01	-2.856493e-02	0.0	8.170100e-01	-3.007690e-02	0.0	8.046400e-01	-3.158842e-02	0.0	7.919700e-01	-3.309384e-02	0.0	7.790100e-01	-3.458989e-02	0.0	7.657800e-01	-3.607196e-02	0.0	7.522800e-01	-3.753749e-02	0.0	7.385200e-01	-3.898263e-02	0.0	7.245300e-01	-4.040151e-02	0.0	7.103200e-01	-4.179051e-02	0.0	6.958900e-01	-4.314706e-02	0.0	6.812700e-01	-4.446597e-02	0.0	6.664700e-01	-4.574423e-02	0.0	6.515000e-01	-4.697907e-02	0.0	6.363800e-01	-4.816718e-02	0.0	6.211300e-01	-4.930564e-02	0.0	6.057600e-01	-5.039261e-02	0.0	5.902800e-01	-5.142644e-02	0.0	5.747100e-01	-5.240509e-02	0.0	5.590600e-01	-5.332739e-02	0.0	5.433600e-01	-5.419125e-02	0.0	5.276100e-01	-5.499648e-02	0.0	5.118400e-01	-5.574144e-02	0.0	4.960500e-01	-5.642607e-02	0.0	4.802700e-01	-5.704902e-02	0.0	4.645100e-01	-5.760991e-02	0.0	4.487800e-01	-5.810826e-02	0.0	4.331100e-01	-5.854300e-02	0.0	4.175000e-01	-5.891390e-02	0.0	4.019700e-01	-5.922006e-02	0.0	3.865400e-01	-5.946060e-02	0.0	3.712300e-01	-5.963463e-02	0.0	3.560400e-01	-5.974136e-02	0.0	3.409900e-01	-5.977963e-02	0.0	3.261100e-01	-5.974835e-02	0.0	3.114000e-01	-5.964635e-02	0.0	2.968700e-01	-5.947228e-02	0.0	2.825500e-01	-5.922504e-02	0.0	2.684500e-01	-5.890335e-02	0.0	2.545700e-01	-5.850552e-02	0.0	2.409400e-01	-5.803070e-02	0.0	2.275700e-01	-5.747760e-02	0.0	2.144700e-01	-5.684493e-02	0.0	2.016600e-01	-5.613201e-02	0.0	1.891400e-01	-5.533717e-02	0.0	1.769300e-01	-5.445997e-02	0.0	1.650400e-01	-5.349958e-02	0.0	1.534900e-01	-5.245622e-02	0.0	1.422900e-01	-5.132962e-02	0.0	1.314400e-01	-5.011851e-02	0.0	1.209500e-01	-4.882265e-02	0.0	1.108500e-01	-4.744481e-02	0.0	1.011300e-01	-4.598282e-02	0.0	9.181000e-02	-4.443880e-02	0.0	8.290000e-02	-4.281387e-02	0.0	7.440000e-02	-4.110738e-02	0.0	6.633000e-02	-3.932287e-02	0.0	5.869000e-02	-3.746004e-02	0.0	5.149000e-02	-3.552090e-02	0.0	4.474000e-02	-3.350799e-02	0.0	3.844000e-02	-3.142098e-02	0.0	3.260000e-02	-2.926274e-02	0.0	2.723000e-02	-2.703693e-02	0.0	2.232000e-02	-2.473854e-02	0.0	1.790000e-02	-2.238155e-02	0.0	1.395000e-02	-1.995515e-02	0.0	1.049000e-02	-1.747060e-02	0.0	7.520000e-03	-1.492881e-02	0.0	5.040000e-03	-1.232996e-02	0.0	3.050000e-03	-9.672527e-03	0.0	1.560000e-03	-6.971741e-03	0.0	5.600000e-04	-4.206463e-03	0.0	6.000000e-05	-1.384063e-03	0.0	0.000000e+00	0.000000e+00	0.0	6.000000e-05	1.263780e-03	0.0	5.600000e-04	3.625238e-03	0.0	1.560000e-03	5.789216e-03	0.0	3.050000e-03	7.807444e-03	0.0	5.040000e-03	9.724933e-03	0.0	7.520000e-03	1.154943e-02	0.0	1.049000e-02	1.329591e-02	0.0	1.395000e-02	1.497489e-02	0.0	1.790000e-02	1.659429e-02	0.0	2.232000e-02	1.815371e-02	0.0	2.723000e-02	1.966631e-02	0.0	3.260000e-02	2.112795e-02	0.0	3.844000e-02	2.254634e-02	0.0	4.474000e-02	2.392284e-02	0.0	5.149000e-02	2.525882e-02	0.0	5.869000e-02	2.655731e-02	0.0	6.633000e-02	2.781903e-02	0.0	7.440000e-02	2.904466e-02	0.0	8.290000e-02	3.023609e-02	0.0	9.181000e-02	3.139225e-02	0.0	1.011300e-01	3.251463e-02	0.0	1.108500e-01	3.360321e-02	0.0	1.209500e-01	3.465686e-02	0.0	1.314400e-01	3.567743e-02	0.0	1.422900e-01	3.666264e-02	0.0	1.534900e-01	3.761222e-02	0.0	1.650400e-01	3.852655e-02	0.0	1.769300e-01	3.940494e-02	0.0	1.891400e-01	4.024591e-02	0.0	2.016600e-01	4.104869e-02	0.0	2.144700e-01	4.181177e-02	0.0	2.275700e-01	4.253476e-02	0.0	2.409400e-01	4.321593e-02	0.0	2.545700e-01	4.385405e-02	0.0	2.684500e-01	4.444770e-02	0.0	2.825500e-01	4.499459e-02	0.0	2.968700e-01	4.549355e-02	0.0	3.114000e-01	4.594278e-02	0.0	3.261100e-01	4.633984e-02	0.0	3.409900e-01	4.668285e-02	0.0	3.560400e-01	4.696994e-02	0.0	3.712300e-01	4.719853e-02	0.0	3.865400e-01	4.736634e-02	0.0	4.019700e-01	4.747120e-02	0.0	4.175000e-01	4.751067e-02	0.0	4.331100e-01	4.748240e-02	0.0	4.487800e-01	4.738415e-02	0.0	4.645100e-01	4.721358e-02	0.0	4.802700e-01	4.696870e-02	0.0	4.960500e-01	4.664750e-02	0.0	5.118400e-01	4.624805e-02	0.0	5.276100e-01	4.576922e-02	0.0	5.433600e-01	4.520930e-02	0.0	5.590600e-01	4.456794e-02	0.0	5.747100e-01	4.384402e-02	0.0	5.902800e-01	4.303817e-02	0.0	6.057600e-01	4.215067e-02	0.0	6.211300e-01	4.118290e-02	0.0	6.363800e-01	4.013624e-02	0.0	6.515000e-01	3.901266e-02	0.0	6.664700e-01	3.781549e-02	0.0	6.812700e-01	3.654895e-02	0.0	6.958900e-01	3.521720e-02	0.0	7.103200e-01	3.382504e-02	0.0	7.245300e-01	3.238003e-02	0.0	7.385200e-01	3.088752e-02	0.0	7.522800e-01	2.935444e-02	0.0	7.657800e-01	2.779070e-02	0.0	7.790100e-01	2.620468e-02	0.0	7.919700e-01	2.460402e-02	0.0	8.046400e-01	2.299924e-02	0.0	8.170100e-01	2.139998e-02	0.0	8.290500e-01	1.981860e-02	0.0	8.407700e-01	1.826189e-02	0.0	8.521600e-01	1.673829e-02	0.0	8.631800e-01	1.525865e-02	0.0	8.738500e-01	1.382343e-02	0.0	8.841500e-01	1.243588e-02	0.0	8.940600e-01	1.109718e-02	0.0	9.035800e-01	9.805654e-03	0.0	9.127000e-01	8.564002e-03	0.0	9.214000e-01	7.383169e-03	0.0	9.296900e-01	6.279718e-03	0.0	9.375400e-01	5.284613e-03	0.0	9.449600e-01	4.426997e-03	0.0	9.519400e-01	3.731788e-03	0.0	9.584700e-01	3.205102e-03	0.0	9.645400e-01	2.826760e-03	0.0	9.701500e-01	2.551902e-03	0.0	9.752800e-01	2.324725e-03	0.0	9.799500e-01	2.092991e-03	0.0	9.841300e-01	1.826983e-03	0.0	9.878400e-01	1.519879e-03	0.0	9.910500e-01	1.190192e-03	0.0	9.937800e-01	8.630181e-04	0.0	9.960200e-01	5.666253e-04	0.0	9.977600e-01	3.231881e-04	0.0	9.990000e-01	1.450783e-04	0.0	9.997500e-01	3.632619e-05	0.0	1.000000e+00	0.000000e+00	0.0	
CELLS 200	600
2	149	150	2	150	151	2	151	152	2	152	153	2	153	154	2	154	155	2	155	156	2	156	157	2	157	158	2	158	159	2	159	160	2	160	161	2	161	162	2	162	163	2	163	164	2	164	165	2	165	166	2	166	167	2	167	168	2	168	169	2	169	170	2	170	171	2	171	172	2	172	173	2	173	174	2	174	175	2	175	176	2	176	177	2	177	178	2	178	179	2	179	180	2	180	181	2	181	182	2	31	32	2	32	33	2	33	34	2	34	35	2	35	36	2	36	37	2	37	38	2	38	39	2	39	40	2	40	41	2	41	42	2	42	43	2	43	44	2	44	45	2	45	46	2	46	47	2	47	48	2	48	49	2	49	50	2	50	51	2	51	52	2	52	53	2	53	54	2	54	55	2	55	56	2	56	57	2	57	58	2	58	59	2	59	60	2	60	61	2	61	62	2	62	63	2	63	64	2	64	65	2	65	66	2	66	67	2	67	68	2	68	69	2	69	70	2	70	71	2	71	72	2	72	73	2	73	74	2	74	75	2	75	76	2	76	77	2	77	78	2	78	79	2	79	80	2	80	81	2	81	82	2	82	83	2	83	84	2	113	114	2	114	115	2	115	116	2	116	117	2	117	118	2	118	119	2	119	120	2	120	121	2	121	122	2	122	123	2	123	124	2	124	125	2	125	126	2	126	127	2	127	128	2	128	129	2	129	130	2	130	131	2	131	132	2	132	133	2	133	134	2	134	135	2	135	136	2	136	137	2	137	138	2	138	139	2	139	140	2	140	141	2	141	142	2	142	143	2	143	144	2	144	145	2	145	146	2	146	147	2	147	148	2	148	149	2	84	85	2	85	86	2	86	87	2	87	88	2	88	89	2	89	90	2	90	91	2	91	92	2	92	93	2	93	94	2	94	95	2	95	96	2	96	97	2	97	98	2	98	99	2	99	100	2	100	101	2	101	102	2	102	103	2	103	104	2	104	105	2	105	106	2	106	107	2	107	108	2	108	109	2	109	110	2	110	111	2	111	112	2	112	113	2	199	0	2	0	1	2	1	2	2	2	3	2	3	4	2	4	5	2	5	6	2	6	7	2	182	183	2	183	184	2	184	185	2	185	186	2	186	187	2	187	188	2	188	189	2	189	190	2	190	191	2	191	192	2	192	193	2	193	194	2	194	195	2	195	196	2	196	197	2	197	198	2	198	199	2	7	8	2	8	9	2	9	10	2	10	11	2	11	12	2	12	13	2	13	14	2	14	15	2	15	16	2	16	17	2	17	18	2	18	19	2	19	20	2	20	21	2	21	22	2	22	23	2	23	24	2	24	25	2	25	26	2	26	27	2	27	28	2	28	29	2	29	30	2	30	31	
CELL_TYPES 200
3	3	3	3	3	3	3	3	3	3	3	3	3	3	3	3	3	3	3	3	3	3	3	3	3	3	3	3	3	3	3	3	3	3	3	3	3	3	3	3	3	3	3	3	3	3	3	3	3	3	3	3	3	3	3	3	3	3	3	3	3	3	3	3	3	3	3	3	3	3	3	3	3	3	3	3	3	3	3	3	3	3	3	3	3	3	3	3	3	3	3	3	3	3	3	3	3	3	3	3	3	3	3	3	3	3	3	3	3	3	3	3	3	3	3	3	3	3	3	3	3	3	3	3	3	3	3	3	3	3	3	3	3	3	3	3	3	3	3	3	3	3	3	3	3	3	3	3	3	3	3	3	3	3	3	3	3	3	3	3	3	3	3	3	3	3	3	3	3	3	3	3	3	3	3	3	3	3	3	3	3	3	3	3	3	3	3	3	3	3	3	3	3	3	3	3	3	3	3	3	
POINT_DATA 200

SCALARS Conservative_1 float 1
LOOKUP_TABLE default
1.199829e+00	1.181604e+00	1.171180e+00	1.164741e+00	1.160168e+00	1.155703e+00	1.148819e+00	1.137901e+00	1.121720e+00	1.100364e+00	1.075075e+00	1.048463e+00	1.024894e+00	1.008359e+00	9.999846e-01	9.979260e-01	9.990352e-01	1.000478e+00	1.000505e+00	9.985162e-01	9.947323e-01	9.897104e-01	9.840358e-01	9.781800e-01	9.724208e-01	9.668691e-01	9.615161e-01	9.563153e-01	9.512022e-01	9.461451e-01	9.411282e-01	9.361076e-01	9.310494e-01	9.259699e-01	9.209205e-01	9.159494e-01	9.110755e-01	9.063031e-01	9.016438e-01	8.971139e-01	8.927132e-01	8.884523e-01	8.843136e-01	8.803137e-01	8.764677e-01	8.728270e-01	8.693811e-01	8.660663e-01	8.627352e-01	8.593783e-01	8.561980e-01	8.535482e-01	8.515428e-01	8.498899e-01	8.479166e-01	8.448712e-01	8.402537e-01	8.342116e-01	8.276244e-01	8.217495e-01	8.174738e-01	8.149907e-01	8.140274e-01	8.141510e-01	8.150515e-01	8.165297e-01	8.185364e-01	8.209878e-01	8.237978e-01	8.268539e-01	8.301750e-01	8.339244e-01	8.383490e-01	8.435167e-01	8.493512e-01	8.557059e-01	8.626457e-01	8.703488e-01	8.788724e-01	8.882558e-01	8.986108e-01	9.099962e-01	9.225635e-01	9.364306e-01	9.517874e-01	9.689110e-01	9.880297e-01	1.009502e+00	1.033814e+00	1.061280e+00	1.092432e+00	1.127736e+00	1.167040e+00	1.209883e+00	1.254554e+00	1.298041e+00	1.331743e+00	1.350899e+00	1.339537e+00	1.308278e+00	1.284270e+00	1.221116e+00	1.099487e+00	1.002011e+00	9.260123e-01	8.702968e-01	8.323074e-01	8.072966e-01	7.904584e-01	7.790534e-01	7.713861e-01	7.662875e-01	7.631980e-01	7.613799e-01	7.604592e-01	7.604322e-01	7.611706e-01	7.624375e-01	7.639113e-01	7.652650e-01	7.665150e-01	7.679851e-01	7.699343e-01	7.722128e-01	7.744213e-01	7.763316e-01	7.780354e-01	7.796797e-01	7.813677e-01	7.831698e-01	7.851414e-01	7.872665e-01	7.894722e-01	7.916585e-01	7.937825e-01	7.958189e-01	7.977583e-01	7.995619e-01	8.012394e-01	8.029076e-01	8.047829e-01	8.070253e-01	8.096832e-01	8.127099e-01	8.160902e-01	8.198644e-01	8.240537e-01	8.286384e-01	8.334809e-01	8.384134e-01	8.432483e-01	8.480292e-01	8.530270e-01	8.585715e-01	8.647162e-01	8.712360e-01	8.779188e-01	8.847690e-01	8.919545e-01	8.995212e-01	9.074163e-01	9.155520e-01	9.238801e-01	9.323884e-01	9.410471e-01	9.498425e-01	9.587245e-01	9.676755e-01	9.766214e-01	9.855644e-01	9.944217e-01	1.003112e+00	1.011574e+00	1.019723e+00	1.027512e+00	1.034921e+00	1.041995e+00	1.048916e+00	1.055942e+00	1.063464e+00	1.071777e+00	1.080979e+00	1.090687e+00	1.100039e+00	1.107786e+00	1.112590e+00	1.113364e+00	1.109743e+00	1.102492e+00	1.093776e+00	1.086674e+00	1.084155e+00	1.088060e+00	1.098275e+00	1.112850e+00	1.130015e+00	1.148478e+00	1.168636e+00	1.192714e+00	1.181127e+00	
SCALARS Conservative_2 float 1
LOOKUP_TABLE default
7.195748e-01	7.459500e-01	7.640403e-01	7.748489e-01	7.807401e-01	7.855129e-01	7.913183e-01	8.009832e-01	8.159926e-01	8.363999e-01	8.604893e-01	8.849332e-01	9.060884e-01	9.215742e-01	9.308012e-01	9.347644e-01	9.355188e-01	9.351583e-01	9.351419e-01	9.360814e-01	9.380303e-01	9.406876e-01	9.436776e-01	9.467101e-01	9.495982e-01	9.522762e-01	9.547391e-01	9.570291e-01	9.591564e-01	9.611535e-01	9.630554e-01	9.648542e-01	9.665642e-01	9.681833e-01	9.696988e-01	9.710985e-01	9.723971e-01	9.735755e-01	9.746441e-01	9.756180e-01	9.764782e-01	9.772597e-01	9.779362e-01	9.785446e-01	9.790523e-01	9.795004e-01	9.798660e-01	9.802012e-01	9.804743e-01	9.807243e-01	9.808922e-01	9.810051e-01	9.810479e-01	9.810774e-01	9.811129e-01	9.811866e-01	9.812255e-01	9.811486e-01	9.808246e-01	9.803290e-01	9.798248e-01	9.794114e-01	9.791616e-01	9.790103e-01	9.789580e-01	9.789141e-01	9.789014e-01	9.788481e-01	9.787678e-01	9.785932e-01	9.783381e-01	9.779485e-01	9.774263e-01	9.766914e-01	9.757313e-01	9.744056e-01	9.727342e-01	9.706226e-01	9.678401e-01	9.642320e-01	9.597078e-01	9.539759e-01	9.467728e-01	9.376816e-01	9.261869e-01	9.115602e-01	8.928698e-01	8.690408e-01	8.385006e-01	7.990995e-01	7.483514e-01	6.832089e-01	6.000087e-01	4.965469e-01	3.728331e-01	2.366287e-01	1.074506e-01	1.081001e-02	-2.157500e-02	5.237595e-03	7.305842e-02	2.104978e-01	4.135144e-01	5.902773e-01	7.152893e-01	7.968654e-01	8.484496e-01	8.813591e-01	9.026274e-01	9.169568e-01	9.269946e-01	9.341603e-01	9.396286e-01	9.439045e-01	9.473350e-01	9.502762e-01	9.527902e-01	9.549634e-01	9.568932e-01	9.585580e-01	9.600433e-01	9.614626e-01	9.628318e-01	9.640630e-01	9.651610e-01	9.661244e-01	9.670093e-01	9.678203e-01	9.685998e-01	9.693447e-01	9.700873e-01	9.708071e-01	9.715078e-01	9.721579e-01	9.727714e-01	9.733329e-01	9.738552e-01	9.743292e-01	9.747694e-01	9.751934e-01	9.756501e-01	9.761180e-01	9.766027e-01	9.770853e-01	9.775596e-01	9.780233e-01	9.784482e-01	9.788395e-01	9.791181e-01	9.793169e-01	9.794156e-01	9.794471e-01	9.793917e-01	9.792233e-01	9.788783e-01	9.783288e-01	9.776101e-01	9.766666e-01	9.755027e-01	9.740603e-01	9.723372e-01	9.703084e-01	9.679783e-01	9.653308e-01	9.623609e-01	9.590625e-01	9.554344e-01	9.515165e-01	9.472428e-01	9.427248e-01	9.379690e-01	9.329942e-01	9.279161e-01	9.227896e-01	9.176697e-01	9.125822e-01	9.074715e-01	9.022146e-01	8.965190e-01	8.900884e-01	8.825871e-01	8.740081e-01	8.647768e-01	8.559762e-01	8.491460e-01	8.458520e-01	8.471040e-01	8.528064e-01	8.615001e-01	8.705194e-01	8.765582e-01	8.769742e-01	8.704604e-01	8.577500e-01	8.395751e-01	8.174836e-01	7.911864e-01	7.596482e-01	7.213214e-01	6.623537e-01	
SCALARS Conservative_3 float 1
LOOKUP_TABLE default
1.010185e-01	1.066668e-01	1.128621e-01	1.197580e-01	1.301712e-01	1.447862e-01	1.632566e-01	1.836693e-01	2.028761e-01	2.169550e-01	2.227235e-01	2.186049e-01	2.055654e-01	1.873994e-01	1.688320e-01	1.535312e-01	1.431354e-01	1.374037e-01	1.349848e-01	1.342464e-01	1.338926e-01	1.331601e-01	1.317631e-01	1.297295e-01	1.272274e-01	1.244563e-01	1.215499e-01	1.185973e-01	1.156243e-01	1.126186e-01	1.095689e-01	1.064548e-01	1.032647e-01	9.999119e-02	9.662034e-02	9.316701e-02	8.962762e-02	8.602066e-02	8.235252e-02	7.863513e-02	7.488173e-02	7.109916e-02	6.730596e-02	6.350361e-02	5.969966e-02	5.588548e-02	5.206484e-02	4.824982e-02	4.446395e-02	4.071159e-02	3.695644e-02	3.314165e-02	2.924477e-02	2.525279e-02	2.119798e-02	1.712429e-02	1.307678e-02	9.042336e-03	4.913322e-03	5.531881e-04	-4.074781e-03	-8.949002e-03	-1.405810e-02	-1.939067e-02	-2.498495e-02	-3.086900e-02	-3.709913e-02	-4.369219e-02	-5.068177e-02	-5.808781e-02	-6.595725e-02	-7.435419e-02	-8.334899e-02	-9.297416e-02	-1.032724e-01	-1.142956e-01	-1.261547e-01	-1.389166e-01	-1.526570e-01	-1.675002e-01	-1.835647e-01	-2.009629e-01	-2.198503e-01	-2.403619e-01	-2.626181e-01	-2.867372e-01	-3.127902e-01	-3.407224e-01	-3.701476e-01	-4.003347e-01	-4.298083e-01	-4.554627e-01	-4.722237e-01	-4.716763e-01	-4.409024e-01	-3.644726e-01	-2.306680e-01	-3.808694e-02	1.857765e-01	3.518626e-01	4.963659e-01	6.611015e-01	7.236451e-01	6.884195e-01	6.112277e-01	5.275531e-01	4.530863e-01	3.913308e-01	3.411486e-01	3.001409e-01	2.665689e-01	2.386465e-01	2.151993e-01	1.952751e-01	1.781379e-01	1.632737e-01	1.502974e-01	1.388568e-01	1.286981e-01	1.195493e-01	1.112118e-01	1.036166e-01	9.671400e-02	9.041172e-02	8.457947e-02	7.907125e-02	7.386142e-02	6.892539e-02	6.425374e-02	5.979612e-02	5.552067e-02	5.139584e-02	4.739031e-02	4.346623e-02	3.959927e-02	3.576966e-02	3.196364e-02	2.815966e-02	2.432837e-02	2.044944e-02	1.652642e-02	1.256222e-02	8.546536e-03	4.447869e-03	2.472043e-04	-4.063740e-03	-8.483693e-03	-1.300470e-02	-1.764121e-02	-2.239939e-02	-2.729688e-02	-3.235622e-02	-3.753144e-02	-4.279531e-02	-4.809629e-02	-5.345301e-02	-5.887984e-02	-6.435631e-02	-6.982524e-02	-7.524340e-02	-8.057055e-02	-8.579359e-02	-9.085387e-02	-9.572236e-02	-1.003292e-01	-1.046503e-01	-1.086150e-01	-1.121886e-01	-1.153158e-01	-1.179524e-01	-1.200579e-01	-1.215982e-01	-1.225746e-01	-1.230125e-01	-1.229847e-01	-1.226368e-01	-1.221435e-01	-1.216827e-01	-1.213258e-01	-1.209090e-01	-1.199000e-01	-1.174031e-01	-1.123014e-01	-1.037109e-01	-9.144201e-02	-7.641665e-02	-6.079722e-02	-4.766941e-02	-4.027718e-02	-4.082342e-02	-4.940351e-02	-6.378331e-02	-8.015706e-02	-9.479736e-02	-1.049841e-01	-1.097970e-01	-1.102827e-01	-1.061989e-01	-1.003426e-01	2.575535e-03	
SCALARS Conservative_4 float 1
LOOKUP_TABLE default
3.446401e+00	3.400791e+00	3.375504e+00	3.359985e+00	3.348836e+00	3.337964e+00	3.320868e+00	3.293680e+00	3.253307e+00	3.199978e+00	3.136710e+00	3.069894e+00	3.010544e+00	2.968886e+00	2.947816e+00	2.942627e+00	2.945373e+00	2.948930e+00	2.948905e+00	2.943774e+00	2.934101e+00	2.921286e+00	2.906799e+00	2.891834e+00	2.877093e+00	2.862861e+00	2.849115e+00	2.835746e+00	2.822581e+00	2.809545e+00	2.796603e+00	2.783637e+00	2.770558e+00	2.757409e+00	2.744324e+00	2.731426e+00	2.718770e+00	2.706361e+00	2.694232e+00	2.682430e+00	2.670948e+00	2.659825e+00	2.649006e+00	2.638544e+00	2.628468e+00	2.618927e+00	2.609884e+00	2.601187e+00	2.592437e+00	2.583622e+00	2.575255e+00	2.568274e+00	2.562971e+00	2.558598e+00	2.553390e+00	2.545384e+00	2.533250e+00	2.517356e+00	2.499973e+00	2.484419e+00	2.473066e+00	2.466444e+00	2.463861e+00	2.464163e+00	2.466542e+00	2.470449e+00	2.475766e+00	2.482254e+00	2.489695e+00	2.497778e+00	2.506561e+00	2.516462e+00	2.528137e+00	2.541750e+00	2.557108e+00	2.573795e+00	2.592006e+00	2.612200e+00	2.634481e+00	2.658937e+00	2.685876e+00	2.715412e+00	2.747930e+00	2.783696e+00	2.823160e+00	2.866981e+00	2.915673e+00	2.970115e+00	3.031459e+00	3.100355e+00	3.178067e+00	3.265640e+00	3.362436e+00	3.467269e+00	3.575826e+00	3.681277e+00	3.762482e+00	3.809723e+00	3.781245e+00	3.702885e+00	3.649660e+00	3.499880e+00	3.190827e+00	2.942930e+00	2.747936e+00	2.604168e+00	2.505913e+00	2.441148e+00	2.397383e+00	2.367643e+00	2.347622e+00	2.334247e+00	2.326162e+00	2.321427e+00	2.319059e+00	2.319084e+00	2.321131e+00	2.324570e+00	2.328572e+00	2.332252e+00	2.335665e+00	2.339682e+00	2.344970e+00	2.351104e+00	2.357040e+00	2.362177e+00	2.366771e+00	2.371202e+00	2.375752e+00	2.380600e+00	2.385900e+00	2.391603e+00	2.397518e+00	2.403375e+00	2.409064e+00	2.414515e+00	2.419706e+00	2.424533e+00	2.429025e+00	2.433493e+00	2.438519e+00	2.444515e+00	2.451608e+00	2.459673e+00	2.468669e+00	2.478703e+00	2.489824e+00	2.501983e+00	2.514797e+00	2.527839e+00	2.540610e+00	2.553236e+00	2.566425e+00	2.581037e+00	2.597197e+00	2.614308e+00	2.631826e+00	2.649747e+00	2.668517e+00	2.688245e+00	2.708793e+00	2.729925e+00	2.751516e+00	2.773530e+00	2.795889e+00	2.818556e+00	2.841398e+00	2.864379e+00	2.887282e+00	2.910145e+00	2.932744e+00	2.954867e+00	2.976373e+00	2.997050e+00	3.016784e+00	3.035526e+00	3.053390e+00	3.070837e+00	3.088503e+00	3.107373e+00	3.128171e+00	3.151150e+00	3.175357e+00	3.198677e+00	3.218035e+00	3.230137e+00	3.232251e+00	3.223408e+00	3.205424e+00	3.183659e+00	3.165768e+00	3.159212e+00	3.168671e+00	3.194023e+00	3.230155e+00	3.272668e+00	3.318102e+00	3.367491e+00	3.426998e+00	3.383859e+00	
SCALARS Pressure float 1
LOOKUP_TABLE default
1.290549e+00	1.264207e+00	1.248339e+00	1.238437e+00	1.231533e+00	1.224778e+00	1.214694e+00	1.198778e+00	1.175266e+00	1.144284e+00	1.107709e+00	1.069460e+00	1.035761e+00	1.012137e+00	1.000145e+00	9.972065e-01	9.988395e-01	1.000977e+00	1.001110e+00	9.983897e-01	9.931239e-01	9.861125e-01	9.781959e-01	9.700420e-01	9.620457e-01	9.543595e-01	9.469710e-01	9.398080e-01	9.327859e-01	9.258568e-01	9.189913e-01	9.121367e-01	9.052456e-01	8.983399e-01	8.914900e-01	8.847616e-01	8.781755e-01	8.717433e-01	8.654774e-01	8.593951e-01	8.535025e-01	8.478034e-01	8.422836e-01	8.369540e-01	8.318452e-01	8.270129e-01	8.224516e-01	8.180616e-01	8.136602e-01	8.092222e-01	8.050336e-01	8.015532e-01	7.989380e-01	7.967861e-01	7.942033e-01	7.901852e-01	7.840896e-01	7.761294e-01	7.675065e-01	7.598654e-01	7.543385e-01	7.511571e-01	7.499368e-01	7.501224e-01	7.512985e-01	7.532278e-01	7.558333e-01	7.590240e-01	7.626765e-01	7.666591e-01	7.709877e-01	7.758896e-01	7.816825e-01	7.884721e-01	7.961486e-01	8.045505e-01	8.137381e-01	8.239557e-01	8.353264e-01	8.479162e-01	8.618589e-01	8.772725e-01	8.943705e-01	9.133524e-01	9.345168e-01	9.583004e-01	9.850895e-01	1.015422e+00	1.050061e+00	1.089602e+00	1.134877e+00	1.186685e+00	1.245062e+00	1.309373e+00	1.377180e+00	1.443416e+00	1.495268e+00	1.523657e+00	1.507276e+00	1.462223e+00	1.420664e+00	1.321112e+00	1.149971e+00	1.013033e+00	9.079807e-01	8.317831e-01	7.800546e-01	7.460768e-01	7.233637e-01	7.080764e-01	6.978266e-01	6.910725e-01	6.869599e-01	6.845171e-01	6.832509e-01	6.831191e-01	6.839871e-01	6.855494e-01	6.873669e-01	6.890309e-01	6.905524e-01	6.923402e-01	6.947469e-01	6.976090e-01	7.003924e-01	7.027968e-01	7.049296e-01	7.069902e-01	7.091046e-01	7.113714e-01	7.138551e-01	7.165424e-01	7.193350e-01	7.221103e-01	7.248064e-01	7.273957e-01	7.298614e-01	7.321553e-01	7.342857e-01	7.364035e-01	7.387809e-01	7.416387e-01	7.450385e-01	7.489231e-01	7.532723e-01	7.581388e-01	7.635580e-01	7.694992e-01	7.758036e-01	7.822357e-01	7.885529e-01	7.948014e-01	8.013444e-01	8.086222e-01	8.167212e-01	8.253504e-01	8.342163e-01	8.433406e-01	8.529384e-01	8.630841e-01	8.737060e-01	8.846942e-01	8.959831e-01	9.075593e-01	9.193849e-01	9.314422e-01	9.436671e-01	9.560249e-01	9.684401e-01	9.808851e-01	9.932544e-01	1.005443e+00	1.017343e+00	1.028838e+00	1.039856e+00	1.050363e+00	1.060430e+00	1.070306e+00	1.080380e+00	1.091204e+00	1.103227e+00	1.116577e+00	1.130698e+00	1.144302e+00	1.155526e+00	1.162393e+00	1.163333e+00	1.157882e+00	1.147238e+00	1.134592e+00	1.124444e+00	1.121057e+00	1.127012e+00	1.141993e+00	1.163400e+00	1.188656e+00	1.216113e+00	1.246308e+00	1.281864e+00	1.279255e+00	
SCALARS Temperature float 1
LOOKUP_TABLE default
1.075611e+00	1.069907e+00	1.065882e+00	1.063273e+00	1.061512e+00	1.059768e+00	1.057341e+00	1.053500e+00	1.047736e+00	1.039914e+00	1.030355e+00	1.020027e+00	1.010602e+00	1.003747e+00	1.000160e+00	9.992790e-01	9.998042e-01	1.000499e+00	1.000605e+00	9.998733e-01	9.983830e-01	9.963646e-01	9.940654e-01	9.916804e-01	9.893306e-01	9.870617e-01	9.848728e-01	9.827386e-01	9.806390e-01	9.785569e-01	9.764784e-01	9.743930e-01	9.722852e-01	9.701611e-01	9.680423e-01	9.659503e-01	9.638888e-01	9.618672e-01	9.598884e-01	9.579554e-01	9.560770e-01	9.542475e-01	9.524716e-01	9.507451e-01	9.490883e-01	9.475107e-01	9.460196e-01	9.445716e-01	9.431170e-01	9.416367e-01	9.402423e-01	9.390836e-01	9.382241e-01	9.375168e-01	9.366527e-01	9.352730e-01	9.331582e-01	9.303748e-01	9.273609e-01	9.246923e-01	9.227678e-01	9.216758e-01	9.212673e-01	9.213555e-01	9.217805e-01	9.224745e-01	9.233960e-01	9.245253e-01	9.258054e-01	9.272003e-01	9.287049e-01	9.304076e-01	9.324070e-01	9.347439e-01	9.373610e-01	9.402185e-01	9.433051e-01	9.466960e-01	9.504524e-01	9.545857e-01	9.591015e-01	9.640398e-01	9.694405e-01	9.753551e-01	9.818546e-01	9.890489e-01	9.970243e-01	1.005864e+00	1.015715e+00	1.026686e+00	1.038854e+00	1.052272e+00	1.066855e+00	1.082232e+00	1.097745e+00	1.111996e+00	1.122790e+00	1.127883e+00	1.125221e+00	1.117670e+00	1.106204e+00	1.081889e+00	1.045916e+00	1.010999e+00	9.805277e-01	9.557464e-01	9.372193e-01	9.241670e-01	9.151193e-01	9.088933e-01	9.046398e-01	9.018449e-01	9.001070e-01	8.990481e-01	8.984714e-01	8.983300e-01	8.985990e-01	8.991549e-01	8.997993e-01	9.003821e-01	9.008987e-01	9.015021e-01	9.023458e-01	9.033896e-01	9.044074e-01	9.052791e-01	9.060379e-01	9.067700e-01	9.075172e-01	9.083234e-01	9.092058e-01	9.101650e-01	9.111594e-01	9.121487e-01	9.131046e-01	9.140217e-01	9.148904e-01	9.156955e-01	9.164374e-01	9.171709e-01	9.179878e-01	9.189783e-01	9.201606e-01	9.215135e-01	9.230258e-01	9.247125e-01	9.265877e-01	9.286308e-01	9.307995e-01	9.329952e-01	9.351372e-01	9.372336e-01	9.394128e-01	9.418227e-01	9.444963e-01	9.473327e-01	9.502204e-01	9.531760e-01	9.562577e-01	9.594928e-01	9.628502e-01	9.662960e-01	9.698045e-01	9.733704e-01	9.769808e-01	9.806281e-01	9.842943e-01	9.879601e-01	9.916229e-01	9.952521e-01	9.988262e-01	1.002323e+00	1.005703e+00	1.008939e+00	1.012013e+00	1.014921e+00	1.017691e+00	1.020392e+00	1.023143e+00	1.026085e+00	1.029344e+00	1.032931e+00	1.036685e+00	1.040238e+00	1.043095e+00	1.044763e+00	1.044881e+00	1.043378e+00	1.040586e+00	1.037317e+00	1.034758e+00	1.034037e+00	1.035800e+00	1.039805e+00	1.045424e+00	1.051894e+00	1.058891e+00	1.066464e+00	1.074745e+00	1.083080e+00	
SCALARS Pressure_Coefficient float 1
LOOKUP_TABLE default
6.485467e-01	5.897467e-01	5.543286e-01	5.322253e-01	5.168144e-01	5.017360e-01	4.792267e-01	4.437015e-01	3.912188e-01	3.220632e-01	2.404210e-01	1.550442e-01	7.982291e-02	2.709155e-02	3.228470e-04	-6.235498e-03	-2.590317e-03	2.181607e-03	2.477222e-03	-3.594490e-03	-1.534854e-02	-3.099894e-02	-4.866996e-02	-6.687057e-02	-8.471942e-02	-1.018762e-01	-1.183683e-01	-1.343571e-01	-1.500315e-01	-1.654981e-01	-1.808229e-01	-1.961234e-01	-2.115054e-01	-2.269198e-01	-2.422099e-01	-2.572285e-01	-2.719297e-01	-2.862873e-01	-3.002736e-01	-3.138503e-01	-3.270033e-01	-3.397246e-01	-3.520456e-01	-3.639420e-01	-3.753456e-01	-3.861320e-01	-3.963133e-01	-4.061125e-01	-4.159370e-01	-4.258434e-01	-4.351930e-01	-4.429616e-01	-4.487991e-01	-4.536025e-01	-4.593676e-01	-4.683366e-01	-4.819428e-01	-4.997111e-01	-5.189586e-01	-5.360147e-01	-5.483516e-01	-5.554528e-01	-5.581768e-01	-5.577624e-01	-5.551373e-01	-5.508307e-01	-5.450151e-01	-5.378928e-01	-5.297401e-01	-5.208501e-01	-5.111883e-01	-5.002464e-01	-4.873159e-01	-4.721605e-01	-4.550254e-01	-4.362712e-01	-4.157632e-01	-3.929560e-01	-3.675750e-01	-3.394727e-01	-3.083506e-01	-2.739452e-01	-2.357802e-01	-1.934099e-01	-1.461679e-01	-9.307944e-02	-3.328228e-02	3.442300e-02	1.117423e-01	2.000039e-01	3.010642e-01	4.167080e-01	5.470142e-01	6.905656e-01	8.419198e-01	9.897669e-01	1.105509e+00	1.168878e+00	1.132312e+00	1.031748e+00	9.389824e-01	7.167678e-01	3.347556e-01	2.909047e-02	-2.054002e-01	-3.754842e-01	-4.909495e-01	-5.667928e-01	-6.174916e-01	-6.516152e-01	-6.744941e-01	-6.895702e-01	-6.987503e-01	-7.042028e-01	-7.070293e-01	-7.073234e-01	-7.053858e-01	-7.018988e-01	-6.978417e-01	-6.941275e-01	-6.907314e-01	-6.867407e-01	-6.813685e-01	-6.749799e-01	-6.687671e-01	-6.634000e-01	-6.586393e-01	-6.540398e-01	-6.493201e-01	-6.442602e-01	-6.387162e-01	-6.327179e-01	-6.264844e-01	-6.202896e-01	-6.142714e-01	-6.084917e-01	-6.029880e-01	-5.978677e-01	-5.931123e-01	-5.883851e-01	-5.830783e-01	-5.766994e-01	-5.691105e-01	-5.604395e-01	-5.507315e-01	-5.398687e-01	-5.277722e-01	-5.145108e-01	-5.004383e-01	-4.860811e-01	-4.719802e-01	-4.580326e-01	-4.434276e-01	-4.271827e-01	-4.091044e-01	-3.898430e-01	-3.700528e-01	-3.496863e-01	-3.282625e-01	-3.056158e-01	-2.819063e-01	-2.573790e-01	-2.321807e-01	-2.063409e-01	-1.799444e-01	-1.530309e-01	-1.257431e-01	-9.815876e-02	-7.044622e-02	-4.266721e-02	-1.505720e-02	1.214995e-02	3.871305e-02	6.437066e-02	8.896358e-02	1.124171e-01	1.348876e-01	1.569321e-01	1.794202e-01	2.035811e-01	2.304181e-01	2.602164e-01	2.917376e-01	3.221038e-01	3.471563e-01	3.624836e-01	3.645816e-01	3.524151e-01	3.286568e-01	3.004297e-01	2.777765e-01	2.702172e-01	2.835085e-01	3.169478e-01	3.647323e-01	4.211065e-01	4.823959e-01	5.497938e-01	6.291598e-01	6.233379e-01	
SCALARS Mach float 1
LOOKUP_TABLE default
4.935181e-01	5.210700e-01	5.398355e-01	5.517313e-01	5.596454e-01	5.674039e-01	5.780685e-01	5.946554e-01	6.189225e-01	6.508108e-01	6.883836e-01	7.275289e-01	7.621420e-01	7.867513e-01	7.994550e-01	8.025586e-01	8.007094e-01	7.982580e-01	7.978864e-01	8.004659e-01	8.057081e-01	8.127787e-01	8.207937e-01	8.290640e-01	8.371711e-01	8.449612e-01	8.524432e-01	8.597067e-01	8.668239e-01	8.738540e-01	8.808458e-01	8.878349e-01	8.948735e-01	9.019421e-01	9.089683e-01	9.158829e-01	9.226751e-01	9.293156e-01	9.357966e-01	9.421101e-01	9.482293e-01	9.541743e-01	9.599317e-01	9.655164e-01	9.708644e-01	9.759467e-01	9.807416e-01	9.853901e-01	9.900520e-01	9.947884e-01	9.992432e-01	1.002939e+00	1.005679e+00	1.007931e+00	1.010680e+00	1.015065e+00	1.021775e+00	1.030585e+00	1.040100e+00	1.048503e+00	1.054552e+00	1.057980e+00	1.059262e+00	1.058985e+00	1.057652e+00	1.055473e+00	1.052579e+00	1.049029e+00	1.045001e+00	1.040606e+00	1.035860e+00	1.030482e+00	1.024155e+00	1.016745e+00	1.008427e+00	9.993190e-01	9.894495e-01	9.785676e-01	9.664620e-01	9.530766e-01	9.383687e-01	9.221784e-01	9.043344e-01	8.846135e-01	8.627068e-01	8.381403e-01	8.104716e-01	7.792000e-01	7.434832e-01	7.024471e-01	6.550495e-01	5.998817e-01	5.353453e-01	4.598713e-01	3.712602e-01	2.683092e-01	1.524044e-01	2.332280e-02	1.112403e-01	2.150307e-01	3.139194e-01	4.616626e-01	6.264446e-01	7.607044e-01	8.672002e-01	9.493046e-01	1.008878e+00	1.050156e+00	1.078501e+00	1.097899e+00	1.111107e+00	1.119768e+00	1.125147e+00	1.128422e+00	1.130205e+00	1.130642e+00	1.129810e+00	1.128092e+00	1.126099e+00	1.124296e+00	1.122697e+00	1.120830e+00	1.118217e+00	1.114983e+00	1.111828e+00	1.109124e+00	1.106770e+00	1.104497e+00	1.102176e+00	1.099671e+00	1.096928e+00	1.093943e+00	1.090848e+00	1.087767e+00	1.084787e+00	1.081927e+00	1.079216e+00	1.076702e+00	1.074384e+00	1.072091e+00	1.069535e+00	1.066435e+00	1.062732e+00	1.058490e+00	1.053742e+00	1.048440e+00	1.042537e+00	1.036094e+00	1.029243e+00	1.022292e+00	1.015497e+00	1.008833e+00	1.001890e+00	9.941938e-01	9.856315e-01	9.765196e-01	9.672114e-01	9.576497e-01	9.476413e-01	9.370903e-01	9.260892e-01	9.147421e-01	9.031264e-01	8.912528e-01	8.791581e-01	8.668609e-01	8.544150e-01	8.418810e-01	8.292631e-01	8.166620e-01	8.041512e-01	7.918061e-01	7.797735e-01	7.681552e-01	7.570210e-01	7.463994e-01	7.361968e-01	7.261662e-01	7.158597e-01	7.047338e-01	6.922769e-01	6.783936e-01	6.636636e-01	6.495127e-01	6.379759e-01	6.311774e-01	6.306929e-01	6.368256e-01	6.481132e-01	6.611611e-01	6.712541e-01	6.740758e-01	6.671569e-01	6.512469e-01	6.284659e-01	6.014883e-01	5.712747e-01	5.371546e-01	4.977803e-01	4.554098e-01	