# vtk DataFile Version 3.0
vtk output
ASCII
DATASET UNSTRUCTURED_GRID
POINTS 5233 float
9.997500e-01	-3.632897e-05	0.0	9.990000e-01	-1.452538e-04	0.0	9.977600e-01	-3.251112e-04	0.0	9.960200e-01	-5.769984e-04	0.0	9.937800e-01	-9.004365e-04	0.0	9.910500e-01	-1.293364e-03	0.0	9.878400e-01	-1.753610e-03	0.0	9.841300e-01	-2.283177e-03	0.0	9.799500e-01	-2.876826e-03	0.0	9.752800e-01	-3.536324e-03	0.0	9.701500e-01	-4.256269e-03	0.0	9.645400e-01	-5.038225e-03	0.0	9.584700e-01	-5.878077e-03	0.0	9.519400e-01	-6.774429e-03	0.0	9.449600e-01	-7.724467e-03	0.0	9.375400e-01	-8.725349e-03	0.0	9.296900e-01	-9.774221e-03	0.0	9.214000e-01	-1.087086e-02	0.0	9.127000e-01	-1.200973e-02	0.0	9.035800e-01	-1.319056e-02	0.0	8.940600e-01	-1.440916e-02	0.0	8.841500e-01	-1.566269e-02	0.0	8.738500e-01	-1.694956e-02	0.0	8.631800e-01	-1.826569e-02	0.0	8.521600e-01	-1.960709e-02	0.0	8.407700e-01	-2.097463e-02	0.0	8.290500e-01	-2.236196e-02	0.0	8.170100e-01	-2.376642e-02	0.0	8.046400e-01	-2.518764e-02	0.0	7.919700e-01	-2.662063e-02	0.0	7.790100e-01	-2.806277e-02	0.0	7.657800e-01	-2.951034e-02	0.0	7.522800e-01	-3.096181e-02	0.0	7.385200e-01	-3.241453e-02	0.0	7.245300e-01	-3.386377e-02	0.0	7.103200e-01	-3.530689e-02	0.0	6.958900e-01	-3.674225e-02	0.0	6.812700e-01	-3.816515e-02	0.0	6.664700e-01	-3.957289e-02	0.0	6.515000e-01	-4.096270e-02	0.0	6.363800e-01	-4.233084e-02	0.0	6.211300e-01	-4.367359e-02	0.0	6.057600e-01	-4.498807e-02	0.0	5.902800e-01	-4.627133e-02	0.0	5.747100e-01	-4.751951e-02	0.0	5.590600e-01	-4.872956e-02	0.0	5.433600e-01	-4.989684e-02	0.0	5.276100e-01	-5.101898e-02	0.0	5.118400e-01	-5.209138e-02	0.0	4.960500e-01	-5.311154e-02	0.0	4.802700e-01	-5.407492e-02	0.0	4.645100e-01	-5.497836e-02	0.0	4.487800e-01	-5.581860e-02	0.0	4.331100e-01	-5.659142e-02	0.0	4.175000e-01	-5.729417e-02	0.0	4.019700e-01	-5.792324e-02	0.0	3.865400e-01	-5.847521e-02	0.0	3.712300e-01	-5.894684e-02	0.0	3.560400e-01	-5.933562e-02	0.0	3.409900e-01	-5.963848e-02	0.0	3.261100e-01	-5.985254e-02	0.0	3.114000e-01	-5.997565e-02	0.0	2.968700e-01	-6.000550e-02	0.0	2.825500e-01	-5.994005e-02	0.0	2.684500e-01	-5.977766e-02	0.0	2.545700e-01	-5.951658e-02	0.0	2.409400e-01	-5.915586e-02	0.0	2.275700e-01	-5.869457e-02	0.0	2.144700e-01	-5.813197e-02	0.0	2.016600e-01	-5.746811e-02	0.0	1.891400e-01	-5.670228e-02	0.0	1.769300e-01	-5.583514e-02	0.0	1.650400e-01	-5.486709e-02	0.0	1.534900e-01	-5.379978e-02	0.0	1.422900e-01	-5.263443e-02	0.0	1.314400e-01	-5.137134e-02	0.0	1.209500e-01	-5.001187e-02	0.0	1.108500e-01	-4.856067e-02	0.0	1.011300e-01	-4.701715e-02	0.0	9.181000e-02	-4.538527e-02	0.0	8.290000e-02	-4.366791e-02	0.0	7.440000e-02	-4.186608e-02	0.0	6.633000e-02	-3.998514e-02	0.0	5.869000e-02	-3.802636e-02	0.0	5.149000e-02	-3.599338e-02	0.0	4.474000e-02	-3.389028e-02	0.0	3.844000e-02	-3.171811e-02	0.0	3.260000e-02	-2.948109e-02	0.0	2.723000e-02	-2.718420e-02	0.0	2.232000e-02	-2.482329e-02	0.0	1.790000e-02	-2.241365e-02	0.0	1.395000e-02	-1.994492e-02	0.0	1.049000e-02	-1.742916e-02	0.0	7.520000e-03	-1.486756e-02	0.0	5.040000e-03	-1.226032e-02	0.0	3.050000e-03	-9.605565e-03	0.0	1.560000e-03	-6.917518e-03	0.0	5.600000e-04	-4.173160e-03	0.0	6.000000e-05	-1.375330e-03	0.0	0.000000e+00	0.000000e+00	0.0	6.000000e-05	1.373805e-03	0.0	5.600000e-04	4.151271e-03	0.0	1.560000e-03	6.839908e-03	0.0	3.050000e-03	9.426353e-03	0.0	5.040000e-03	1.192444e-02	0.0	7.520000e-03	1.431427e-02	0.0	1.049000e-02	1.659334e-02	0.0	1.395000e-02	1.875885e-02	0.0	1.790000e-02	2.080872e-02	0.0	2.232000e-02	2.273394e-02	0.0	2.723000e-02	2.454509e-02	0.0	3.260000e-02	2.623416e-02	0.0	3.844000e-02	2.780937e-02	0.0	4.474000e-02	2.927324e-02	0.0	5.149000e-02	3.062999e-02	0.0	5.869000e-02	3.188666e-02	0.0	6.633000e-02	3.304892e-02	0.0	7.440000e-02	3.412313e-02	0.0	8.290000e-02	3.511717e-02	0.0	9.181000e-02	3.603654e-02	0.0	1.011300e-01	3.688889e-02	0.0	1.108500e-01	3.768030e-02	0.0	1.209500e-01	3.841566e-02	0.0	1.314400e-01	3.910128e-02	0.0	1.422900e-01	3.973980e-02	0.0	1.534900e-01	4.033435e-02	0.0	1.650400e-01	4.088736e-02	0.0	1.769300e-01	4.139948e-02	0.0	1.891400e-01	4.186983e-02	0.0	2.016600e-01	4.229683e-02	0.0	2.144700e-01	4.267752e-02	0.0	2.275700e-01	4.300856e-02	0.0	2.409400e-01	4.328516e-02	0.0	2.545700e-01	4.350216e-02	0.0	2.684500e-01	4.365385e-02	0.0	2.825500e-01	4.373415e-02	0.0	2.968700e-01	4.373728e-02	0.0	3.114000e-01	4.365745e-02	0.0	3.261100e-01	4.348956e-02	0.0	3.409900e-01	4.322917e-02	0.0	3.560400e-01	4.287238e-02	0.0	3.712300e-01	4.241702e-02	0.0	3.865400e-01	4.186211e-02	0.0	4.019700e-01	4.120719e-02	0.0	4.175000e-01	4.045379e-02	0.0	4.331100e-01	3.960489e-02	0.0	4.487800e-01	3.866478e-02	0.0	4.645100e-01	3.763759e-02	0.0	4.802700e-01	3.653026e-02	0.0	4.960500e-01	3.534914e-02	0.0	5.118400e-01	3.410098e-02	0.0	5.276100e-01	3.279440e-02	0.0	5.433600e-01	3.143561e-02	0.0	5.590600e-01	3.003322e-02	0.0	5.747100e-01	2.859296e-02	0.0	5.902800e-01	2.712300e-02	0.0	6.057600e-01	2.562945e-02	0.0	6.211300e-01	2.411920e-02	0.0	6.363800e-01	2.259818e-02	0.0	6.515000e-01	2.107247e-02	0.0	6.664700e-01	1.954940e-02	0.0	6.812700e-01	1.803661e-02	0.0	6.958900e-01	1.654086e-02	0.0	7.103200e-01	1.506869e-02	0.0	7.245300e-01	1.362793e-02	0.0	7.385200e-01	1.222193e-02	0.0	7.522800e-01	1.085307e-02	0.0	7.657800e-01	9.523197e-03	0.0	7.790100e-01	8.229757e-03	0.0	7.919700e-01	6.967594e-03	0.0	8.046400e-01	5.733556e-03	0.0	8.170100e-01	4.526128e-03	0.0	8.290500e-01	3.351554e-03	0.0	8.407700e-01	2.221123e-03	0.0	8.521600e-01	1.159302e-03	0.0	8.631800e-01	2.045937e-04	0.0	8.738500e-01	-6.011265e-04	0.0	8.841500e-01	-1.209379e-03	0.0	8.940600e-01	-1.577894e-03	0.0	9.035800e-01	-1.680838e-03	0.0	9.127000e-01	-1.515800e-03	0.0	9.214000e-01	-1.110322e-03	0.0	9.296900e-01	-5.194565e-04	0.0	9.375400e-01	1.769016e-04	0.0	9.449600e-01	8.909084e-04	0.0	9.519400e-01	1.535492e-03	0.0	9.584700e-01	2.036851e-03	0.0	9.645400e-01	2.338266e-03	0.0	9.701500e-01	2.391719e-03	0.0	9.752800e-01	2.141192e-03	0.0	9.799500e-01	1.527557e-03	0.0	9.841300e-01	5.908968e-04	0.0	9.878400e-01	-3.745883e-04	0.0	9.910500e-01	-8.501058e-04	0.0	9.937800e-01	-6.225034e-04	0.0	9.960200e-01	-1.137085e-04	0.0	9.977600e-01	1.489719e-04	0.0	9.990000e-01	1.260514e-04	0.0	9.997500e-01	3.599874e-05	0.0	1.000000e+00	0.000000e+00	0.0	1.984229e+01	2.506660e+00	0.0	1.937166e+01	4.973800e+00	0.0	1.859553e+01	7.362490e+00	0.0	1.752613e+01	9.635070e+00	0.0	1.618034e+01	1.175571e+01	0.0	1.457937e+01	1.369094e+01	0.0	1.274848e+01	1.541027e+01	0.0	1.071654e+01	1.688656e+01	0.0	8.515590e+00	1.809654e+01	0.0	6.180340e+00	1.902113e+01	0.0	3.747630e+00	1.964575e+01	0.0	1.255810e+00	1.996053e+01	0.0	-1.255810e+00	1.996053e+01	0.0	-3.747630e+00	1.964574e+01	0.0	-6.180340e+00	1.902113e+01	0.0	-8.515590e+00	1.809654e+01	0.0	-1.071654e+01	1.688656e+01	0.0	-1.274848e+01	1.541026e+01	0.0	-1.457937e+01	1.369094e+01	0.0	-1.618034e+01	1.175570e+01	0.0	-1.752613e+01	9.635070e+00	0.0	-1.859553e+01	7.362490e+00	0.0	-1.937166e+01	4.973800e+00	0.0	-1.984229e+01	2.506660e+00	0.0	-2.000000e+01	0.000000e+00	0.0	-1.984229e+01	-2.506670e+00	0.0	-1.937166e+01	-4.973800e+00	0.0	-1.859553e+01	-7.362490e+00	0.0	-1.752613e+01	-9.635080e+00	0.0	-1.618034e+01	-1.175571e+01	0.0	-1.457937e+01	-1.369094e+01	0.0	-1.274848e+01	-1.541027e+01	0.0	-1.071653e+01	-1.688656e+01	0.0	-8.515580e+00	-1.809654e+01	0.0	-6.180340e+00	-1.902113e+01	0.0	-3.747620e+00	-1.964575e+01	0.0	-1.255810e+00	-1.996053e+01	0.0	1.255810e+00	-1.996053e+01	0.0	3.747630e+00	-1.964574e+01	0.0	6.180340e+00	-1.902113e+01	0.0	8.515590e+00	-1.809654e+01	0.0	1.071654e+01	-1.688656e+01	0.0	1.274848e+01	-1.541026e+01	0.0	1.457937e+01	-1.369094e+01	0.0	1.618034e+01	-1.175570e+01	0.0	1.752614e+01	-9.635070e+00	0.0	1.859553e+01	-7.362490e+00	0.0	1.937166e+01	-4.973790e+00	0.0	1.984229e+01	-2.506660e+00	0.0	2.000000e+01	0.000000e+00	0.0	6.069221e-02	-4.596368e-02	0.0	6.602751e-01	-5.398450e-02	0.0	4.260757e-01	5.419762e-02	0.0	6.897677e-01	3.072052e-02	0.0	3.793115e-01	-7.273369e-02	0.0	9.994663e-01	-6.786954e-04	0.0	9.985675e-01	-1.257090e-03	0.0	7.737546e-01	-4.091435e-02	0.0	6.899093e-01	-5.085350e-02	0.0	-1.359455e-03	6.370852e-03	0.0	7.467556e-01	-4.429481e-02	0.0	5.836877e-01	4.208906e-02	0.0	9.928255e-01	-3.515015e-03	0.0	9.899262e-01	-4.390628e-03	0.0	5.992241e-01	4.053408e-02	0.0	7.187762e-01	-4.761204e-02	0.0	-1.560760e-03	7.572133e-04	0.0	9.865326e-01	-5.338333e-03	0.0	9.826554e-01	-6.346334e-03	0.0	-1.417857e-03	-6.431587e-03	0.0	6.452100e-01	-5.550119e-02	0.0	8.243619e-01	-3.410256e-02	0.0	7.996512e-01	-3.751664e-02	0.0	3.489554e-01	5.674336e-02	0.0	8.477565e-01	-3.071989e-02	0.0	2.477273e-01	5.595130e-02	0.0	8.697738e-01	-2.738000e-02	0.0	1.015697e-02	2.074840e-02	0.0	8.903073e-01	-2.411273e-02	0.0	7.697504e-02	-5.052008e-02	0.0	9.092832e-01	-2.094381e-02	0.0	-1.904213e-03	-3.162507e-03	0.0	9.422380e-01	-1.499671e-02	0.0	9.266194e-01	-1.789583e-02	0.0	1.788978e-02	-2.761784e-02	0.0	4.259458e-01	-7.123462e-02	0.0	8.589464e-01	-2.904043e-02	0.0	9.560945e-01	-1.227457e-02	0.0	9.782885e-01	-7.430402e-03	0.0	9.681320e-01	-9.742213e-03	0.0	1.582621e-01	-6.489844e-02	0.0	8.999970e-01	-2.251478e-02	0.0	7.603878e-01	-4.260983e-02	0.0	9.971567e-01	-1.982485e-03	0.0	5.992037e-01	-5.981365e-02	0.0	4.416512e-01	-7.055753e-02	0.0	5.365170e-01	-6.487764e-02	0.0	4.732251e-01	-6.895873e-02	0.0	5.048835e-01	-6.705663e-02	0.0	4.890430e-01	-6.804337e-02	0.0	1.249242e-01	-6.026974e-02	0.0	2.778915e-02	-3.321636e-02	0.0	3.947638e-01	-7.232662e-02	0.0	4.616669e-02	-4.109172e-02	0.0	4.103099e-01	-7.182660e-02	0.0	3.188650e-01	-7.338129e-02	0.0	3.487842e-01	-7.326308e-02	0.0	3.345378e-02	-3.589999e-02	0.0	2.896358e-01	-7.308118e-02	0.0	9.346474e-01	-1.642447e-02	0.0	1.467943e-01	-6.345925e-02	0.0	1.946752e-01	-6.854301e-02	0.0	8.575189e-02	-5.266486e-02	0.0	1.045507e-01	-5.667416e-02	0.0	5.680017e-01	-6.246046e-02	0.0	1.700746e-01	-6.622870e-02	0.0	6.146660e-01	-5.841602e-02	0.0	8.802345e-01	-2.573684e-02	0.0	2.261186e-02	-3.045383e-02	0.0	9.952414e-01	-2.723770e-03	0.0	6.667127e-03	-1.882744e-02	0.0	1.820575e-02	2.573862e-02	0.0	9.181599e-01	-1.940284e-02	
[...]
POINT_DATA 5233

SCALARS Conservative_1 float 1
LOOKUP_TABLE default
1.144437e+00	1.120952e+00	1.107317e+00	1.096404e+00	1.087247e+00	1.079405e+00	1.072231e+00	1.065677e+00	1.059563e+00	1.053789e+00	1.048283e+00	1.043007e+00	1.037921e+00	1.032994e+00	1.028213e+00	1.023558e+00	1.019018e+00	1.014565e+00	1.010212e+00	1.005926e+00	1.001725e+00	9.975890e-01	9.935166e-01	9.894995e-01	9.855361e-01	9.815963e-01	9.776954e-01	9.738045e-01	9.699280e-01	9.661213e-01	9.623641e-01	9.586728e-01	9.550283e-01	9.514525e-01	9.477418e-01	9.441715e-01	9.404411e-01	9.369014e-01	9.331703e-01	9.292943e-01	9.254401e-01	9.218755e-01	9.200845e-01	9.184979e-01	9.165817e-01	9.149109e-01	9.202714e-01	9.362048e-01	9.422500e-01	8.948967e-01	7.831577e-01	7.171486e-01	7.139752e-01	7.226075e-01	7.274890e-01	7.288943e-01	7.299293e-01	7.319387e-01	7.344994e-01	7.374394e-01	7.406581e-01	7.442136e-01	7.480733e-01	7.522350e-01	7.566984e-01	7.614778e-01	7.665795e-01	7.719032e-01	7.773841e-01	7.830154e-01	7.890083e-01	7.956446e-01	8.030764e-01	8.111396e-01	8.195670e-01	8.282366e-01	8.373212e-01	8.470904e-01	8.575599e-01	8.687380e-01	8.807061e-01	8.934994e-01	9.072569e-01	9.220744e-01	9.381296e-01	9.556772e-01	9.749230e-01	9.961956e-01	1.019957e+00	1.046501e+00	1.076398e+00	1.110166e+00	1.147897e+00	1.189444e+00	1.233755e+00	1.278650e+00	1.316810e+00	1.346653e+00	1.349779e+00	1.336234e+00	1.326960e+00	1.289586e+00	1.210111e+00	1.134660e+00	1.059190e+00	9.888830e-01	9.277209e-01	8.765520e-01	8.344510e-01	8.002476e-01	7.724558e-01	7.498500e-01	7.317611e-01	7.172204e-01	7.056639e-01	6.969968e-01	6.909155e-01	6.869746e-01	6.847363e-01	6.836486e-01	6.831765e-01	6.832366e-01	6.841963e-01	6.862725e-01	6.892193e-01	6.924430e-01	6.955310e-01	6.981931e-01	7.002207e-01	7.016347e-01	7.027415e-01	7.037879e-01	7.047303e-01	7.053252e-01	7.054462e-01	7.053323e-01	7.052543e-01	7.009746e-01	6.895926e-01	6.808278e-01	7.317851e-01	8.609302e-01	9.404878e-01	9.411373e-01	9.223888e-01	9.142187e-01	9.158583e-01	9.214690e-01	9.271642e-01	9.341130e-01	9.408324e-01	9.468726e-01	9.533649e-01	9.598496e-01	9.667067e-01	9.735352e-01	9.801460e-01	9.866311e-01	9.930846e-01	9.994356e-01	1.005689e+00	1.011769e+00	1.017691e+00	1.023385e+00	1.028832e+00	1.033982e+00	1.038884e+00	1.043622e+00	1.048347e+00	1.053345e+00	1.058886e+00	1.065233e+00	1.072598e+00	1.080941e+00	1.090044e+00	1.099293e+00	1.107926e+00	1.115019e+00	1.119588e+00	1.120689e+00	1.117493e+00	1.109405e+00	1.096006e+00	1.077405e+00	1.054160e+00	1.027574e+00	1.000053e+00	9.749541e-01	9.581140e-01	9.601382e-01	9.996967e-01	1.079292e+00	1.155636e+00	1.200306e+00	1.192924e+00	1.118831e+00	1.028207e+00	1.013429e+00	1.085641e+00	1.111576e+00	9.998473e-01	1.000008e+00	1.000050e+00	1.000062e+00	1.000083e+00	1.000106e+00	1.000125e+00	1.000136e+00	1.000144e+00	1.000143e+00	1.000141e+00	1.000142e+00	1.000153e+00	1.000165e+00	1.000173e+00	1.000170e+00	1.000161e+00	1.000150e+00	1.000134e+00	1.000124e+00	1.000113e+00	1.000106e+00	1.000098e+00	1.000095e+00	1.000093e+00	1.000091e+00	1.000092e+00	1.000094e+00	1.000097e+00	1.000100e+00	1.000102e+00	1.000100e+00	1.000093e+00	1.000071e+00	1.000032e+00	9.999618e-01	9.998635e-01	9.997874e-01	9.997396e-01	9.997466e-01	9.997731e-01	9.998160e-01	9.998524e-01	9.998853e-01	9.999111e-01	9.999306e-01	9.999459e-01	9.999753e-01	9.998658e-01	9.997268e-01	9.300986e-01	9.331296e-01	9.210603e-01	1.015691e+00	7.351946e-01	1.124067e+00	1.113306e+00	9.620427e-01	9.405439e-01	1.270559e+00	9.549028e-01	9.723806e-01	1.083269e+00	1.075933e+00	9.788988e-01	9.477357e-01	1.332794e+00	1.069192e+00	1.062995e+00	1.330863e+00	9.292169e-01	9.771551e-01	9.694928e-01	6.905271e-01	9.848835e-01	7.095516e-01	9.927463e-01	9.602318e-01	1.000808e+00	9.007122e-01	1.009135e+00	1.346528e+00	1.026748e+00	1.017763e+00	1.085924e+00	7.301432e-01	9.887981e-01	1.036200e+00	1.057128e+00	1.046256e+00	8.160937e-01	1.004940e+00	9.584059e-01	1.101069e+00	9.211605e-01	7.220041e-01	9.297697e-01	7.315768e-01	9.428282e-01	8.427335e-01	8.431563e-01	1.029910e+00	7.332759e-01	9.645659e-01	7.323201e-01	7.476820e-01	7.407695e-01	1.005937e+00	7.559062e-01	1.022208e+00	8.248126e-01	7.938350e-01	8.875621e-01	8.637667e-01	9.171519e-01	8.078927e-01	9.228552e-01	9.967530e-01	1.056461e+00	1.091576e+00	1.192314e+00	8.662952e-01	1.013413e+00	1.031408e+00	1.051566e+00	1.211276e+00	9.810117e-01	7.706378e-01	9.180202e-01	9.512424e-01	9.657212e-01	8.530723e-01	7.818550e-01	9.196964e-01	9.369190e-01	9.466081e-01	1.231892e+00	1.118458e+00	7.377569e-01	8.004771e-01	1.158548e+00	7.761468e-01	8.752746e-01	7.516411e-01	7.653902e-01	7.148820e-01	9.440586e-01	1.316373e+00	1.305813e+00	9.532213e-01	1.340194e+00	7.994373e-01	7.226674e-01	7.533757e-01	6.907057e-01	9.365368e-01	1.077436e+00	9.470194e-01	9.276341e-01	9.847641e-01	1.001221e+00	1.109995e+00	9.342121e-01	9.186647e-01	9.331261e-01	1.095088e+00	1.110093e+00	6.989978e-01	1.007586e+00	1.021761e+00	1.063919e+00	6.929982e-01	7.121433e-01	7.103210e-01	7.101073e-01	7.010170e-01	7.018531e-01	9.231547e-01	9.565993e-01	6.954677e-01	6.912234e-01	9.915356e-01	7.050543e-01	7.074942e-01	1.003896e+00	9.657331e-01	1.036925e+00	1.026750e+00	1.056724e+00	1.046532e+00	1.084014e+00	1.069064e+00	1.111710e+00	1.099335e+00	1.043528e+00	1.104662e+00	9.861570e-01	1.091875e+00	1.105615e+00	1.062536e+00	1.076263e+00	1.041743e+00	1.051472e+00	1.021310e+00	1.031933e+00	9.977397e-01	1.009858e+00	9.592724e-01	9.852412e-01	7.063518e-01	7.086103e-01	6.982823e-01	7.033325e-01	7.363027e-01	6.929835e-01	9.095698e-01	7.742337e-01	7.877056e-01	1.080981e+00	1.041137e+00	9.732964e-01	7.440589e-01	9.492101e-01	1.147368e+00	8.298306e-01	1.017677e+00	6.954081e-01	7.044006e-01	7.100519e-01	6.914114e-01	1.059081e+00	1.116385e+00	7.099117e-01	1.150871e+00	1.155284e+00	6.891644e-01	7.944031e-01	1.081383e+00	1.135618e+00	1.053207e+00	1.076877e+00	9.251903e-01	9.842554e-01	1.124458e+00	9.410194e-01	1.271156e+00	1.154138e+00	9.148445e-01	8.338170e-01	7.604887e-01	7.210986e-01	1.247661e+00	1.293860e+00	7.652266e-01	9.442094e-01	1.012394e+00	1.185662e+00	9.715858e-01	9.406217e-01	9.655349e-01	1.072444e+00	7.520850e-01	9.882792e-01	9.806014e-01	8.950111e-01	1.310328e+00	7.933851e-01	1.119545e+00	1.039370e+00	8.309267e-01	9.477124e-01	9.333594e-01	7.194069e-01	9.083683e-01	7.393958e-01	1.004119e+00	9.691879e-01	1.030749e+00	8.923380e-01	1.008051e+00	1.078371e+00	7.011422e-01	1.013777e+00	7.044556e-01	1.096619e+00	1.111682e+00	6.939789e-01	9.473031e-01	1.037799e+00	1.100649e+00	1.125283e+00	1.022042e+00	1.047682e+00	7.140438e-01	6.984561e-01	7.128061e-01	7.039925e-01	9.370978e-01	7.998199e-01	9.797944e-01	7.008431e-01	7.583949e-01	1.007234e+00	1.120886e+00	1.102643e+00	8.220276e-01	1.153664e+00	1.085557e+00	1.103507e+00	1.085325e+00	1.196680e+00	1.220284e+00	1.337512e+00	1.331712e+00	1.089456e+00	1.163923e+00	9.380115e-01	1.104139e+00	1.086440e+00	9.289178e-01	9.236422e-01	1.066189e+00	9.960983e-01	9.779034e-01	1.079109e+00	1.331094e+00	7.311519e-01	9.456185e-01	9.844380e-01	7.151924e-01	9.921744e-01	1.000080e+00	9.226588e-01	1.008223e+00	1.016664e+00	1.029936e+00	1.036510e+00	1.034590e+00	1.044308e+00	1.060310e+00	8.499202e-01	9.583320e-01	9.619241e-01	1.094712e+00	7.259396e-01	7.921331e-01	9.093923e-01	1.061945e+00	7.376751e-01	7.356696e-01	7.483923e-01	9.920495e-01	1.020999e+00	1.025427e+00	8.402931e-01	8.824988e-01	9.203120e-01	9.239737e-01	1.049418e+00	1.054741e+00	9.511946e-01	9.548703e-01	8.708792e-01	8.600539e-01	9.216035e-01	9.229402e-01	9.726142e-01	9.546525e-01	1.151613e+00	7.450335e-01	7.419371e-01	8.139384e-01	8.066119e-01	7.872150e-01	7.812749e-01	7.605208e-01	7.561277e-01	7.756073e-01	1.322218e+00	1.254795e+00	7.771116e-01	1.083680e+00	9.534848e-01	9.414951e-01	9.353398e-01	9.294642e-01	1.019142e+00	1.010292e+00	1.092189e+00	9.262283e-01	9.240703e-01	9.546752e-01	1.098773e+00	1.054292e+00	7.306682e-01	7.429781e-01	7.148572e-01	7.149593e-01	7.024003e-01	7.000593e-01	6.999554e-01	1.054369e+00	1.034829e+00	1.029805e+00	1.049371e+00	1.071763e+00	1.102169e+00	1.091221e+00	1.084906e+00	1.065599e+00	1.059781e+00	1.044480e+00	1.039668e+00	1.024654e+00	1.019273e+00	1.002225e+00	9.962270e-01	9.652251e-01	9.590555e-01	9.901823e-01	9.840670e-01	7.114088e-01	7.099604e-01	7.083642e-01	7.065451e-01	9.335498e-01	7.995499e-01	8.260702e-01	9.729684e-01	9.767730e-01	9.508223e-01	9.377350e-01	1.142138e+00	8.567761e-01	7.082276e-01	7.138007e-01	7.123083e-01	7.148465e-01	8.898401e-01	7.466533e-01	1.069536e+00	1.082376e+00	9.264091e-01	9.294863e-01	1.013229e+00	1.286438e+00	7.702565e-01	1.309982e+00	7.440620e-01	7.704960e-01	9.693331e-01	9.298134e-01	1.015763e+00	1.106692e+00	1.092633e+00	1.027750e+00	1.138987e+00	1.109738e+00	1.081922e+00	1.107976e+00	1.096695e+00	1.142616e+00	1.092661e+00	1.303411e+00	9.030946e-01	1.019984e+00	1.075512e+00	9.709998e-01	1.115419e+00	1.209880e+00	9.481238e-01	1.267537e+00	9.516880e-01	1.119988e+00	9.956292e-01	1.179329e+00	7.570445e-01	9.917948e-01	9.447698e-01	1.082374e+00	1.149272e+00	1.047346e+00	9.534932e-01	1.048519e+00	1.006334e+00	1.102151e+00	9.476731e-01	7.200325e-01	7.007150e-01	7.094398e-01	7.498558e-01	1.094768e+00	1.287613e+00	1.226352e+00	9.547905e-01	1.271150e+00	1.042618e+00	9.165499e-01	1.326137e+00	8.374521e-01	7.234324e-01	1.066900e+00	1.042396e+00	1.073193e+00	1.051810e+00	1.011968e+00	1.070900e+00	1.036774e+00	1.094592e+00	1.092472e+00	7.123662e-01	7.201684e-01	7.187641e-01	7.155552e-01	9.377285e-01	9.412575e-01	8.061736e-01	9.972548e-01	7.086186e-01	1.030622e+00	1.093481e+00	1.090185e+00	1.185633e+00	1.239623e+00	1.319645e+00	1.042576e+00	1.130630e+00	1.121195e+00	1.047532e+00	1.069362e+00	9.771062e-01	7.309177e-01	9.383411e-01	9.841661e-01	9.879566e-01	9.995292e-01	1.003482e+00	9.462883e-01	9.309410e-01	1.007492e+00	1.011612e+00	1.033214e+00	1.037847e+00	1.063534e+00	9.622033e-01	9.657373e-01	1.089366e+00	7.555944e-01	8.615781e-01	7.421915e-01	7.382158e-01	1.020359e+00	1.024298e+00	1.028688e+00	8.572944e-01	8.471920e-01	9.233437e-01	9.237121e-01	1.052640e+00	1.057941e+00	9.551470e-01	9.586133e-01	8.904915e-01	8.785303e-01	8.675010e-01	9.245410e-01	9.257732e-01	9.999878e-01	9.808028e-01	9.628409e-01	7.533025e-01	7.498283e-01	7.466850e-01	8.287020e-01	8.207374e-01	8.132661e-01	7.994391e-01	7.930256e-01	7.656410e-01	7.611672e-01	7.869111e-01	8.008680e-01	9.416165e-01	9.361118e-01	1.024586e+00	9.320263e-01	9.292571e-01	9.296342e-01	9.535442e-01	1.088370e+00	7.640409e-01	7.810300e-01	7.203366e-01	7.198901e-01	7.087799e-01	7.101614e-01	7.122140e-01	1.032706e+00	1.092858e+00	1.094836e+00	1.088814e+00	1.084178e+00	1.078902e+00	1.067533e+00	1.062031e+00	1.056827e+00	1.046959e+00	1.042306e+00	1.037439e+00	1.027665e+00	1.022642e+00	1.017314e+00	1.000702e+00	9.649224e-01	9.591979e-01	9.948978e-01	9.890954e-01	9.831095e-01	7.172425e-01	7.154260e-01	7.136547e-01	7.119803e-01	7.106146e-01	8.241180e-01	8.511960e-01	9.729934e-01	9.766888e-01	9.803938e-01	9.401133e-01	9.447912e-01	8.820861e-01	9.163191e-01	7.212692e-01	7.290396e-01	7.383930e-01	7.185135e-01	9.407443e-01	8.320531e-01	7.193201e-01	1.060733e+00	1.071994e+00	1.081407e+00	9.272757e-01	9.305247e-01	9.338430e-01	7.811292e-01	7.756507e-01	1.288540e+00	9.114676e-01	1.094785e+00	1.064848e+00	9.287340e-01	1.281401e+00	1.103753e+00	1.019276e+00	1.023536e+00	1.047332e+00	1.098339e+00	9.481902e-01	1.266969e+00	1.011131e+00	1.197760e+00	1.040407e+00	1.098655e+00	1.207994e+00	1.004642e+00	1.172913e+00	1.117444e+00	1.132153e+00	9.730771e-01	8.454569e-01	1.094362e+00	7.495979e-01	9.250079e-01	7.346807e-01	7.770278e-01	1.079746e+00	9.702715e-01	1.046987e+00	1.055460e+00	1.048928e+00	7.175670e-01	7.259627e-01	1.072209e+00	7.854159e-01	9.955760e-01	1.090641e+00	1.091763e+00	1.090733e+00	1.050726e+00	1.118786e+00	9.487879e-01	1.223907e+00	9.523996e-01	9.556165e-01	1.144960e+00	1.078178e+00	1.171558e+00	1.068642e+00	9.532714e-01	7.212403e-01	1.247657e+00	1.050796e+00	1.010055e+00	1.086762e+00	7.150133e-01	7.246226e-01	7.252824e-01	9.417788e-01	9.455936e-01	1.050596e+00	1.091307e+00	1.133066e+00	1.248346e+00	1.300261e+00	1.070199e+00	1.045856e+00	1.066523e+00	9.767975e-01	9.879935e-01	9.917404e-01	9.994044e-01	1.003236e+00	9.544348e-01	9.392709e-01	1.007117e+00	1.011130e+00	1.015172e+00	1.036527e+00	1.041140e+00	9.658776e-01	9.696546e-01	1.084439e+00	7.468681e-01	8.188194e-01	7.461804e-01	7.405197e-01	1.027740e+00	1.032028e+00	8.655661e-01	8.547037e-01	9.263334e-01	1.055770e+00	1.061047e+00	9.590519e-01	9.630244e-01	8.986888e-01	8.868776e-01	8.761975e-01	9.254203e-01	9.268872e-01	1.026966e+00	1.007156e+00	9.880583e-01	9.704788e-01	7.633797e-01	7.593874e-01	7.559104e-01	7.525203e-01	8.370471e-01	8.289469e-01	8.212109e-01	8.137564e-01	8.068283e-01	7.675008e-01	7.721503e-01	8.001568e-01	9.422321e-01	1.040964e+00	1.037745e+00	9.379173e-01	9.343199e-01	9.326648e-01	9.348266e-01	9.439257e-01	8.041842e-01	8.255338e-01	7.259610e-01	7.253260e-01	7.187629e-01	7.212229e-01	7.248491e-01	7.295888e-01	1.083570e+00	1.086292e+00	1.087669e+00	1.084995e+00	1.081593e+00	1.078019e+00	1.072394e+00	1.063835e+00	1.058111e+00	1.053978e+00	1.044491e+00	1.039653e+00	1.035186e+00	1.030278e+00	1.025533e+00	1.020425e+00	1.015379e+00	9.589085e-01	9.645346e-01	9.991035e-01	9.933907e-01	9.876497e-01	9.818048e-01	7.237630e-01	7.218845e-01	7.196668e-01	7.179701e-01	7.167081e-01	7.166696e-01	8.485939e-01	8.749651e-01	9.767864e-01	9.807415e-01	9.843096e-01	9.157350e-01	9.471219e-01	9.394798e-01	9.053301e-01	9.381631e-01	9.729667e-01	7.360144e-01	7.452561e-01	7.571034e-01	7.702215e-01	9.491326e-01	9.064460e-01	7.898215e-01	7.204429e-01	1.078658e+00	1.064254e+00	1.072189e+00	9.283518e-01	9.317388e-01	9.345335e-01	9.385289e-01	7.939526e-01	7.879522e-01	7.824078e-01	1.140377e+00	1.094722e+00	1.049050e+00	1.107590e+00	1.164030e+00	9.578108e-01	9.203072e-01	1.186886e+00	1.063489e+00	1.230820e+00	1.072408e+00	8.554016e-01	7.297750e-01	1.057903e+00	1.162392e+00	1.254456e+00	1.305665e+00	1.306565e+00	1.295533e+00	1.247958e+00	1.087363e+00	7.282541e-01	1.053803e+00	1.074536e+00	1.026843e+00	9.748335e-01	7.540699e-01	1.092419e+00	1.075895e+00	1.059116e+00	9.663317e-01	9.561639e-01	1.005239e+00	1.043537e+00	9.478818e-01	9.365808e-01	7.270992e-01	1.088713e+00	9.337910e-01	1.097226e+00	1.073286e+00	1.301832e+00	1.126407e+00	1.117604e+00	1.022694e+00	1.052179e+00	1.266186e+00	1.022805e+00	1.209415e+00	1.048894e+00	1.192910e+00	1.112018e+00	1.118093e+00	1.117425e+00	7.781575e-01	7.845988e-01	1.082049e+00	9.757076e-01	1.053358e+00	1.069084e+00	9.511058e-01	1.225710e+00	7.278165e-01	7.303631e-01	7.310737e-01	9.443063e-01	1.092769e+00	1.128079e+00	1.277977e+00	1.095350e+00	9.921700e-01	9.953586e-01	9.993777e-01	1.003025e+00	9.478060e-01	9.631813e-01	1.007095e+00	1.010776e+00	1.014733e+00	1.019156e+00	1.039889e+00	1.044413e+00	9.683479e-01	1.079869e+00	7.471761e-01	7.881667e-01	7.488606e-01	7.471308e-01	1.031397e+00	1.035457e+00	8.736503e-01	8.620224e-01	1.058777e+00	1.063856e+00	9.635236e-01	9.072133e-01	8.946879e-01	8.866262e-01	9.276369e-01	1.032863e+00	1.013736e+00	9.952813e-01	9.790519e-01	7.748545e-01	7.692497e-01	7.664244e-01	7.612627e-01	7.588725e-01	8.450213e-01	8.385013e-01	8.285027e-01	8.226094e-01	8.136813e-01	1.054587e+00	1.048762e+00	1.046959e+00	9.421984e-01	9.382132e-01	9.359338e-01	9.381587e-01	9.424504e-01	8.277106e-01	8.497795e-01	7.321462e-01	7.311536e-01	7.314136e-01	7.390582e-01	7.458787e-01	1.078062e+00	1.080970e+00	1.080268e+00	1.080588e+00	1.077509e+00	1.075933e+00	1.071303e+00	1.065701e+00	1.059328e+00	1.052130e+00	1.034587e+00	1.025287e+00	1.015565e+00	9.941334e-01	9.837521e-01	7.305364e-01	7.280563e-01	7.268950e-01	7.242357e-01	7.246849e-01	7.246242e-01	7.267088e-01	8.734613e-01	8.982647e-01	9.809809e-01	9.845007e-01	9.881106e-01	8.803562e-01	9.398685e-01	9.264682e-01	9.579003e-01	9.894598e-01	7.537600e-01	7.640564e-01	7.774738e-01	7.937561e-01	8.098676e-01	9.470753e-01	9.352092e-01	8.668091e-01	7.666710e-01	1.065061e+00	1.070349e+00	9.301602e-01	9.373709e-01	8.084445e-01	8.004063e-01	7.958300e-01	7.886284e-01	1.109512e+00	1.088256e+00	1.176198e+00	1.269861e+00	1.124482e+00	1.056526e+00	1.081689e+00	1.206461e+00	1.052862e+00	1.090077e+00	1.066203e+00	1.257992e+00	1.074294e+00	1.155936e+00	7.500240e-01	1.111625e+00	1.093111e+00	1.178879e+00	1.135275e+00	1.051962e+00	9.403824e-01	1.076267e+00	7.881488e-01	1.030351e+00	1.024191e+00	9.353007e-01	9.289207e-01	8.591060e-01	1.229604e+00	7.571594e-01	9.575769e-01	9.435488e-01	7.493267e-01	1.063245e+00	1.070344e+00	1.231795e+00	1.062835e+00	1.047525e+00	1.102275e+00	1.069836e+00	1.303181e+00	1.245179e+00	1.071160e+00	9.626948e-01	9.538816e-01	9.434631e-01	1.085890e+00	1.111226e+00	1.093366e+00	1.281780e+00	1.120954e+00	1.056226e+00	1.213963e+00	1.195704e+00	9.730650e-01	1.094499e+00	1.053934e+00	1.056875e+00	9.637165e-01	7.353242e-01	7.363376e-01	9.566029e-01	1.123098e+00	1.152140e+00	1.115571e+00	9.974688e-01	1.004629e+00	9.714990e-01	1.012252e+00	1.018847e+00	1.043116e+00	1.076139e+00	7.678911e-01	1.034910e+00	1.038848e+00	8.764290e-01	1.061289e+00	9.681182e-01	9.736238e-01	9.105321e-01	8.948163e-01	9.324314e-01	1.038100e+00	1.018900e+00	1.001369e+00	9.892612e-01	7.785816e-01	7.700056e-01	7.634247e-01	8.418306e-01	8.259020e-01	1.057647e+00	1.054010e+00	9.403932e-01	9.479643e-01	8.730658e-01	7.366830e-01	7.636833e-01	1.053739e+00	1.074251e+00	1.074106e+00	1.070769e+00	1.065252e+00	1.059918e+00	1.046339e+00	1.038024e+00	1.029286e+00	1.020175e+00	1.010579e+00	1.000181e+00	9.898981e-01	9.811989e-01	7.340914e-01	7.323063e-01	7.341944e-01	7.348855e-01	7.418836e-01	8.973378e-01	9.210600e-01	9.800248e-01	9.862448e-01	9.921297e-01	8.362833e-01	9.173077e-01	9.461278e-01	9.746550e-01	1.003889e+00	1.032659e+00	7.744724e-01	7.851755e-01	7.990085e-01	8.165999e-01	8.367943e-01	8.493317e-01	9.234125e-01	8.267498e-01	1.060662e+00	1.064615e+00	9.291041e-01	9.431626e-01	9.499633e-01	8.117067e-01	7.991889e-01	1.088545e+00	1.110747e+00	1.106179e+00	1.092408e+00	1.016706e+00	1.080916e+00	1.108741e+00	1.086424e+00	1.182907e+00	1.130421e+00	1.095129e+00	1.080408e+00	1.118493e+00	1.211365e+00	1.238499e+00	1.059468e+00	9.674561e-01	7.974716e-01	1.091826e+00	1.017257e+00	1.093560e+00	8.843406e-01	1.093123e+00	1.166062e+00	7.689166e-01	1.034007e+00	9.411488e-01	9.359103e-01	1.054581e+00	1.058910e+00	1.075742e+00	1.060081e+00	1.105795e+00	1.072332e+00	1.076548e+00	1.056082e+00	7.418088e-01	9.784374e-01	9.553910e-01	9.789531e-01	1.092474e+00	1.095401e+00	1.282599e+00	1.050311e+00	1.057069e+00	1.118424e+00	1.063420e+00	1.189599e+00	1.148094e+00	9.301958e-01	1.225907e+00	9.683964e-01	9.517123e-01	1.067668e+00	1.248264e+00	1.046138e+00	1.067878e+00	9.616457e-01	1.260269e+00	1.120407e+00	9.955423e-01	1.212592e+00	1.198460e+00	9.608363e-01	1.112270e+00	1.056622e+00	9.703594e-01	7.500691e-01	9.867472e-01	1.143043e+00	1.166301e+00	1.002804e+00	1.010104e+00	1.023141e+00	1.028680e+00	1.072703e+00	7.709681e-01	1.038073e+00	1.041975e+00	7.755549e-01	9.851824e-01	9.911946e-01	9.729030e-01	9.353234e-01	9.179722e-01	9.005428e-01	1.041422e+00	7.935970e-01	7.839570e-01	8.826527e-01	8.644967e-01	9.487576e-01	1.063201e+00	9.499040e-01	9.427260e-01	7.809315e-01	1.067588e+00	1.068946e+00	1.054247e+00	1.067477e+00	1.063901e+00	1.059296e+00	1.048148e+00	1.040800e+00	1.032719e+00	1.024210e+00	1.015283e+00	1.005690e+00	9.958395e-01	7.424396e-01	7.419945e-01	7.416424e-01	7.446123e-01	7.508913e-01	7.652355e-01	9.184829e-01	9.422599e-01	9.788278e-01	9.967084e-01	8.072931e-01	8.826505e-01	9.645177e-01	9.891693e-01	1.015826e+00	1.041301e+00	1.067059e+00	7.972093e-01	8.104578e-01	8.228155e-01	8.387644e-01	8.592129e-01	9.452331e-01	9.411202e-01	8.880512e-01	1.059662e+00	1.063766e+00	9.310768e-01	9.338208e-01	8.469745e-01	8.310091e-01	8.169159e-01	8.044954e-01	1.095370e+00	1.098776e+00	1.094976e+00	1.092228e+00	1.174343e+00	1.091751e+00	1.134529e+00	1.037074e+00	1.117567e+00	1.076945e+00	1.075621e+00	1.048580e+00	1.102480e+00	1.060017e+00	7.483828e-01	1.088430e+00	1.091408e+00	1.124711e+00	1.105101e+00	1.092849e+00	9.070652e-01	1.019010e+00	1.021709e+00	9.724189e-01	1.083750e+00	1.091538e+00	1.091173e+00	1.116294e+00	1.170703e+00	9.761129e-01	9.