# vtk DataFile Version 3.0
vtk output
ASCII
DATASET UNSTRUCTURED_GRID
POINTS 200 float
9.997500e-01	-3.632897e-05	0.0	9.990000e-01	-1.452538e-04	0.0	9.977600e-01	-3.251112e-04	0.0	9.960200e-01	-5.769984e-04	0.0	9.937800e-01	-9.004365e-04	0.0	9.910500e-01	-1.293364e-03	0.0	9.878400e-01	-1.753610e-03	0.0	9.841300e-01	-2.283177e-03	0.0	9.799500e-01	-2.876826e-03	0.0	9.752800e-01	-3.536324e-03	0.0	9.701500e-01	-4.256269e-03	0.0	9.645400e-01	-5.038225e-03	0.0	9.584700e-01	-5.878077e-03	0.0	9.519400e-01	-6.774429e-03	0.0	9.449600e-01	-7.724467e-03	0.0	9.375400e-01	-8.725349e-03	0.0	9.296900e-01	-9.774221e-03	0.0	9.214000e-01	-1.087086e-02	0.0	9.127000e-01	-1.200973e-02	0.0	9.035800e-01	-1.319056e-02	0.0	8.940600e-01	-1.440916e-02	0.0	8.841500e-01	-1.566269e-02	0.0	8.738500e-01	-1.694956e-02	0.0	8.631800e-01	-1.826569e-02	0.0	8.521600e-01	-1.960709e-02	0.0	8.407700e-01	-2.097463e-02	0.0	8.290500e-01	-2.236196e-02	0.0	8.170100e-01	-2.376642e-02	0.0	8.046400e-01	-2.518764e-02	0.0	7.919700e-01	-2.662063e-02	0.0	7.790100e-01	-2.806277e-02	0.0	7.657800e-01	-2.951034e-02	0.0	7.522800e-01	-3.096181e-02	0.0	7.385200e-01	-3.241453e-02	0.0	7.245300e-01	-3.386377e-02	0.0	7.103200e-01	-3.530689e-02	0.0	6.958900e-01	-3.674225e-02	0.0	6.812700e-01	-3.816515e-02	0.0	6.664700e-01	-3.957289e-02	0.0	6.515000e-01	-4.096270e-02	0.0	6.363800e-01	-4.233084e-02	0.0	6.211300e-01	-4.367359e-02	0.0	6.057600e-01	-4.498807e-02	0.0	5.902800e-01	-4.627133e-02	0.0	5.747100e-01	-4.751951e-02	0.0	5.590600e-01	-4.872956e-02	0.0	5.433600e-01	-4.989684e-02	0.0	5.276100e-01	-5.101898e-02	0.0	5.118400e-01	-5.209138e-02	0.0	4.960500e-01	-5.311154e-02	0.0	4.802700e-01	-5.407492e-02	0.0	4.645100e-01	-5.497836e-02	0.0	4.487800e-01	-5.581860e-02	0.0	4.331100e-01	-5.659142e-02	0.0	4.175000e-01	-5.729417e-02	0.0	4.019700e-01	-5.792324e-02	0.0	3.865400e-01	-5.847521e-02	0.0	3.712300e-01	-5.894684e-02	0.0	3.560400e-01	-5.933562e-02	0.0	3.409900e-01	-5.963848e-02	0.0	3.261100e-01	-5.985254e-02	0.0	3.114000e-01	-5.997565e-02	0.0	2.968700e-01	-6.000550e-02	0.0	2.825500e-01	-5.994005e-02	0.0	2.684500e-01	-5.977766e-02	0.0	2.545700e-01	-5.951658e-02	0.0	2.409400e-01	-5.915586e-02	0.0	2.275700e-01	-5.869457e-02	0.0	2.144700e-01	-5.813197e-02	0.0	2.016600e-01	-5.746811e-02	0.0	1.891400e-01	-5.670228e-02	0.0	1.769300e-01	-5.583514e-02	0.0	1.650400e-01	-5.486709e-02	0.0	1.534900e-01	-5.379978e-02	0.0	1.422900e-01	-5.263443e-02	0.0	1.314400e-01	-5.137134e-02	0.0	1.209500e-01	-5.001187e-02	0.0	1.108500e-01	-4.856067e-02	0.0	1.011300e-01	-4.701715e-02	0.0	9.181000e-02	-4.538527e-02	0.0	8.290000e-02	-4.366791e-02	0.0	7.440000e-02	-4.186608e-02	0.0	6.633000e-02	-3.998514e-02	0.0	5.869000e-02	-3.802636e-02	0.0	5.149000e-02	-3.599338e-02	0.0	4.474000e-02	-3.389028e-02	0.0	3.844000e-02	-3.171811e-02	0.0	3.260000e-02	-2.948109e-02	0.0	2.723000e-02	-2.718420e-02	0.0	2.232000e-02	-2.482329e-02	0.0	1.790000e-02	-2.241365e-02	0.0	1.395000e-02	-1.994492e-02	0.0	1.049000e-02	-1.742916e-02	0.0	7.520000e-03	-1.486756e-02	0.0	5.040000e-03	-1.226032e-02	0.0	3.050000e-03	-9.605565e-03	0.0	1.560000e-03	-6.917518e-03	0.0	5.600000e-04	-4.173160e-03	0.0	6.000000e-05	-1.375330e-03	0.0	0.000000e+00	0.000000e+00	0.0	6.000000e-05	1.373805e-03	0.0	5.600000e-04	4.151271e-03	0.0	1.560000e-03	6.839908e-03	0.0	3.050000e-03	9.426353e-03	0.0	5.040000e-03	1.192444e-02	0.0	7.520000e-03	1.431427e-02	0.0	1.049000e-02	1.659334e-02	0.0	1.395000e-02	1.875885e-02	0.0	1.790000e-02	2.080872e-02	0.0	2.232000e-02	2.273394e-02	0.0	2.723000e-02	2.454509e-02	0.0	3.260000e-02	2.623416e-02	0.0	3.844000e-02	2.780937e-02	0.0	4.474000e-02	2.927324e-02	0.0	5.149000e-02	3.062999e-02	0.0	5.869000e-02	3.188666e-02	0.0	6.633000e-02	3.304892e-02	0.0	7.440000e-02	3.412313e-02	0.0	8.290000e-02	3.511717e-02	0.0	9.181000e-02	3.603654e-02	0.0	1.011300e-01	3.688889e-02	0.0	1.108500e-01	3.768030e-02	0.0	1.209500e-01	3.841566e-02	0.0	1.314400e-01	3.910128e-02	0.0	1.422900e-01	3.973980e-02	0.0	1.534900e-01	4.033435e-02	0.0	1.650400e-01	4.088736e-02	0.0	1.769300e-01	4.139948e-02	0.0	1.891400e-01	4.186983e-02	0.0	2.016600e-01	4.229683e-02	0.0	2.144700e-01	4.267752e-02	0.0	2.275700e-01	4.300856e-02	0.0	2.409400e-01	4.328516e-02	0.0	2.545700e-01	4.350216e-02	0.0	2.684500e-01	4.365385e-02	0.0	2.825500e-01	4.373415e-02	0.0	2.968700e-01	4.373728e-02	0.0	3.114000e-01	4.365745e-02	0.0	3.261100e-01	4.348956e-02	0.0	3.409900e-01	4.322917e-02	0.0	3.560400e-01	4.287238e-02	0.0	3.712300e-01	4.241702e-02	0.0	3.865400e-01	4.186211e-02	0.0	4.019700e-01	4.120719e-02	0.0	4.175000e-01	4.045379e-02	0.0	4.331100e-01	3.960489e-02	0.0	4.487800e-01	3.866478e-02	0.0	4.645100e-01	3.763759e-02	0.0	4.802700e-01	3.653026e-02	0.0	4.960500e-01	3.534914e-02	0.0	5.118400e-01	3.410098e-02	0.0	5.276100e-01	3.279440e-02	0.0	5.433600e-01	3.143561e-02	0.0	5.590600e-01	3.003322e-02	0.0	5.747100e-01	2.859296e-02	0.0	5.902800e-01	2.712300e-02	0.0	6.057600e-01	2.562945e-02	0.0	6.211300e-01	2.411920e-02	0.0	6.363800e-01	2.259818e-02	0.0	6.515000e-01	2.107247e-02	0.0	6.664700e-01	1.954940e-02	0.0	6.812700e-01	1.803661e-02	0.0	6.958900e-01	1.654086e-02	0.0	7.103200e-01	1.506869e-02	0.0	7.245300e-01	1.362793e-02	0.0	7.385200e-01	1.222193e-02	0.0	7.522800e-01	1.085307e-02	0.0	7.657800e-01	9.523197e-03	0.0	7.790100e-01	8.229757e-03	0.0	7.919700e-01	6.967594e-03	0.0	8.046400e-01	5.733556e-03	0.0	8.170100e-01	4.526128e-03	0.0	8.290500e-01	3.351554e-03	0.0	8.407700e-01	2.221123e-03	0.0	8.521600e-01	1.159302e-03	0.0	8.631800e-01	2.045937e-04	0.0	8.738500e-01	-6.011265e-04	0.0	8.841500e-01	-1.209379e-03	0.0	8.940600e-01	-1.577894e-03	0.0	9.035800e-01	-1.680838e-03	0.0	9.127000e-01	-1.515800e-03	0.0	9.214000e-01	-1.110322e-03	0.0	9.296900e-01	-5.194565e-04	0.0	9.375400e-01	1.769016e-04	0.0	9.449600e-01	8.909084e-04	0.0	9.519400e-01	1.535492e-03	0.0	9.584700e-01	2.036851e-03	0.0	9.645400e-01	2.338266e-03	0.0	9.701500e-01	2.391719e-03	0.0	9.752800e-01	2.141192e-03	0.0	9.799500e-01	1.527557e-03	0.0	9.841300e-01	5.908968e-04	0.0	9.878400e-01	-3.745883e-04	0.0	9.910500e-01	-8.501058e-04	0.0	9.937800e-01	-6.225034e-04	0.0	9.960200e-01	-1.137085e-04	0.0	9.977600e-01	1.489719e-04	0.0	9.990000e-01	1.260514e-04	0.0	9.997500e-01	3.599874e-05	0.0	1.000000e+00	0.000000e+00	0.0	
CELLS 200	600
2	149	150	2	150	151	2	151	152	2	152	153	2	153	154	2	154	155	2	155	156	2	156	157	2	157	158	2	158	159	2	159	160	2	160	161	2	161	162	2	162	163	2	163	164	2	164	165	2	165	166	2	166	167	2	167	168	2	168	169	2	169	170	2	170	171	2	171	172	2	172	173	2	173	174	2	174	175	2	175	176	2	176	177	2	177	178	2	178	179	2	179	180	2	180	181	2	181	182	2	31	32	2	32	33	2	33	34	2	34	35	2	35	36	2	36	37	2	37	38	2	38	39	2	39	40	2	40	41	2	41	42	2	42	43	2	43	44	2	44	45	2	45	46	2	46	47	2	47	48	2	48	49	2	49	50	2	50	51	2	51	52	2	52	53	2	53	54	2	54	55	2	55	56	2	56	57	2	57	58	2	58	59	2	59	60	2	60	61	2	61	62	2	62	63	2	63	64	2	64	65	2	65	66	2	66	67	2	67	68	2	68	69	2	69	70	2	70	71	2	71	72	2	72	73	2	73	74	2	74	75	2	75	76	2	76	77	2	77	78	2	78	79	2	79	80	2	80	81	2	81	82	2	82	83	2	83	84	2	113	114	2	114	115	2	115	116	2	116	117	2	117	118	2	118	119	2	119	120	2	120	121	2	121	122	2	122	123	2	123	124	2	124	125	2	125	126	2	126	127	2	127	128	2	128	129	2	129	130	2	130	131	2	131	132	2	132	133	2	133	134	2	134	135	2	135	136	2	136	137	2	137	138	2	138	139	2	139	140	2	140	141	2	141	142	2	142	143	2	143	144	2	144	145	2	145	146	2	146	147	2	147	148	2	148	149	2	84	85	2	85	86	2	86	87	2	87	88	2	88	89	2	89	90	2	90	91	2	91	92	2	92	93	2	93	94	2	94	95	2	95	96	2	96	97	2	97	98	2	98	99	2	99	100	2	100	101	2	101	102	2	102	103	2	103	104	2	104	105	2	105	106	2	106	107	2	107	108	2	108	109	2	109	110	2	110	111	2	111	112	2	112	113	2	199	0	2	0	1	2	1	2	2	2	3	2	3	4	2	4	5	2	5	6	2	6	7	2	182	183	2	183	184	2	184	185	2	185	186	2	186	187	2	187	188	2	188	189	2	189	190	2	190	191	2	191	192	2	192	193	2	193	194	2	194	195	2	195	196	2	196	197	2	197	198	2	198	199	2	7	8	2	8	9	2	9	10	2	10	11	2	11	12	2	12	13	2	13	14	2	14	15	2	15	16	2	16	17	2	17	18	2	18	19	2	19	20	2	20	21	2	21	22	2	22	23	2	23	24	2	24	25	2	25	26	2	26	27	2	27	28	2	28	29	2	29	30	2	30	31	
CELL_TYPES 200
3	3	3	3	3	3	3	3	3	3	3	3	3	3	3	3	3	3	3	3	3	3	3	3	3	3	3	3	3	3	3	3	3	3	3	3	3	3	3	3	3	3	3	3	3	3	3	3	3	3	3	3	3	3	3	3	3	3	3	3	3	3	3	3	3	3	3	3	3	3	3	3	3	3	3	3	3	3	3	3	3	3	3	3	3	3	3	3	3	3	3	3	3	3	3	3	3	3	3	3	3	3	3	3	3	3	3	3	3	3	3	3	3	3	3	3	3	3	3	3	3	3	3	3	3	3	3	3	3	3	3	3	3	3	3	3	3	3	3	3	3	3	3	3	3	3	3	3	3	3	3	3	3	3	3	3	3	3	3	3	3	3	3	3	3	3	3	3	3	3	3	3	3	3	3	3	3	3	3	3	3	3	3	3	3	3	3	3	3	3	3	3	3	3	3	3	3	3	3	3	
POINT_DATA 200

SCALARS Conservative_1 float 1
LOOKUP_TABLE default
1.144437e+00	1.120952e+00	1.107317e+00	1.096404e+00	1.087247e+00	1.079405e+00	1.072231e+00	1.065677e+00	1.059563e+00	1.053789e+00	1.048283e+00	1.043007e+00	1.037921e+00	1.032994e+00	1.028213e+00	1.023558e+00	1.019018e+00	1.014565e+00	1.010212e+00	1.005926e+00	1.001725e+00	9.975890e-01	9.935166e-01	9.894995e-01	9.855361e-01	9.815963e-01	9.776954e-01	9.738045e-01	9.699280e-01	9.661213e-01	9.623641e-01	9.586728e-01	9.550283e-01	9.514525e-01	9.477418e-01	9.441715e-01	9.404411e-01	9.369014e-01	9.331703e-01	9.292943e-01	9.254401e-01	9.218755e-01	9.200845e-01	9.184979e-01	9.165817e-01	9.149109e-01	9.202714e-01	9.362048e-01	9.422500e-01	8.948967e-01	7.831577e-01	7.171486e-01	7.139752e-01	7.226075e-01	7.274890e-01	7.288943e-01	7.299293e-01	7.319387e-01	7.344994e-01	7.374394e-01	7.406581e-01	7.442136e-01	7.480733e-01	7.522350e-01	7.566984e-01	7.614778e-01	7.665795e-01	7.719032e-01	7.773841e-01	7.830154e-01	7.890083e-01	7.956446e-01	8.030764e-01	8.111396e-01	8.195670e-01	8.282366e-01	8.373212e-01	8.470904e-01	8.575599e-01	8.687380e-01	8.807061e-01	8.934994e-01	9.072569e-01	9.220744e-01	9.381296e-01	9.556772e-01	9.749230e-01	9.961956e-01	1.019957e+00	1.046501e+00	1.076398e+00	1.110166e+00	1.147897e+00	1.189444e+00	1.233755e+00	1.278650e+00	1.316810e+00	1.346653e+00	1.349779e+00	1.336234e+00	1.326960e+00	1.289586e+00	1.210111e+00	1.134660e+00	1.059190e+00	9.888830e-01	9.277209e-01	8.765520e-01	8.344510e-01	8.002476e-01	7.724558e-01	7.498500e-01	7.317611e-01	7.172204e-01	7.056639e-01	6.969968e-01	6.909155e-01	6.869746e-01	6.847363e-01	6.836486e-01	6.831765e-01	6.832366e-01	6.841963e-01	6.862725e-01	6.892193e-01	6.924430e-01	6.955310e-01	6.981931e-01	7.002207e-01	7.016347e-01	7.027415e-01	7.037879e-01	7.047303e-01	7.053252e-01	7.054462e-01	7.053323e-01	7.052543e-01	7.009746e-01	6.895926e-01	6.808278e-01	7.317851e-01	8.609302e-01	9.404878e-01	9.411373e-01	9.223888e-01	9.142187e-01	9.158583e-01	9.214690e-01	9.271642e-01	9.341130e-01	9.408324e-01	9.468726e-01	9.533649e-01	9.598496e-01	9.667067e-01	9.735352e-01	9.801460e-01	9.866311e-01	9.930846e-01	9.994356e-01	1.005689e+00	1.011769e+00	1.017691e+00	1.023385e+00	1.028832e+00	1.033982e+00	1.038884e+00	1.043622e+00	1.048347e+00	1.053345e+00	1.058886e+00	1.065233e+00	1.072598e+00	1.080941e+00	1.090044e+00	1.099293e+00	1.107926e+00	1.115019e+00	1.119588e+00	1.120689e+00	1.117493e+00	1.109405e+00	1.096006e+00	1.077405e+00	1.054160e+00	1.027574e+00	1.000053e+00	9.749541e-01	9.581140e-01	9.601382e-01	9.996967e-01	1.079292e+00	1.155636e+00	1.200306e+00	1.192924e+00	1.118831e+00	1.028207e+00	1.013429e+00	1.085641e+00	1.111576e+00	
SCALARS Conservative_2 float 1
LOOKUP_TABLE default
7.933254e-01	8.111422e-01	8.288259e-01	8.420538e-01	8.519700e-01	8.603104e-01	8.672611e-01	8.734549e-01	8.790199e-01	8.841312e-01	8.888044e-01	8.931738e-01	8.972412e-01	9.010733e-01	9.046933e-01	9.081220e-01	9.113663e-01	9.144675e-01	9.174189e-01	9.202404e-01	9.229369e-01	9.255192e-01	9.279819e-01	9.303601e-01	9.326381e-01	9.348287e-01	9.369409e-01	9.389727e-01	9.409434e-01	9.428187e-01	9.446542e-01	9.464082e-01	9.481139e-01	9.496664e-01	9.512754e-01	9.526927e-01	9.541437e-01	9.555098e-01	9.568032e-01	9.581503e-01	9.592633e-01	9.603786e-01	9.609653e-01	9.619067e-01	9.624988e-01	9.624909e-01	9.609605e-01	9.574818e-01	9.545666e-01	9.577187e-01	9.642488e-01	9.475707e-01	9.510236e-01	9.543127e-01	9.560036e-01	9.571248e-01	9.577623e-01	9.586175e-01	9.596658e-01	9.607740e-01	9.619509e-01	9.631776e-01	9.644224e-01	9.656799e-01	9.669116e-01	9.681169e-01	9.692791e-01	9.703626e-01	9.713113e-01	9.721086e-01	9.727513e-01	9.732656e-01	9.736009e-01	9.736843e-01	9.734295e-01	9.727212e-01	9.715597e-01	9.699011e-01	9.674729e-01	9.641582e-01	9.598784e-01	9.543528e-01	9.473466e-01	9.384848e-01	9.272873e-01	9.131093e-01	8.951020e-01	8.723273e-01	8.433587e-01	8.062738e-01	7.587935e-01	6.981556e-01	6.207921e-01	5.243788e-01	4.078892e-01	2.767293e-01	1.476800e-01	4.252119e-02	-3.093009e-03	6.088986e-03	4.224840e-02	1.347560e-01	2.900771e-01	4.524730e-01	5.956122e-01	7.075156e-01	7.881079e-01	8.436702e-01	8.802194e-01	9.034511e-01	9.176510e-01	9.257341e-01	9.302208e-01	9.324130e-01	9.331990e-01	9.334558e-01	9.335858e-01	9.337896e-01	9.342145e-01	9.347761e-01	9.353271e-01	9.360108e-01	9.370177e-01	9.383149e-01	9.399348e-01	9.415884e-01	9.430764e-01	9.442702e-01	9.451883e-01	9.458606e-01	9.464508e-01	9.470206e-01	9.475251e-01	9.478670e-01	9.478887e-01	9.477761e-01	9.472708e-01	9.447083e-01	9.418552e-01	9.305509e-01	9.490420e-01	9.462119e-01	9.426554e-01	9.470857e-01	9.514024e-01	9.536247e-01	9.536264e-01	9.523652e-01	9.512128e-01	9.490570e-01	9.464520e-01	9.439756e-01	9.412434e-01	9.384115e-01	9.353438e-01	9.320912e-01	9.286972e-01	9.251453e-01	9.214907e-01	9.176703e-01	9.137803e-01	9.098079e-01	9.058450e-01	9.018926e-01	8.980262e-01	8.942202e-01	8.904868e-01	8.867514e-01	8.827779e-01	8.784590e-01	8.734097e-01	8.672975e-01	8.600122e-01	8.514206e-01	8.418655e-01	8.318784e-01	8.224559e-01	8.147435e-01	8.100660e-01	8.095760e-01	8.141225e-01	8.241345e-01	8.392676e-01	8.585226e-01	8.802467e-01	9.023092e-01	9.227393e-01	9.393865e-01	9.481405e-01	9.361584e-01	8.870435e-01	7.938114e-01	7.024966e-01	6.723314e-01	7.210257e-01	8.301877e-01	8.928362e-01	8.540130e-01	7.701640e-01	7.048111e-01	
SCALARS Conservative_3 float 1
LOOKUP_TABLE default
1.106921e-01	1.160084e-01	1.193001e-01	1.211116e-01	1.225740e-01	1.234365e-01	1.239682e-01	1.242908e-01	1.244358e-01	1.244343e-01	1.242794e-01	1.240172e-01	1.236220e-01	1.231430e-01	1.225486e-01	1.218901e-01	1.211393e-01	1.203220e-01	1.194198e-01	1.184597e-01	1.174310e-01	1.163439e-01	1.151962e-01	1.140013e-01	1.127477e-01	1.114562e-01	1.101060e-01	1.087137e-01	1.072800e-01	1.057889e-01	1.042503e-01	1.026592e-01	1.010396e-01	9.929796e-02	9.758897e-02	9.572234e-02	9.384202e-02	9.183957e-02	8.979112e-02	8.776026e-02	8.559554e-02	8.356059e-02	8.079790e-02	7.840274e-02	7.623768e-02	7.414298e-02	7.075359e-02	6.489103e-02	5.871689e-02	5.307190e-02	6.655174e-02	5.445596e-02	4.869385e-02	4.417545e-02	4.062724e-02	3.670275e-02	3.214997e-02	2.724919e-02	2.214481e-02	1.677671e-02	1.115257e-02	5.216636e-03	-1.006933e-03	-7.561212e-03	-1.444474e-02	-2.171082e-02	-2.935552e-02	-3.738843e-02	-4.581216e-02	-5.466826e-02	-6.400388e-02	-7.389556e-02	-8.436616e-02	-9.542330e-02	-1.070754e-01	-1.194004e-01	-1.324946e-01	-1.464311e-01	-1.612463e-01	-1.770686e-01	-1.939957e-01	-2.121329e-01	-2.316267e-01	-2.526074e-01	-2.751902e-01	-2.995115e-01	-3.256605e-01	-3.536545e-01	-3.832126e-01	-4.138235e-01	-4.443546e-01	-4.723353e-01	-4.935914e-01	-5.011368e-01	-4.835812e-01	-4.269932e-01	-3.195606e-01	-1.566476e-01	3.614602e-02	1.799757e-01	3.209078e-01	5.005375e-01	6.246907e-01	6.725457e-01	6.619161e-01	6.148557e-01	5.510928e-01	4.837951e-01	4.201030e-01	3.626331e-01	3.124026e-01	2.689925e-01	2.318979e-01	2.003536e-01	1.735759e-01	1.508620e-01	1.316646e-01	1.154278e-01	1.017032e-01	9.008241e-02	8.012811e-02	7.153921e-02	6.410582e-02	5.769711e-02	5.218943e-02	4.730457e-02	4.283086e-02	3.856928e-02	3.440678e-02	3.022607e-02	2.598988e-02	2.169458e-02	1.730806e-02	1.275362e-02	7.975660e-03	2.833344e-03	-2.097171e-03	-6.732524e-03	-1.255410e-02	-1.868477e-02	-3.676550e-02	-2.736235e-02	-3.138437e-02	-4.037955e-02	-4.911335e-02	-5.603112e-02	-6.088111e-02	-6.497272e-02	-6.954266e-02	-7.292405e-02	-7.636420e-02	-7.985554e-02	-8.266930e-02	-8.527128e-02	-8.732843e-02	-8.903210e-02	-9.046768e-02	-9.161714e-02	-9.246237e-02	-9.299740e-02	-9.317691e-02	-9.306416e-02	-9.255457e-02	-9.175577e-02	-9.066126e-02	-8.943004e-02	-8.816437e-02	-8.702737e-02	-8.614252e-02	-8.555148e-02	-8.513404e-02	-8.459474e-02	-8.336036e-02	-8.066724e-02	-7.560810e-02	-6.732978e-02	-5.522999e-02	-3.914099e-02	-1.942007e-02	2.926982e-03	2.627312e-02	4.852316e-02	6.712686e-02	7.948464e-02	8.325173e-02	7.665089e-02	5.866582e-02	2.831028e-02	-1.686503e-02	-7.989102e-02	-1.524407e-01	-1.892150e-01	-1.456072e-01	-2.984272e-02	1.042673e-01	1.584455e-01	6.956830e-02	-4.767226e-02	-9.225097e-02	1.710426e-02	
SCALARS Conservative_4 float 1
LOOKUP_TABLE default
3.306557e+00	3.246245e+00	3.212697e+00	3.185736e+00	3.162978e+00	3.143501e+00	3.125570e+00	3.109176e+00	3.093873e+00	3.079413e+00	3.065586e+00	3.052341e+00	3.039543e+00	3.027140e+00	3.015090e+00	3.003350e+00	2.991887e+00	2.980633e+00	2.969620e+00	2.958766e+00	2.948125e+00	2.937634e+00	2.927296e+00	2.917093e+00	2.907014e+00	2.896985e+00	2.887042e+00	2.877112e+00	2.867210e+00	2.857473e+00	2.847887e+00	2.838466e+00	2.829165e+00	2.819986e+00	2.810499e+00	2.801261e+00	2.791659e+00	2.782523e+00	2.772837e+00	2.762807e+00	2.752707e+00	2.743549e+00	2.738799e+00	2.735028e+00	2.730077e+00	2.725546e+00	2.739406e+00	2.780910e+00	2.796426e+00	2.670678e+00	2.378708e+00	2.201539e+00	2.194561e+00	2.218259e+00	2.231332e+00	2.235251e+00	2.238114e+00	2.243555e+00	2.250496e+00	2.258435e+00	2.267142e+00	2.276746e+00	2.287162e+00	2.298384e+00	2.310401e+00	2.323254e+00	2.336960e+00	2.351254e+00	2.365945e+00	2.381025e+00	2.397035e+00	2.414741e+00	2.434524e+00	2.455952e+00	2.478306e+00	2.501247e+00	2.525242e+00	2.551009e+00	2.578524e+00	2.607808e+00	2.639089e+00	2.672422e+00	2.708160e+00	2.746523e+00	2.787923e+00	2.832978e+00	2.882139e+00	2.936240e+00	2.996365e+00	3.063152e+00	3.137941e+00	3.221980e+00	3.315196e+00	3.417270e+00	3.525340e+00	3.634570e+00	3.726728e+00	3.800213e+00	3.806493e+00	3.771733e+00	3.753498e+00	3.666629e+00	3.468676e+00	3.282626e+00	3.093976e+00	2.915697e+00	2.758681e+00	2.626117e+00	2.516089e+00	2.425958e+00	2.352172e+00	2.291684e+00	2.243042e+00	2.203771e+00	2.172420e+00	2.148832e+00	2.132222e+00	2.121402e+00	2.115231e+00	2.112206e+00	2.110860e+00	2.111006e+00	2.113633e+00	2.119273e+00	2.127301e+00	2.136076e+00	2.144463e+00	2.151662e+00	2.157140e+00	2.160962e+00	2.163974e+00	2.166834e+00	2.169398e+00	2.171063e+00	2.171281e+00	2.170928e+00	2.170615e+00	2.158546e+00	2.128637e+00	2.101724e+00	2.239807e+00	2.575512e+00	2.787070e+00	2.790742e+00	2.741322e+00	2.720473e+00	2.725305e+00	2.739351e+00	2.754959e+00	2.773118e+00	2.790167e+00	2.805909e+00	2.822454e+00	2.839154e+00	2.856782e+00	2.874317e+00	2.891221e+00	2.907769e+00	2.924232e+00	2.940391e+00	2.956261e+00	2.971684e+00	2.986676e+00	3.001092e+00	3.014859e+00	3.027863e+00	3.040225e+00	3.052173e+00	3.064056e+00	3.076626e+00	3.090507e+00	3.106361e+00	3.124764e+00	3.145543e+00	3.168221e+00	3.191232e+00	3.212723e+00	3.230383e+00	3.241844e+00	3.244735e+00	3.237028e+00	3.217183e+00	3.184063e+00	3.137778e+00	3.079651e+00	3.012743e+00	2.943286e+00	2.879805e+00	2.836999e+00	2.839982e+00	2.936011e+00	3.132982e+00	3.323838e+00	3.440102e+00	3.428937e+00	3.247549e+00	3.012174e+00	2.962120e+00	3.142385e+00	3.198961e+00	
SCALARS Pressure float 1
LOOKUP_TABLE default
1.210495e+00	1.178705e+00	1.158433e+00	1.142277e+00	1.128906e+00	1.117440e+00	1.107066e+00	1.097590e+00	1.088778e+00	1.080469e+00	1.072570e+00	1.065014e+00	1.057747e+00	1.050720e+00	1.043913e+00	1.037296e+00	1.030857e+00	1.024550e+00	1.018395e+00	1.012346e+00	1.006428e+00	1.000609e+00	9.948930e-01	9.892591e-01	9.837099e-01	9.782052e-01	9.727598e-01	9.673399e-01	9.619458e-01	9.566567e-01	9.514422e-01	9.463275e-01	9.412782e-01	9.363448e-01	9.312254e-01	9.263052e-01	9.211818e-01	9.163109e-01	9.112000e-01	9.058848e-01	9.006349e-01	8.958070e-01	8.933680e-01	8.911992e-01	8.886195e-01	8.865075e-01	8.939847e-01	9.156159e-01	9.244296e-01	8.626517e-01	7.129092e-01	6.293830e-01	6.238053e-01	6.347007e-01	6.408193e-01	6.423672e-01	6.436207e-01	6.461196e-01	6.492932e-01	6.529484e-01	6.569508e-01	6.613779e-01	6.661963e-01	6.714007e-01	6.770008e-01	6.830117e-01	6.894437e-01	6.961703e-01	7.031149e-01	7.102732e-01	7.179189e-01	7.264159e-01	7.359701e-01	7.463755e-01	7.572891e-01	7.685739e-01	7.804400e-01	7.932379e-01	8.070512e-01	8.218932e-01	8.378555e-01	8.550259e-01	8.735952e-01	8.937310e-01	9.157103e-01	9.399300e-01	9.667359e-01	9.966138e-01	1.030283e+00	1.068294e+00	1.111508e+00	1.160789e+00	1.216484e+00	1.278445e+00	1.345257e+00	1.413332e+00	1.471869e+00	1.516172e+00	1.522402e+00	1.503840e+00	1.485609e+00	1.424980e+00	1.309067e+00	1.197236e+00	1.087875e+00	9.885780e-01	9.040983e-01	8.346384e-01	7.784358e-01	7.335250e-01	6.975724e-01	6.687998e-01	6.460182e-01	6.278807e-01	6.136089e-01	6.029754e-01	5.955728e-01	5.908260e-01	5.881537e-01	5.868784e-01	5.863556e-01	5.864438e-01	5.876000e-01	5.901545e-01	5.937595e-01	5.977084e-01	6.015126e-01	6.048234e-01	6.073466e-01	6.091052e-01	6.104619e-01	6.117368e-01	6.128807e-01	6.136164e-01	6.137641e-01	6.136579e-01	6.137771e-01	6.087675e-01	5.941291e-01	5.862130e-01	6.493935e-01	8.220424e-01	9.256528e-01	9.253360e-01	8.997400e-01	8.885566e-01	8.907223e-01	8.979646e-01	9.057633e-01	9.152607e-01	9.244059e-01	9.327992e-01	9.416926e-01	9.506561e-01	9.601353e-01	9.696162e-01	9.788287e-01	9.879077e-01	9.969596e-01	1.005907e+00	1.014724e+00	1.023337e+00	1.031729e+00	1.039827e+00	1.047575e+00	1.054928e+00	1.061936e+00	1.068726e+00	1.075535e+00	1.082739e+00	1.090749e+00	1.099972e+00	1.110698e+00	1.122886e+00	1.136201e+00	1.149765e+00	1.162430e+00	1.172812e+00	1.179447e+00	1.180926e+00	1.176066e+00	1.164005e+00	1.144269e+00	1.117117e+00	1.083540e+00	1.045491e+00	1.006346e+00	9.707342e-01	9.470859e-01	9.521078e-01	1.012338e+00	1.129790e+00	1.240458e+00	1.300573e+00	1.282592e+00	1.171330e+00	1.048871e+00	1.040465e+00	1.146114e+00	1.190153e+00	
SCALARS Temperature float 1
LOOKUP_TABLE default
1.057721e+00	1.051521e+00	1.046162e+00	1.041840e+00	1.038316e+00	1.035237e+00	1.032489e+00	1.029947e+00	1.027573e+00	1.025318e+00	1.023168e+00	1.021099e+00	1.019101e+00	1.017160e+00	1.015268e+00	1.013422e+00	1.011618e+00	1.009842e+00	1.008100e+00	1.006382e+00	1.004694e+00	1.003027e+00	1.001385e+00	9.997571e-01	9.981469e-01	9.965453e-01	9.949519e-01	9.933615e-01	9.917703e-01	9.902035e-01	9.886510e-01	9.871225e-01	9.856024e-01	9.841215e-01	9.825729e-01	9.810772e-01	9.795210e-01	9.780228e-01	9.764563e-01	9.748094e-01	9.731964e-01	9.717223e-01	9.709631e-01	9.702790e-01	9.694929e-01	9.689550e-01	9.714359e-01	9.780082e-01	9.810875e-01	9.639680e-01	9.103010e-01	8.776187e-01	8.737073e-01	8.783478e-01	8.808646e-01	8.812899e-01	8.817576e-01	8.827510e-01	8.839941e-01	8.854265e-01	8.869825e-01	8.886937e-01	8.905495e-01	8.925412e-01	8.946771e-01	8.969555e-01	8.993766e-01	9.018880e-01	9.044627e-01	9.070998e-01	9.099003e-01	9.129904e-01	9.164385e-01	9.201566e-01	9.240113e-01	9.279642e-01	9.320677e-01	9.364264e-01	9.411018e-01	9.460772e-01	9.513452e-01	9.569407e-01	9.628974e-01	9.692612e-01	9.761022e-01	9.835225e-01	9.916023e-01	1.000420e+00	1.010124e+00	1.020825e+00	1.032619e+00	1.045600e+00	1.059750e+00	1.074826e+00	1.090376e+00	1.105331e+00	1.117754e+00	1.125882e+00	1.127889e+00	1.125431e+00	1.119558e+00	1.104991e+00	1.081775e+00	1.055149e+00	1.027082e+00	9.996916e-01	9.745370e-01	9.521835e-01	9.328718e-01	9.166225e-01	9.030579e-01	8.919115e-01	8.828266e-01	8.754362e-01	8.695484e-01	8.651050e-01	8.620052e-01	8.600405e-01	8.589492e-01	8.584503e-01	8.582785e-01	8.583320e-01	8.588179e-01	8.599420e-01	8.614957e-01	8.631879e-01	8.648250e-01	8.662696e-01	8.673645e-01	8.681230e-01	8.686863e-01	8.692063e-01	8.696670e-01	8.699766e-01	8.700367e-01	8.700266e-01	8.702918e-01	8.684586e-01	8.615654e-01	8.610297e-01	8.874101e-01	9.548305e-01	9.842263e-01	9.832104e-01	9.754455e-01	9.719300e-01	9.725547e-01	9.744925e-01	9.769178e-01	9.798180e-01	9.825405e-01	9.851370e-01	9.877568e-01	9.904220e-01	9.932023e-01	9.959744e-01	9.986560e-01	1.001294e+00	1.003902e+00	1.006475e+00	1.008984e+00	1.011434e+00	1.013794e+00	1.016066e+00	1.018218e+00	1.020258e+00	1.022189e+00	1.024054e+00	1.025935e+00	1.027905e+00	1.030092e+00	1.032612e+00	1.035521e+00	1.038804e+00	1.042345e+00	1.045913e+00	1.049195e+00	1.051831e+00	1.053466e+00	1.053750e+00	1.052415e+00	1.049216e+00	1.044035e+00	1.036859e+00	1.027871e+00	1.017436e+00	1.006293e+00	9.956717e-01	9.884898e-01	9.916362e-01	1.012646e+00	1.046788e+00	1.073398e+00	1.083535e+00	1.075167e+00	1.046922e+00	1.020096e+00	1.026678e+00	1.055703e+00	1.070689e+00	
SCALARS Pressure_Coefficient float 1
LOOKUP_TABLE default
4.698543e-01	3.988960e-01	3.536452e-01	3.175824e-01	2.877370e-01	2.621424e-01	2.389877e-01	2.178348e-01	1.981662e-01	1.796183e-01	1.619865e-01	1.451210e-01	1.288987e-01	1.132142e-01	9.801901e-02	8.325023e-02	6.887799e-02	5.479974e-02	4.106012e-02	2.755697e-02	1.434746e-02	1.358996e-03	-1.139951e-02	-2.397519e-02	-3.636192e-02	-4.864906e-02	-6.080392e-02	-7.290190e-02	-8.494233e-02	-9.674846e-02	-1.083879e-01	-1.198048e-01	-1.310755e-01	-1.420874e-01	-1.535147e-01	-1.644974e-01	-1.759335e-01	-1.868059e-01	-1.982143e-01	-2.100785e-01	-2.217970e-01	-2.325737e-01	-2.380178e-01	-2.428588e-01	-2.486173e-01	-2.533315e-01	-2.366413e-01	-1.883574e-01	-1.686839e-01	-3.065809e-01	-6.408277e-01	-8.272701e-01	-8.397203e-01	-8.154003e-01	-8.017426e-01	-7.982874e-01	-7.954895e-01	-7.899116e-01	-7.828278e-01	-7.746688e-01	-7.657349e-01	-7.558529e-01	-7.450975e-01	-7.334806e-01	-7.209803e-01	-7.075631e-01	-6.932061e-01	-6.781913e-01	-6.626900e-01	-6.467117e-01	-6.296454e-01	-6.106788e-01	-5.893524e-01	-5.661261e-01	-5.417654e-01	-5.165761e-01	-4.900892e-01	-4.615226e-01	-4.306893e-01	-3.975598e-01	-3.619297e-01	-3.236030e-01	-2.821535e-01	-2.372076e-01	-1.881466e-01	-1.340847e-01	-7.425031e-02	-7.558420e-03	6.759538e-02	1.524428e-01	2.489028e-01	3.589042e-01	4.832236e-01	6.215280e-01	7.706624e-01	9.226154e-01	1.053279e+00	1.152170e+00	1.166076e+00	1.124642e+00	1.083948e+00	9.486159e-01	6.898818e-01	4.402594e-01	1.961485e-01	-2.549552e-02	-2.140663e-01	-3.691108e-01	-4.945630e-01	-5.948103e-01	-6.750617e-01	-7.392861e-01	-7.901380e-01	-8.306235e-01	-8.624801e-01	-8.862157e-01	-9.027393e-01	-9.133349e-01	-9.192997e-01	-9.221465e-01	-9.233133e-01	-9.231165e-01	-9.205358e-01	-9.148336e-01	-9.067869e-01	-8.979723e-01	-8.894809e-01	-8.820905e-01	-8.764585e-01	-8.725331e-01	-8.695047e-01	-8.666589e-01	-8.641056e-01	-8.624634e-01	-8.621336e-01	-8.623708e-01	-8.621047e-01	-8.732869e-01	-9.059618e-01	-9.236317e-01	-7.826038e-01	-3.972268e-01	-1.659535e-01	-1.666608e-01	-2.237946e-01	-2.487577e-01	-2.439234e-01	-2.277575e-01	-2.103498e-01	-1.891502e-01	-1.687368e-01	-1.500017e-01	-1.301505e-01	-1.101426e-01	-8.898365e-02	-6.782103e-02	-4.725727e-02	-2.699172e-02	-6.786663e-03	1.318539e-02	3.286569e-02	5.209223e-02	7.082258e-02	8.889916e-02	1.061953e-01	1.226081e-01	1.382502e-01	1.534056e-01	1.686056e-01	1.846848e-01	2.025653e-01	2.231528e-01	2.470938e-01	2.742997e-01	3.040207e-01	3.342970e-01	3.625679e-01	3.857411e-01	4.005523e-01	4.038534e-01	3.930041e-01	3.660830e-01	3.220288e-01	2.614213e-01	1.864737e-01	1.015421e-01	1.416421e-02	-6.532549e-02	-1.181119e-01	-1.069022e-01	2.754116e-02	2.897100e-01	5.367369e-01	6.709226e-01	6.307855e-01	3.824325e-01	1.090860e-01	9.032331e-02	3.261470e-01	4.244477e-01	
SCALARS Mach float 1
LOOKUP_TABLE default
5.751709e-01	6.024674e-01	6.248573e-01	6.424674e-01	6.566230e-01	6.688237e-01	6.795901e-01	6.894404e-01	6.985703e-01	7.071785e-01	7.153107e-01	7.230980e-01	7.305598e-01	7.377715e-01	7.447526e-01	7.515362e-01	7.581265e-01	7.645833e-01	7.708818e-01	7.770675e-01	7.831223e-01	7.890744e-01	7.949145e-01	8.006827e-01	8.063618e-01	8.119917e-01	8.175642e-01	8.231045e-01	8.286267e-01	8.340404e-01	8.394147e-01	8.446926e-01	8.499270e-01	8.549816e-01	8.602866e-01	8.653016e-01	8.705660e-01	8.755876e-01	8.807959e-01	8.862793e-01	8.915534e-01	8.965465e-01	8.989682e-01	9.015302e-01	9.041715e-01	9.059135e-01	8.978267e-01	8.760311e-01	8.660487e-01	9.226469e-01	1.093240e+00	1.193992e+00	1.205951e+00	1.192218e+00	1.184422e+00	1.183041e+00	1.181634e+00	1.178590e+00	1.174777e+00	1.170364e+00	1.165582e+00	1.160313e+00	1.154597e+00	1.148457e+00	1.141866e+00	1.134829e+00	1.127343e+00	1.119574e+00	1.111593e+00	1.103414e+00	1.094706e+00	1.085084e+00	1.074318e+00	1.062682e+00	1.050580e+00	1.038130e+00	1.025158e+00	1.011325e+00	9.964183e-01	9.804721e-01	9.634860e-01	9.453234e-01	9.258328e-01	9.048266e-01	8.820001e-01	8.569300e-01	8.292078e-01	7.984056e-01	7.637255e-01	7.244005e-01	6.794295e-01	6.275584e-01	5.672334e-01	4.971208e-01	4.150217e-01	3.198939e-01	2.137102e-01	9.600539e-02	2.138871e-02	1.073634e-01	1.948348e-01	3.231751e-01	4.624951e-01	5.877764e-01	7.010764e-01	8.012352e-01	8.874573e-01	9.609618e-01	1.022767e+00	1.073885e+00	1.116077e+00	1.150504e+00	1.178440e+00	1.201105e+00	1.219133e+00	1.232718e+00	1.242187e+00	1.248182e+00	1.251509e+00	1.253027e+00	1.253546e+00	1.253380e+00	1.251891e+00	1.248455e+00	1.243707e+00	1.238534e+00	1.233530e+00	1.229114e+00	1.225762e+00	1.223441e+00	1.221717e+00	1.220130e+00	1.218708e+00	1.217810e+00	1.217520e+00	1.217541e+00	1.216839e+00	1.222272e+00	1.243718e+00	1.245137e+00	1.164398e+00	9.509875e-01	8.543362e-01	8.585061e-01	8.838175e-01	8.957653e-01	8.941537e-01	8.869065e-01	8.796006e-01	8.700305e-01	8.605104e-01	8.519327e-01	8.427959e-01	8.336843e-01	8.240970e-01	8.144996e-01	8.051230e-01	7.958469e-01	7.866298e-01	7.774725e-01	7.684544e-01	7.596191e-01	7.510251e-01	7.427230e-01	7.347879e-01	7.272328e-01	7.200272e-01	7.130412e-01	7.059607e-01	6.984897e-01	6.901133e-01	6.803730e-01	6.690440e-01	6.560723e-01	6.419091e-01	6.274112e-01	6.138846e-01	6.028401e-01	5.959541e-01	5.947611e-01	6.005008e-01	6.139924e-01	6.354049e-01	6.642053e-01	6.991952e-01	7.383905e-01	7.789435e-01	8.164605e-01	8.413450e-01	8.305219e-01	7.561433e-01	6.245752e-01	5.064222e-01	4.552326e-01	4.977718e-01	6.239638e-01	7.288210e-01	7.039888e-01	5.877000e-01	5.180428e-01	