TITLE = "SU2 Simulation"
VARIABLES = "Iteration","CLift","CDrag","CSideForce","CMx","CMy","CMz","CFx","CFy","CFz","CL/CD","Res_Flow[0]","Res_Flow[1]","Res_Flow[2]","Res_Flow[3]","Res_Flow[4]","Linear_Solver_Iterations","CFL_Number","Time(min)"
ZONE T= "Convergence history"
        3273, 6.59695033e-02, 2.52003591e-03, 0.00000000e+00, 0.00000000e+00, 0.00000000e+00, -3.78029570e-02, 1.08031908e-03, 6.60087786e-02, 0.00000000e+00, 2.61780013e+01, -5.37494856e+00, -5.36127988e+00, -5.89394900e+00, -4.77856903e+00, 0.00000000e+00, 2.0000000000, 10.0000000000, 0.0002710859
        3274, 6.53398361e-02, 1.83118029e-03, 0.00000000e+00, 0.00000000e+00, 0.00000000e+00, -3.83586625e-02, 4.05363506e-04, 6.53642340e-02, 0.00000000e+00, 3.56818149e+01, -5.43314721e+00, -5.34318994e+00, -5.51799309e+00, -4.82974841e+00, 0.00000000e+00, 2.0000000000, 10.0000000000, 0.0005243500
        3275, 6.48943596e-02, 1.57728660e-03, 0.00000000e+00, 0.00000000e+00, 0.00000000e+00, -3.87499409e-02, 1.61248256e-04, 6.49133248e-02, 0.00000000e+00, 4.11430361e+01, -5.43580274e+00, -5.37498377e+00, -5.47768245e+00, -4.83581515e+00, 0.00000000e+00, 2.0000000000, 10.0000000000, 0.0007899165
        3276, 6.43655784e-02, 1.35794314e-03, 0.00000000e+00, 0.00000000e+00, 0.00000000e+00, -3.91333439e-02, -4.65077114e-05, 6.43798846e-02, 0.00000000e+00, 4.73993179e+01, -5.40384664e+00, -5.35451750e+00, -5.42895238e+00, -4.80021165e+00, 0.00000000e+00, 2.0000000000, 10.0000000000, 0.0010607521
        3277, 6.37633507e-02, 1.18949270e-03, 0.00000000e+00, 0.00000000e+00, 0.00000000e+00, -3.95077404e-02, -2.01780528e-04, 6.37741254e-02, 0.00000000e+00, 5.36054996e+01, -5.36111800e+00, -5.31865667e+00, -5.38310232e+00, -4.75563096e+00, 0.00000000e+00, 2.0000000000, 10.0000000000, 0.0013289014
        3278, 6.30853616e-02, 1.07258759e-03, 0.00000000e+00, 0.00000000e+00, 0.00000000e+00, -3.98378392e-02, -3.03867564e-04, 6.30937474e-02, 0.00000000e+00, 5.88160463e+01, -5.32803434e+00, -5.29767757e+00, -5.36420769e+00, -4.72464395e+00, 0.00000000e+00, 2.0000000000, 10.0000000000, 0.0015805682
        3279, 6.24018564e-02, 9.74888341e-04, 0.00000000e+00, 0.00000000e+00, 0.00000000e+00, -4.01291192e-02, -3.86632979e-04, 6.24082735e-02, 0.00000000e+00, 6.40092344e+01, -5.29851243e+00, -5.27376590e+00, -5.35214184e+00, -4.69618725e+00, 0.00000000e+00, 2.0000000000, 10.0000000000, 0.0018644015
        3280, 6.17598743e-02, 8.92973395e-04, 0.00000000e+00, 0.00000000e+00, 0.00000000e+00, -4.03729510e-02, -4.54523667e-04, 6.17646573e-02, 0.00000000e+00, 6.91620542e+01, -5.27124332e+00, -5.24010050e+00, -5.33749915e+00, -4.66800210e+00, 0.00000000e+00, 2.0000000000, 10.0000000000, 0.0021210194
        3281, 6.11763195e-02, 8.27511475e-04, 0.00000000e+00, 0.00000000e+00, 0.00000000e+00, -4.05621013e-02, -5.07239826e-04, 6.11798132e-02, 0.00000000e+00, 7.39280618e+01, -5.25308134e+00, -5.21537221e+00, -5.32901679e+00, -4.64924045e+00, 0.00000000e+00, 2.0000000000, 10.0000000000, 0.0023831844
        3282, 6.06581283e-02, 7.74197453e-04, 0.00000000e+00, 0.00000000e+00, 0.00000000e+00, -4.07021509e-02, -5.49236880e-04, 6.06605823e-02, 0.00000000e+00, 7.83496872e+01, -5.24247852e+00, -5.19934999e+00, -5.32520674e+00, -4.63833935e+00, 0.00000000e+00, 2.0000000000, 10.0000000000, 0.0026458661
        3283, 6.01991756e-02, 7.31153753e-04, 0.00000000e+00, 0.00000000e+00, 0.00000000e+00, -4.08050695e-02, -5.82258338e-04, 6.02007999e-02, 0.00000000e+00, 8.23344959e+01, -5.23826687e+00, -5.19265502e+00, -5.32443517e+00, -4.63398466e+00, 0.00000000e+00, 2.0000000000, 10.0000000000, 0.0028977831
        3284, 5.97888121e-02, 6.98309212e-04, 0.00000000e+00, 0.00000000e+00, 0.00000000e+00, -4.08815381e-02, -6.06143029e-04, 5.97898175e-02, 0.00000000e+00, 8.56193947e+01, -5.23894820e+00, -5.19468591e+00, -5.32619327e+00, -4.63457800e+00, 0.00000000e+00, 2.0000000000, 10.0000000000, 0.0031539838
        3285, 5.94169761e-02, 6.74651678e-04, 0.00000000e+00, 0.00000000e+00, 0.00000000e+00, -4.09394145e-02, -6.21683372e-04, 5.94175539e-02, 0.00000000e+00, 8.80705970e+01, -5.24275108e+00, -5.20315247e+00, -5.32994235e+00, -4.63832903e+00, 0.00000000e+00, 2.0000000000, 10.0000000000, 0.0034178019
        3286, 5.90774678e-02, 6.57719584e-04, 0.00000000e+00, 0.00000000e+00, 0.00000000e+00, -4.09834487e-02, -6.31205103e-04, 5.90777570e-02, 0.00000000e+00, 8.98216645e+01, -5.24824530e+00, -5.21496950e+00, -5.33499060e+00, -4.64385441e+00, 0.00000000e+00, 2.0000000000, 10.0000000000, 0.0036882361
        3287, 5.87676555e-02, 6.45194148e-04, 0.00000000e+00, 0.00000000e+00, 0.00000000e+00, -4.10164502e-02, -6.36969039e-04, 5.87677452e-02, 0.00000000e+00, 9.10852271e+01, -5.25462087e+00, -5.22694015e+00, -5.34067494e+00, -4.65035554e+00, 0.00000000e+00, 2.0000000000, 10.0000000000, 0.0039711674
        3288, 5.84859443e-02, 6.35640251e-04, 0.00000000e+00, 0.00000000e+00, 0.00000000e+00, -4.10407073e-02, -6.40375165e-04, 5.84858926e-02, 0.00000000e+00, 9.20110774e+01, -5.26136107e+00, -5.23596026e+00, -5.34656671e+00, -4.65722126e+00, 0.00000000e+00, 2.0000000000, 10.0000000000, 0.0042252342
        3289, 5.82302550e-02, 6.28234019e-04, 0.00000000e+00, 0.00000000e+00, 0.00000000e+00, -4.10583973e-02, -6.42201802e-04, 5.82301026e-02, 0.00000000e+00, 9.26887963e+01, -5.26793647e+00, -5.23935263e+00, -5.35260751e+00, -4.66372352e+00, 0.00000000e+00, 2.0000000000, 10.0000000000, 0.0044818997
        3290, 5.79979748e-02, 6.22456255e-04, 0.00000000e+00, 0.00000000e+00, 0.00000000e+00, -4.10714756e-02, -6.42911025e-04, 5.79977517e-02, 0.00000000e+00, 9.31759852e+01, -5.27378293e+00, -5.23563425e+00, -5.35897287e+00, -4.66906792e+00, 0.00000000e+00, 2.0000000000, 10.0000000000, 0.0047393521
        3291, 5.77861964e-02, 6.17893644e-04, 0.00000000e+00, 0.00000000e+00, 0.00000000e+00, -4.10815182e-02, -6.42852630e-04, 5.77859241e-02, 0.00000000e+00, 9.35212670e+01, -5.27850497e+00, -5.22517538e+00, -5.36587210e+00, -4.67271014e+00, 0.00000000e+00, 2.0000000000, 10.0000000000, 0.0050908327
        3292, 5.75922066e-02, 6.14153696e-04, 0.00000000e+00, 0.00000000e+00, 0.00000000e+00, -4.10896700e-02, -6.42359823e-04, 5.75918989e-02, 0.00000000e+00, 9.37749085e+01, -5.28207902e+00, -5.21000847e+00, -5.37346723e+00, -4.67464422e+00, 0.00000000e+00, 2.0000000000, 10.0000000000, 0.0053905169
        3293, 5.74140821e-02, 6.10874730e-04, 0.00000000e+00, 0.00000000e+00, 0.00000000e+00, -4.10966018e-02, -6.41752241e-04, 5.74137452e-02, 0.00000000e+00, 9.39866707e+01, -5.28490462e+00, -5.19286656e+00, -5.38188460e+00, -4.67543119e+00, 0.00000000e+00, 2.0000000000, 10.0000000000, 0.0056542158
        3294, 5.72506482e-02, 6.07685147e-04, 0.00000000e+00, 0.00000000e+00, 0.00000000e+00, -4.11026014e-02, -6.41375775e-04, 5.72502807e-02, 0.00000000e+00, 9.42110376e+01, -5.28763932e+00, -5.17623188e+00, -5.39117776e+00, -4.67594734e+00, 0.00000000e+00, 2.0000000000, 10.0000000000, 0.0059735179
        3295, 5.71011069e-02, 6.04138781e-04, 0.00000000e+00, 0.00000000e+00, 0.00000000e+00, -4.11078223e-02, -6.41659071e-04, 5.71006976e-02, 0.00000000e+00, 9.45165395e+01, -5.29103547e+00, -5.16202607e+00, -5.40135345e+00, -4.67714388e+00, 0.00000000e+00, 2.0000000000, 10.0000000000, 0.0063029846
        3296, 5.69646441e-02, 5.99732230e-04, 0.00000000e+00, 0.00000000e+00, 0.00000000e+00, -4.11123778e-02, -6.43087652e-04, 5.69641711e-02, 0.00000000e+00, 9.49834631e+01, -5.29596883e+00, -5.15178474e+00, -5.41251171e+00, -4.68005079e+00, 0.00000000e+00, 2.0000000000, 10.0000000000, 0.0065614502
        3297, 5.68401843e-02, 5.93889383e-04, 0.00000000e+00, 0.00000000e+00, 0.00000000e+00, -4.11165181e-02, -6.46214033e-04, 5.68396135e-02, 0.00000000e+00, 9.57083692e+01, -5.30349489e+00, -5.14694087e+00, -5.42501574e+00, -4.68584573e+00, 0.00000000e+00, 2.0000000000, 10.0000000000, 0.0068173329
        3298, 5.67260907e-02, 5.86008323e-04, 0.00000000e+00, 0.00000000e+00, 0.00000000e+00, -4.11207948e-02, -6.51604277e-04, 5.67253751e-02, 0.00000000e+00, 9.68008276e+01, -5.31500241e+00, -5.14912318e+00, -5.43971132e+00, -4.69603608e+00, 0.00000000e+00, 2.0000000000, 10.0000000000, 0.0070797841
        3299, 5.66200485e-02, 5.75555657e-04, 0.00000000e+00, 0.00000000e+00, 0.00000000e+00, -4.11260731e-02, -6.59741158e-04, 5.66191301e-02, 0.00000000e+00, 9.83745843e+01, -5.33231960e+00, -5.16031568e+00, -5.45816867e+00, -4.71259140e+00, 0.00000000e+00, 2.0000000000, 10.0000000000, 0.0073457996
        3300, 5.65191510e-02, 5.62161022e-04, 0.00000000e+00, 0.00000000e+00, 0.00000000e+00, -4.11335280e-02, -6.70931538e-04, 5.65179644e-02, 0.00000000e+00, 1.00539078e+02, -5.35783587e+00, -5.18293517e+00, -5.48298374e+00, -4.73808729e+00, 0.00000000e+00, 2.0000000000, 10.0000000000, 0.0076031168
        3301, 5.64206147e-02, 5.45744279e-04, 0.00000000e+00, 0.00000000e+00, 0.00000000e+00, -4.11442278e-02, -6.85194817e-04, 5.64190935e-02, 0.00000000e+00, 1.03382879e+02, -5.39480074e+00, -5.21999622e+00, -5.51840007e+00, -4.77603510e+00, 0.00000000e+00, 2.0000000000, 10.0000000000, 0.0078805526
        3302, 5.63225023e-02, 5.26737723e-04, 0.00000000e+00, 0.00000000e+00, 0.00000000e+00, -4.11580677e-02, -7.02056539e-04, 5.63205898e-02, 0.00000000e+00, 1.06927034e+02, -5.44718652e+00, -5.27478904e+00, -5.57077850e+00, -4.83078045e+00, 0.00000000e+00, 2.0000000000, 10.0000000000, 0.0081388354
        3303, 5.62195641e-02, 5.07407759e-04, 0.00000000e+00, 0.00000000e+00, 0.00000000e+00, -4.11762610e-02, -7.19136317e-04, 5.62172544e-02, 0.00000000e+00, 1.10797604e+02, -5.51438479e+00, -5.34482112e+00, -5.64378402e+00, -4.90188331e+00, 0.00000000e+00, 2.0000000000, 10.0000000000, 0.0084040165
        3304, 5.60952216e-02, 4.90303103e-04, 0.00000000e+00, 0.00000000e+00, 0.00000000e+00, -4.12067200e-02, -7.33524385e-04, 5.60925683e-02, 0.00000000e+00, 1.14409273e+02, -5.57397538e+00, -5.40490810e+00, -5.71641011e+00, -4.96528087e+00, 0.00000000e+00, 2.0000000000, 10.0000000000, 0.0086627007
        3305, 5.59445821e-02, 4.75963007e-04, 0.00000000e+00, 0.00000000e+00, 0.00000000e+00, -4.12514515e-02, -7.44574886e-04, 5.59416519e-02, 0.00000000e+00, 1.17539769e+02, -5.60936929e+00, -5.44088423e+00, -5.76625857e+00, -5.00311942e+00, 0.00000000e+00, 2.0000000000, 10.0000000000, 0.0089153171
        3306, 5.57804660e-02, 4.63073436e-04, 0.00000000e+00, 0.00000000e+00, 0.00000000e+00, -4.13030194e-02, -7.53881216e-04, 5.57772936e-02, 0.00000000e+00, 1.20457063e+02, -5.63225688e+00, -5.46751475e+00, -5.80331886e+00, -5.02841088e+00, 0.00000000e+00, 2.0000000000, 10.0000000000, 0.0091829022
        3307, 5.56104497e-02, 4.52133620e-04, 0.00000000e+00, 0.00000000e+00, 0.00000000e+00, -4.13566052e-02, -7.61109543e-04, 5.56070792e-02, 0.00000000e+00, 1.22995609e+02, -5.65107768e+00, -5.49411018e+00, -5.83550225e+00, -5.05025066e+00, 0.00000000e+00, 2.0000000000, 10.0000000000, 0.0094498833
        3308, 5.54398959e-02, 4.43525897e-04, 0.00000000e+00, 0.00000000e+00, 0.00000000e+00, -4.14080277e-02, -7.65994606e-04, 5.54363782e-02, 0.00000000e+00, 1.24998103e+02, -5.66620197e+00, -5.52017146e+00, -5.86234631e+00, -5.06841901e+00, 0.00000000e+00, 2.0000000000, 10.0000000000, 0.0097647349
        3309, 5.52720651e-02, 4.36168351e-04, 0.00000000e+00, 0.00000000e+00, 0.00000000e+00, -4.14545898e-02, -7.69689191e-04, 5.52684268e-02, 0.00000000e+00, 1.26721861e+02, -5.67511181e+00, -5.54118546e+00, -5.88000051e+00, -5.07958494e+00, 0.00000000e+00, 2.0000000000, 10.0000000000, 0.0100884835
        3310, 5.51093467e-02, 4.28998751e-04, 0.00000000e+00, 0.00000000e+00, 0.00000000e+00, -4.14949409e-02, -7.73307401e-04, 5.51055907e-02, 0.00000000e+00, 1.28460390e+02, -5.67942562e+00, -5.55775319e+00, -5.89022388e+00, -5.08554174e+00, 0.00000000e+00, 2.0000000000, 10.0000000000, 0.0104531844
        3311, 5.49533813e-02, 4.22389685e-04, 0.00000000e+00, 0.00000000e+00, 0.00000000e+00, -4.15287014e-02, -7.76512528e-04, 5.49495183e-02, 0.00000000e+00, 1.30101144e+02, -5.68238716e+00, -5.57301824e+00, -5.89736749e+00, -5.09007094e+00, 0.00000000e+00, 2.0000000000, 10.0000000000, 0.0107135852
        3312, 5.48051938e-02, 4.17166284e-04, 0.00000000e+00, 0.00000000e+00, 0.00000000e+00, -4.15559023e-02, -7.78501992e-04, 5.48012521e-02, 0.00000000e+00, 1.31374936e+02, -5.68508133e+00, -5.58781612e+00, -5.90309230e+00, -5.09439847e+00, 0.00000000e+00, 2.0000000000, 10.0000000000, 0.0109801014
        3313, 5.46654113e-02, 4.13497536e-04, 0.00000000e+00, 0.00000000e+00, 0.00000000e+00, -4.15768911e-02, -7.79120528e-04, 5.46614228e-02, 0.00000000e+00, 1.32202508e+02, -5.68683417e+00, -5.60100905e+00, -5.90701619e+00, -5.09768863e+00, 0.00000000e+00, 2.0000000000, 10.0000000000, 0.0112355828
        3314, 5.45346225e-02, 4.11139269e-04, 0.00000000e+00, 0.00000000e+00, 0.00000000e+00, -4.15922716e-02, -7.78625090e-04, 5.45306136e-02, 0.00000000e+00, 1.32642699e+02, -5.68733829e+00, -5.61191530e+00, -5.90912463e+00, -5.09952070e+00, 0.00000000e+00, 2.0000000000, 10.0000000000, 0.0114959518
        3315, 5.44134138e-02, 4.09960233e-04, 0.00000000e+00, 0.00000000e+00, 0.00000000e+00, -4.16027440e-02, -7.77159692e-04, 5.44094081e-02, 0.00000000e+00, 1.32728517e+02, -5.68701785e+00, -5.62067315e+00, -5.90997271e+00, -5.10029785e+00, 0.00000000e+00, 2.0000000000, 10.0000000000, 0.0117609183
        3316, 5.43020587e-02, 4.09876776e-04, 0.00000000e+00, 0.00000000e+00, 0.00000000e+00, -4.16090439e-02, -7.74813931e-04, 5.42980777e-02, 0.00000000e+00, 1.32483863e+02, -5.68628588e+00, -5.62748039e+00, -5.90992428e+00, -5.10041591e+00, 0.00000000e+00, 2.0000000000, 10.0000000000, 0.0120539506
        3317, 5.42002662e-02, 4.10662949e-04, 0.00000000e+00, 0.00000000e+00, 0.00000000e+00, -4.16119820e-02, -7.71807355e-04, 5.41963266e-02, 0.00000000e+00, 1.31982363e+02, -5.68541492e+00, -5.63255178e+00, -5.90925646e+00, -5.10014390e+00, 0.00000000e+00, 2.0000000000, 10.0000000000, 0.0123065193
        3318, 5.41073028e-02, 4.12038502e-04, 0.00000000e+00, 0.00000000e+00, 0.00000000e+00, -4.16123981e-02, -7.68404143e-04, 5.41034153e-02, 0.00000000e+00, 1.31316133e+02, -5.68477166e+00, -5.63633581e+00, -5.90845207e+00, -5.09988680e+00, 0.00000000e+00, 2.0000000000, 10.0000000000, 0.0125699162
        3319, 5.40222574e-02, 4.13775038e-04, 0.00000000e+00, 0.00000000e+00, 0.00000000e+00, -4.16110403e-02, -7.64812765e-04, 5.40184281e-02, 0.00000000e+00, 1.30559489e+02, -5.68474905e+00, -5.63935921e+00, -5.90803116e+00, -5.10009456e+00, 0.00000000e+00, 2.0000000000, 10.0000000000, 0.0129281163
        3320, 5.39442015e-02, 4.15681253e-04, 0.00000000e+00, 0.00000000e+00, 0.00000000e+00, -4.16085033e-02, -7.61204223e-04, 5.39404323e-02, 0.00000000e+00, 1.29772996e+02, -5.68563932e+00, -5.64206779e+00, -5.90839194e+00, -5.10111170e+00, 0.00000000e+00, 2.0000000000, 10.0000000000, 0.0132124345
        3321, 5.38722383e-02, 4.17583232e-04, 0.00000000e+00, 0.00000000e+00, 0.00000000e+00, -4.16052489e-02, -7.57732827e-04, 5.38685277e-02, 0.00000000e+00, 1.29009582e+02, -5.68768635e+00, -5.64487678e+00, -5.90989992e+00, -5.10323470e+00, 0.00000000e+00, 2.0000000000, 10.0000000000, 0.0134864847
        3322, 5.38055182e-02, 4.19361477e-04, 0.00000000e+00, 0.00000000e+00, 0.00000000e+00, -4.16016128e-02, -7.54499512e-04, 5.38018622e-02, 0.00000000e+00, 1.28303435e+02, -5.69113159e+00, -5.64821234e+00, -5.91292553e+00, -5.10676304e+00, 0.00000000e+00, 2.0000000000, 10.0000000000, 0.0137478669
        3323, 5.37432994e-02, 4.20950416e-04, 0.00000000e+00, 0.00000000e+00, 0.00000000e+00, -4.15978147e-02, -7.51553656e-04, 5.37396929e-02, 0.00000000e+00, 1.27671330e+02, -5.69617711e+00, -5.65247998e+00, -5.91777684e+00, -5.11195749e+00, 0.00000000e+00, 2.0000000000, 10.0000000000, 0.0140047669
        3324, 5.36849521e-02, 4.22321089e-04, 0.00000000e+00, 0.00000000e+00, 0.00000000e+00, -4.15939796e-02, -7.48910471e-04, 5.36813894e-02, 0.00000000e+00, 1.27118805e+02, -5.70299522e+00, -5.65808487e+00, -5.92472318e+00, -5.11905111e+00, 0.00000000e+00, 2.0000000000, 10.0000000000, 0.0142741839
        3325, 5.36299352e-02, 4.23474823e-04, 0.00000000e+00, 0.00000000e+00, 0.00000000e+00, -4.15901668e-02, -7.46556824e-04, 5.36264108e-02, 0.00000000e+00, 1.26642559e+02, -5.71174997e+00, -5.66545812e+00, -5.93403658e+00, -5.12827468e+00, 0.00000000e+00, 2.0000000000, 10.0000000000, 0.0145330509
        3326, 5.35778027e-02, 4.24441619e-04, 0.00000000e+00, 0.00000000e+00, 0.00000000e+00, -4.15863883e-02, -7.44452993e-04, 5.35743118e-02, 0.00000000e+00, 1.26231265e+02, -5.72260100e+00, -5.67505841e+00, -5.94599143e+00, -5.13986024e+00, 0.00000000e+00, 2.0000000000, 10.0000000000, 0.0147920847
        3327, 5.35281955e-02, 4.25266455e-04, 0.00000000e+00, 0.00000000e+00, 0.00000000e+00, -4.15826134e-02, -7.42546178e-04, 5.35247344e-02, 0.00000000e+00, 1.25869781e+02, -5.73569198e+00, -5.68735547e+00, -5.96085625e+00, -5.15402804e+00, 0.00000000e+00, 2.0000000000, 10.0000000000, 0.0150532007
        3328, 5.34808508e-02, 4.25998816e-04, 0.00000000e+00, 0.00000000e+00, 0.00000000e+00, -4.15787819e-02, -7.40781173e-04, 5.34774169e-02, 0.00000000e+00, 1.25542252e+02, -5.75113461e+00, -5.70280836e+00, -5.97888196e+00, -5.17096783e+00, 0.00000000e+00, 2.0000000000, 10.0000000000, 0.0153239687
        3329, 5.34355723e-02, 4.26691337e-04, 0.00000000e+00, 0.00000000e+00, 0.00000000e+00, -4.15748230e-02, -7.39101071e-04, 5.34321643e-02, 0.00000000e+00, 1.25232382e+02, -5.76903816e+00, -5.72189664e+00, -6.00035032e+00, -5.19087197e+00, 0.00000000e+00, 2.0000000000, 10.0000000000, 0.0155811508
        3330, 5.33922129e-02, 4.27398169e-04, 0.00000000e+00, 0.00000000e+00, 0.00000000e+00, -4.15706596e-02, -7.37448527e-04, 5.33888307e-02, 0.00000000e+00, 1.24923822e+02, -5.78954396e+00, -5.74517229e+00, -6.02563405e+00, -5.21397467e+00, 0.00000000e+00, 2.0000000000, 10.0000000000, 0.0158389846
        3331, 5.33506586e-02, 4.28176337e-04, 0.00000000e+00, 0.00000000e+00, 0.00000000e+00, -4.15662165e-02, -7.35764041e-04, 5.33473032e-02, 0.00000000e+00, 1.24599736e+02, -5.81285668e+00, -5.77332129e+00, -6.05525640e+00, -5.24059061e+00, 0.00000000e+00, 2.0000000000, 10.0000000000, 0.0161038995
        3332, 5.33108391e-02, 4.29076147e-04, 0.00000000e+00, 0.00000000e+00, 0.00000000e+00, -4.15614148e-02, -7.33995787e-04, 5.33075128e-02, 0.00000000e+00, 1.24245637e+02, -5.83916904e+00, -5.80711548e+00, -6.08980455e+00, -5.27102606e+00, 0.00000000e+00, 2.0000000000, 10.0000000000, 0.0163859844
        3333, 5.32727323e-02, 4.30141817e-04, 0.00000000e+00, 0.00000000e+00, 0.00000000e+00, -4.15561651e-02, -7.32099075e-04, 5.32694383e-02, 0.00000000e+00, 1.23849229e+02, -5.86868657e+00, -5.84746226e+00, -6.12996517e+00, -5.30559488e+00, 0.00000000e+00, 2.0000000000, 10.0000000000, 0.0166441679
        3334, 5.32363632e-02, 4.31409857e-04, 0.00000000e+00, 0.00000000e+00, 0.00000000e+00, -4.15503854e-02, -7.30037949e-04, 5.32331055e-02, 0.00000000e+00, 1.23400897e+02, -5.90157769e+00, -5.89542864e+00, -6.17646804e+00, -5.34455515e+00, 0.00000000e+00, 2.0000000000, 10.0000000000, 0.0169086695
        3335, 5.32018427e-02, 4.32901769e-04, 0.00000000e+00, 0.00000000e+00, 0.00000000e+00, -4.15440080e-02, -7.27793333e-04, 5.31986258e-02, 0.00000000e+00, 1.22895877e+02, -5.93778180e+00, -5.95203306e+00, -6.22974004e+00, -5.38784030e+00, 0.00000000e+00, 2.0000000000, 10.0000000000, 0.0171632528
        3336, 5.31696871e-02, 4.34599453e-04, 0.00000000e+00, 0.00000000e+00, 0.00000000e+00, -4.15370165e-02, -7.25394581e-04, 5.31665149e-02, 0.00000000e+00, 1.22341818e+02, -5.97598391e+00, -6.01649591e+00, -6.28806655e+00, -5.43369362e+00, 0.00000000e+00, 2.0000000000, 10.0000000000, 0.0174294670
        3337, 5.31412357e-02, 4.36539433e-04, 0.00000000e+00, 0.00000000e+00, 0.00000000e+00, -4.15292938e-02, -7.22834400e-04, 5.31381126e-02, 0.00000000e+00, 1.21732956e+02, -6.01145878e+00, -6.08122493e+00, -6.34311183e+00, -5.47571177e+00, 0.00000000e+00, 2.0000000000, 10.0000000000, 0.0176982999
        3338, 5.31183823e-02, 4.39052511e-04, 0.00000000e+00, 0.00000000e+00, 0.00000000e+00, -4.15204925e-02, -7.19823373e-04, 5.31153194e-02, 0.00000000e+00, 1.20984121e+02, -6.03399785e+00, -6.12524683e+00, -6.37590492e+00, -5.50039164e+00, 0.00000000e+00, 2.0000000000, 10.0000000000, 0.0179543018
        3339, 5.31005481e-02, 4.42102944e-04, 0.00000000e+00, 0.00000000e+00, 0.00000000e+00, -4.15110480e-02, -7.16384617e-04, 5.30975560e-02, 0.00000000e+00, 1.20109013e+02, -6.03736901e+00, -6.13598719e+00, -6.37654908e+00, -5.50090513e+00, 0.00000000e+00, 2.0000000000, 10.0000000000, 0.0182190498
        3340, 5.30865594e-02, 4.45028187e-04, 0.00000000e+00, 0.00000000e+00, 0.00000000e+00, -4.15015719e-02, -7.13154907e-04, 5.30836345e-02, 0.00000000e+00, 1.19288083e+02, -6.03276354e+00, -6.13224998e+00, -6.36744673e+00, -5.49239197e+00, 0.00000000e+00, 2.0000000000, 10.0000000000, 0.0184806029
        3341, 5.30754887e-02, 4.47825501e-04, 0.00000000e+00, 0.00000000e+00, 0.00000000e+00, -4.14923849e-02, -7.10116753e-04, 5.30726274e-02, 0.00000000e+00, 1.18518237e+02, -6.02648250e+00, -6.11930446e+00, -6.35515601e+00, -5.48164009e+00, 0.00000000e+00, 2.0000000000, 10.0000000000, 0.0187397162
        3342, 5.30665633e-02, 4.50553613e-04, 0.00000000e+00, 0.00000000e+00, 0.00000000e+00, -4.14836332e-02, -7.07194584e-04, 5.30637637e-02, 0.00000000e+00, 1.17780796e+02, -6.02319232e+00, -6.10825925e+00, -6.34426888e+00, -5.47486530e+00, 0.00000000e+00, 2.0000000000, 10.0000000000, 0.0189967195
        3343, 5.30587095e-02, 4.53203664e-04, 0.00000000e+00, 0.00000000e+00, 0.00000000e+00, -4.14756380e-02, -7.04373833e-04, 5.30559695e-02, 0.00000000e+00, 1.17074758e+02, -6.02379731e+00, -6.10436675e+00, -6.33752603e+00, -5.47349590e+00, 0.00000000e+00, 2.0000000000, 10.0000000000, 0.0192635496
        3344, 5.30513234e-02, 4.55794471e-04, 0.00000000e+00, 0.00000000e+00, 0.00000000e+00, -4.14684705e-02, -7.01622518e-04, 5.30486418e-02, 0.00000000e+00, 1.16393082e+02, -6.02894943e+00, -6.10944965e+00, -6.33748687e+00, -5.47828269e+00, 0.00000000e+00, 2.0000000000, 10.0000000000, 0.0195238352
        3345, 5.30443099e-02, 4.58281400e-04, 0.00000000e+00, 0.00000000e+00, 0.00000000e+00, -4.14620856e-02, -6.98983180e-04, 5.30416841e-02, 0.00000000e+00, 1.15746155e+02, -6.03901388e+00, -6.12449707e+00, -6.34563843e+00, -5.48955415e+00, 0.00000000e+00, 2.0000000000, 10.0000000000, 0.0197767695
        3346, 5.30376914e-02, 4.60566383e-04, 0.00000000e+00, 0.00000000e+00, 0.00000000e+00, -4.14564422e-02, -6.96554360e-04, 5.30351171e-02, 0.00000000e+00, 1.15157539e+02, -6.05044404e+00, -6.14409883e+00, -6.35727782e+00, -5.50260898e+00, 0.00000000e+00, 2.0000000000, 10.0000000000, 0.0200390180
        3347, 5.30316640e-02, 4.62614777e-04, 0.00000000e+00, 0.00000000e+00, 0.00000000e+00, -4.14513924e-02, -6.94374966e-04, 5.30291358e-02, 0.00000000e+00, 1.14634609e+02, -6.05987971e+00, -6.16118561e+00, -6.36711188e+00, -5.51296350e+00, 0.00000000e+00, 2.0000000000, 10.0000000000, 0.0203044176
        3348, 5.30264534e-02, 4.64425818e-04, 0.00000000e+00, 0.00000000e+00, 0.00000000e+00, -4.14467658e-02, -6.92450687e-04, 5.30239659e-02, 0.00000000e+00, 1.14176369e+02, -6.06679119e+00, -6.17365745e+00, -6.37385715e+00, -5.52005317e+00, 0.00000000e+00, 2.0000000000, 10.0000000000, 0.0205590010
        3349, 5.30220892e-02, 4.65975344e-04, 0.00000000e+00, 0.00000000e+00, 0.00000000e+00, -4.14424899e-02, -6.90806327e-04, 5.30196366e-02, 0.00000000e+00, 1.13787328e+02, -6.07239914e+00, -6.18336072e+00, -6.37939118e+00, -5.52559629e+00, 0.00000000e+00, 2.0000000000, 10.0000000000, 0.0208171328
        3350, 5.30184452e-02, 4.67214882e-04, 0.00000000e+00, 0.00000000e+00, 0.00000000e+00, -4.14386008e-02, -6.89487590e-04, 5.30160205e-02, 0.00000000e+00, 1.13477647e+02, -6.07809170e+00, -6.19276474e+00, -6.38585896e+00, -5.53135863e+00, 0.00000000e+00, 2.0000000000, 10.0000000000, 0.0210775018
        3351, 5.30152616e-02, 4.68095149e-04, 0.00000000e+00, 0.00000000e+00, 0.00000000e+00, -4.14351995e-02, -6.88538081e-04, 5.30128568e-02, 0.00000000e+00, 1.13257447e+02, -6.08448738e+00, -6.20285400e+00, -6.39395573e+00, -5.53800562e+00, 0.00000000e+00, 2.0000000000, 10.0000000000, 0.0213473678
        3352, 5.30122711e-02, 4.68601075e-04, 0.00000000e+00, 0.00000000e+00, 0.00000000e+00, -4.14323558e-02, -6.87967040e-04, 5.30098781e-02, 0.00000000e+00, 1.13128787e+02, -6.09158034e+00, -6.21345919e+00, -6.40328529e+00, -5.54541647e+00, 0.00000000e+00, 2.0000000000, 10.0000000000, 0.0216110508
        3353, 5.30092949e-02, 4.68763330e-04, 0.00000000e+00, 0.00000000e+00, 0.00000000e+00, -4.14300614e-02, -6.87739898e-04, 5.30069061e-02, 0.00000000e+00, 1.13083280e+02, -6.09920459e+00, -6.22439280e+00, -6.41329143e+00, -5.55336141e+00, 0.00000000e+00, 2.0000000000, 10.0000000000, 0.0218816996
        3354, 5.30062564e-02, 4.68645519e-04, 0.00000000e+00, 0.00000000e+00, 0.00000000e+00, -4.14282488e-02, -6.87791396e-04, 5.30038658e-02, 0.00000000e+00, 1.13105224e+02, -6.10737321e+00, -6.23604956e+00, -6.42388038e+00, -5.56190172e+00, 0.00000000e+00, 2.0000000000, 10.0000000000, 0.0221444845
        3355, 5.30031479e-02, 4.68327845e-04, 0.00000000e+00, 0.00000000e+00, 0.00000000e+00, -4.14268171e-02, -6.88041182e-04, 5.30007511e-02, 0.00000000e+00, 1.13175308e+02, -6.11621289e+00, -6.24913041e+00, -6.43528289e+00, -5.57125891e+00, 0.00000000e+00, 2.0000000000, 10.0000000000, 0.0224368493
        3356, 5.30000219e-02, 4.67893757e-04, 0.00000000e+00, 0.00000000e+00, 0.00000000e+00, -4.14256580e-02, -6.88406972e-04, 5.29976163e-02, 0.00000000e+00, 1.13273625e+02, -6.12589914e+00, -6.26421219e+00, -6.44779734e+00, -5.58167539e+00, 0.00000000e+00, 2.0000000000, 10.0000000000, 0.0227601171
        3357, 5.29969426e-02, 4.67421034e-04, 0.00000000e+00, 0.00000000e+00, 0.00000000e+00, -4.14246765e-02, -6.88812411e-04, 5.29945275e-02, 0.00000000e+00, 1.13381596e+02, -6.13663578e+00, -6.28179601e+00, -6.46175932e+00, -5.59340225e+00, 0.00000000e+00, 2.0000000000, 10.0000000000, 0.0230535825
        3358, 5.29939866e-02, 4.66974971e-04, 0.00000000e+00, 0.00000000e+00, 0.00000000e+00, -4.14237930e-02, -6.89193881e-04, 5.29915625e-02, 0.00000000e+00, 1.13483569e+02, -6.14866526e+00, -6.30244473e+00, -6.47763767e+00, -5.60673273e+00, 0.00000000e+00, 2.0000000000, 10.0000000000, 0.0233052015
        3359, 5.29912261e-02, 4.66602784e-04, 0.00000000e+00, 0.00000000e+00, 0.00000000e+00, -4.14229478e-02, -6.89505760e-04, 5.29887945e-02, 0.00000000e+00, 1.13568174e+02, -6.16223432e+00, -6.32682610e+00, -6.49590797e+00, -5.62195940e+00, 0.00000000e+00, 2.0000000000, 10.0000000000, 0.0235701998
        3360, 5.29887091e-02, 4.66331201e-04, 0.00000000e+00, 0.00000000e+00, 0.00000000e+00, -4.14221029e-02, -6.89722372e-04, 5.29862722e-02, 0.00000000e+00, 1.13628917e+02, -6.17755558e+00, -6.35564617e+00, -6.51700966e+00, -5.63933346e+00, 0.00000000e+00, 2.0000000000, 10.0000000000, 0.0238288363
        3361, 5.29864836e-02, 4.66169554e-04, 0.00000000e+00, 0.00000000e+00, 0.00000000e+00, -4.14212280e-02, -6.89835431e-04, 5.29840437e-02, 0.00000000e+00, 1.13663544e+02, -6.19474598e+00, -6.38956107e+00, -6.54113747e+00, -5.65896868e+00, 0.00000000e+00, 2.0000000000, 10.0000000000, 0.0240849177
        3362, 5.29845973e-02, 4.66115208e-04, 0.00000000e+00, 0.00000000e+00, 0.00000000e+00, -4.14202939e-02, -6.89848613e-04, 5.29821567e-02, 0.00000000e+00, 1.13672750e+02, -6.21377116e+00, -6.42913158e+00, -6.56822468e+00, -5.68079543e+00, 0.00000000e+00, 2.0000000000, 10.0000000000, 0.0243513505
        3363, 5.29831154e-02, 4.66154589e-04, 0.00000000e+00, 0.00000000e+00, 0.00000000e+00, -4.14192799e-02, -6.89776914e-04, 5.29806759e-02, 0.00000000e+00, 1.13659967e+02, -6.23462105e+00, -6.47516462e+00, -6.59815417e+00, -5.70478644e+00, 0.00000000e+00, 2.0000000000, 10.0000000000, 0.0246057192
        3364, 5.29820900e-02, 4.66264303e-04, 0.00000000e+00, 0.00000000e+00, 0.00000000e+00, -4.14181763e-02, -6.89644857e-04, 5.29796532e-02, 0.00000000e+00, 1.13631024e+02, -6.25710534e+00, -6.52843414e+00, -6.63020286e+00, -5.73068605e+00, 0.00000000e+00, 2.0000000000, 10.0000000000, 0.0248618841
        3365, 5.29816114e-02, 4.66415740e-04, 0.00000000e+00, 0.00000000e+00, 0.00000000e+00, -4.14169775e-02, -6.89483015e-04, 5.29791780e-02, 0.00000000e+00, 1.13593103e+02, -6.28057813e+00, -6.58863185e+00, -6.66286547e+00, -5.75768274e+00, 0.00000000e+00, 2.0000000000, 10.0000000000, 0.0251377662
        3366, 5.29818287e-02, 4.66586837e-04, 0.00000000e+00, 0.00000000e+00, 0.00000000e+00, -4.14156139e-02, -6.89316699e-04, 5.29793990e-02, 0.00000000e+00, 1.13551915e+02, -6.30354733e+00, -6.65193970e+00, -6.69289772e+00, -5.78389995e+00, 0.00000000e+00, 2.0000000000, 10.0000000000, 0.0253990332
        3367, 5.29828069e-02, 4.66791504e-04, 0.00000000e+00, 0.00000000e+00, 0.00000000e+00, -4.14140980e-02, -6.89133420e-04, 5.29803814e-02, 0.00000000e+00, 1.13504223e+02, -6.32192061e+00, -6.70174726e+00, -6.71257533e+00, -5.80349460e+00, 0.00000000e+00, 2.0000000000, 10.0000000000, 0.0256636858
        3368, 5.29840841e-02, 4.66993980e-04, 0.00000000e+00, 0.00000000e+00, 0.00000000e+00, -4.14127429e-02, -6.88958855e-04, 5.29816628e-02, 0.00000000e+00, 1.13457745e+02, -6.33051133e+00, -6.71107542e+00, -6.71181546e+00, -5.80967610e+00, 0.00000000e+00, 2.0000000000, 10.0000000000, 0.0259270350
        3369, 5.29854977e-02, 4.67185454e-04, 0.00000000e+00, 0.00000000e+00, 0.00000000e+00, -4.14115898e-02, -6.88798265e-04, 5.29830802e-02, 0.00000000e+00, 1.13414271e+02, -6.33153663e+00, -6.68900788e+00, -6.69813122e+00, -5.80722483e+00, 0.00000000e+00, 2.0000000000, 10.0000000000, 0.0261941671
        3370, 5.29865990e-02, 4.67368789e-04, 0.00000000e+00, 0.00000000e+00, 0.00000000e+00, -4.14107837e-02, -6.88638998e-04, 5.29841852e-02, 0.00000000e+00, 1.13372138e+02, -6.32477334e+00, -6.64840457e+00, -6.67437377e+00, -5.79590899e+00, 0.00000000e+00, 2.0000000000, 10.0000000000, 0.0265051007