# vtk DataFile Version 3.0
vtk output
ASCII
DATASET UNSTRUCTURED_GRID
POINTS 5233 float
9.997500e-01	-3.633243e-05	0.0	9.990000e-01	-1.454723e-04	0.0	9.977600e-01	-3.275073e-04	0.0	9.960200e-01	-5.899266e-04	0.0	9.937800e-01	-9.470929e-04	0.0	9.910500e-01	-1.422091e-03	0.0	9.878400e-01	-2.045505e-03	0.0	9.841300e-01	-2.853652e-03	0.0	9.799500e-01	-3.858845e-03	0.0	9.752800e-01	-5.058243e-03	0.0	9.701500e-01	-6.405031e-03	0.0	9.645400e-01	-7.840737e-03	0.0	9.584700e-01	-9.290025e-03	0.0	9.519400e-01	-1.069754e-02	0.0	9.449600e-01	-1.203534e-02	0.0	9.375400e-01	-1.330781e-02	0.0	9.296900e-01	-1.454228e-02	0.0	9.214000e-01	-1.577701e-02	0.0	9.127000e-01	-1.703926e-02	0.0	9.035800e-01	-1.835006e-02	0.0	8.940600e-01	-1.971305e-02	0.0	8.841500e-01	-2.112364e-02	0.0	8.738500e-01	-2.257360e-02	0.0	8.631800e-01	-2.405085e-02	0.0	8.521600e-01	-2.554472e-02	0.0	8.407700e-01	-2.705206e-02	0.0	8.290500e-01	-2.856361e-02	0.0	8.170100e-01	-3.007554e-02	0.0	8.046400e-01	-3.158703e-02	0.0	7.919700e-01	-3.309242e-02	0.0	7.790100e-01	-3.458844e-02	0.0	7.657800e-01	-3.607049e-02	0.0	7.522800e-01	-3.753600e-02	0.0	7.385200e-01	-3.898113e-02	0.0	7.245300e-01	-4.040001e-02	0.0	7.103200e-01	-4.178900e-02	0.0	6.958900e-01	-4.314555e-02	0.0	6.812700e-01	-4.446446e-02	0.0	6.664700e-01	-4.574273e-02	0.0	6.515000e-01	-4.697758e-02	0.0	6.363800e-01	-4.816570e-02	0.0	6.211300e-01	-4.930419e-02	0.0	6.057600e-01	-5.039118e-02	0.0	5.902800e-01	-5.142504e-02	0.0	5.747100e-01	-5.240372e-02	0.0	5.590600e-01	-5.332605e-02	0.0	5.433600e-01	-5.418994e-02	0.0	5.276100e-01	-5.499521e-02	0.0	5.118400e-01	-5.574020e-02	0.0	4.960500e-01	-5.642485e-02	0.0	4.802700e-01	-5.704783e-02	0.0	4.645100e-01	-5.760875e-02	0.0	4.487800e-01	-5.810712e-02	0.0	4.331100e-01	-5.854188e-02	0.0	4.175000e-01	-5.891279e-02	0.0	4.019700e-01	-5.921896e-02	0.0	3.865400e-01	-5.945950e-02	0.0	3.712300e-01	-5.963352e-02	0.0	3.560400e-01	-5.974023e-02	0.0	3.409900e-01	-5.977848e-02	0.0	3.261100e-01	-5.974716e-02	0.0	3.114000e-01	-5.964512e-02	0.0	2.968700e-01	-5.947100e-02	0.0	2.825500e-01	-5.922370e-02	0.0	2.684500e-01	-5.890194e-02	0.0	2.545700e-01	-5.850404e-02	0.0	2.409400e-01	-5.802914e-02	0.0	2.275700e-01	-5.747595e-02	0.0	2.144700e-01	-5.684319e-02	0.0	2.016600e-01	-5.613018e-02	0.0	1.891400e-01	-5.533523e-02	0.0	1.769300e-01	-5.445794e-02	0.0	1.650400e-01	-5.349745e-02	0.0	1.534900e-01	-5.245400e-02	0.0	1.422900e-01	-5.132730e-02	0.0	1.314400e-01	-5.011610e-02	0.0	1.209500e-01	-4.882015e-02	0.0	1.108500e-01	-4.744224e-02	0.0	1.011300e-01	-4.598019e-02	0.0	9.181000e-02	-4.443612e-02	0.0	8.290000e-02	-4.281114e-02	0.0	7.440000e-02	-4.110463e-02	0.0	6.633000e-02	-3.932011e-02	0.0	5.869000e-02	-3.745729e-02	0.0	5.149000e-02	-3.551818e-02	0.0	4.474000e-02	-3.350532e-02	0.0	3.844000e-02	-3.141840e-02	0.0	3.260000e-02	-2.926025e-02	0.0	2.723000e-02	-2.703457e-02	0.0	2.232000e-02	-2.473632e-02	0.0	1.790000e-02	-2.237951e-02	0.0	1.395000e-02	-1.995331e-02	0.0	1.049000e-02	-1.746898e-02	0.0	7.520000e-03	-1.492744e-02	0.0	5.040000e-03	-1.232885e-02	0.0	3.050000e-03	-9.671687e-03	0.0	1.560000e-03	-6.971179e-03	0.0	5.600000e-04	-4.206170e-03	0.0	6.000000e-05	-1.383997e-03	0.0	0.000000e+00	0.000000e+00	0.0	6.000000e-05	1.263698e-03	0.0	5.600000e-04	3.624876e-03	0.0	1.560000e-03	5.788531e-03	0.0	3.050000e-03	7.806431e-03	0.0	5.040000e-03	9.723603e-03	0.0	7.520000e-03	1.154780e-02	0.0	1.049000e-02	1.329402e-02	0.0	1.395000e-02	1.497276e-02	0.0	1.790000e-02	1.659195e-02	0.0	2.232000e-02	1.815121e-02	0.0	2.723000e-02	1.966367e-02	0.0	3.260000e-02	2.112522e-02	0.0	3.844000e-02	2.254354e-02	0.0	4.474000e-02	2.392000e-02	0.0	5.149000e-02	2.525598e-02	0.0	5.869000e-02	2.655449e-02	0.0	6.633000e-02	2.781627e-02	0.0	7.440000e-02	2.904197e-02	0.0	8.290000e-02	3.023350e-02	0.0	9.181000e-02	3.138978e-02	0.0	1.011300e-01	3.251230e-02	0.0	1.108500e-01	3.360103e-02	0.0	1.209500e-01	3.465484e-02	0.0	1.314400e-01	3.567559e-02	0.0	1.422900e-01	3.666099e-02	0.0	1.534900e-01	3.761077e-02	0.0	1.650400e-01	3.852530e-02	0.0	1.769300e-01	3.940390e-02	0.0	1.891400e-01	4.024508e-02	0.0	2.016600e-01	4.104807e-02	0.0	2.144700e-01	4.181137e-02	0.0	2.275700e-01	4.253456e-02	0.0	2.409400e-01	4.321594e-02	0.0	2.545700e-01	4.385425e-02	0.0	2.684500e-01	4.444810e-02	0.0	2.825500e-01	4.499518e-02	0.0	2.968700e-01	4.549431e-02	0.0	3.114000e-01	4.594372e-02	0.0	3.261100e-01	4.634094e-02	0.0	3.409900e-01	4.668410e-02	0.0	3.560400e-01	4.697132e-02	0.0	3.712300e-01	4.720004e-02	0.0	3.865400e-01	4.736796e-02	0.0	4.019700e-01	4.747292e-02	0.0	4.175000e-01	4.751248e-02	0.0	4.331100e-01	4.748429e-02	0.0	4.487800e-01	4.738610e-02	0.0	4.645100e-01	4.721558e-02	0.0	4.802700e-01	4.697075e-02	0.0	4.960500e-01	4.664958e-02	0.0	5.118400e-01	4.625015e-02	0.0	5.276100e-01	4.577133e-02	0.0	5.433600e-01	4.521141e-02	0.0	5.590600e-01	4.457005e-02	0.0	5.747100e-01	4.384611e-02	0.0	5.902800e-01	4.304025e-02	0.0	6.057600e-01	4.215273e-02	0.0	6.211300e-01	4.118492e-02	0.0	6.363800e-01	4.013823e-02	0.0	6.515000e-01	3.901461e-02	0.0	6.664700e-01	3.781740e-02	0.0	6.812700e-01	3.655083e-02	0.0	6.958900e-01	3.521903e-02	0.0	7.103200e-01	3.382683e-02	0.0	7.245300e-01	3.238178e-02	0.0	7.385200e-01	3.088922e-02	0.0	7.522800e-01	2.935610e-02	0.0	7.657800e-01	2.779232e-02	0.0	7.790100e-01	2.620625e-02	0.0	7.919700e-01	2.460555e-02	0.0	8.046400e-01	2.300073e-02	0.0	8.170100e-01	2.140143e-02	0.0	8.290500e-01	1.982000e-02	0.0	8.407700e-01	1.826324e-02	0.0	8.521600e-01	1.673960e-02	0.0	8.631800e-01	1.525990e-02	0.0	8.738500e-01	1.382463e-02	0.0	8.841500e-01	1.243702e-02	0.0	8.940600e-01	1.109826e-02	0.0	9.035800e-01	9.806670e-03	0.0	9.127000e-01	8.564955e-03	0.0	9.214000e-01	7.384059e-03	0.0	9.296900e-01	6.280544e-03	0.0	9.375400e-01	5.285370e-03	0.0	9.449600e-01	4.427678e-03	0.0	9.519400e-01	3.732384e-03	0.0	9.584700e-01	3.205602e-03	0.0	9.645400e-01	2.827160e-03	0.0	9.701500e-01	2.552202e-03	0.0	9.752800e-01	2.324934e-03	0.0	9.799500e-01	2.093124e-03	0.0	9.841300e-01	1.827060e-03	0.0	9.878400e-01	1.519918e-03	0.0	9.910500e-01	1.190209e-03	0.0	9.937800e-01	8.630243e-04	0.0	9.960200e-01	5.666270e-04	0.0	9.977600e-01	3.231884e-04	0.0	9.990000e-01	1.450783e-04	0.0	9.997500e-01	3.632619e-05	0.0	1.000000e+00	0.000000e+00	0.0	1.984229e+01	2.506660e+00	0.0	1.937166e+01	4.973800e+00	0.0	1.859553e+01	7.362490e+00	0.0	1.752613e+01	9.635070e+00	0.0	1.618034e+01	1.175571e+01	0.0	1.457937e+01	1.369094e+01	0.0	1.274848e+01	1.541027e+01	0.0	1.071654e+01	1.688656e+01	0.0	8.515590e+00	1.809654e+01	0.0	6.180340e+00	1.902113e+01	0.0	3.747630e+00	1.964575e+01	0.0	1.255810e+00	1.996053e+01	0.0	-1.255810e+00	1.996053e+01	0.0	-3.747630e+00	1.964574e+01	0.0	-6.180340e+00	1.902113e+01	0.0	-8.515590e+00	1.809654e+01	0.0	-1.071654e+01	1.688656e+01	0.0	-1.274848e+01	1.541026e+01	0.0	-1.457937e+01	1.369094e+01	0.0	-1.618034e+01	1.175570e+01	0.0	-1.752613e+01	9.635070e+00	0.0	-1.859553e+01	7.362490e+00	0.0	-1.937166e+01	4.973800e+00	0.0	-1.984229e+01	2.506660e+00	0.0	-2.000000e+01	0.000000e+00	0.0	-1.984229e+01	-2.506670e+00	0.0	-1.937166e+01	-4.973800e+00	0.0	-1.859553e+01	-7.362490e+00	0.0	-1.752613e+01	-9.635080e+00	0.0	-1.618034e+01	-1.175571e+01	0.0	-1.457937e+01	-1.369094e+01	0.0	-1.274848e+01	-1.541027e+01	0.0	-1.071653e+01	-1.688656e+01	0.0	-8.515580e+00	-1.809654e+01	0.0	-6.180340e+00	-1.902113e+01	0.0	-3.747620e+00	-1.964575e+01	0.0	-1.255810e+00	-1.996053e+01	0.0	1.255810e+00	-1.996053e+01	0.0	3.747630e+00	-1.964574e+01	0.0	6.180340e+00	-1.902113e+01	0.0	8.515590e+00	-1.809654e+01	0.0	1.071654e+01	-1.688656e+01	0.0	1.274848e+01	-1.541026e+01	0.0	1.457937e+01	-1.369094e+01	0.0	1.618034e+01	-1.175570e+01	0.0	1.752614e+01	-9.635070e+00	0.0	1.859553e+01	-7.362490e+00	0.0	1.937166e+01	-4.973790e+00	0.0	1.984229e+01	-2.506660e+00	0.0	2.000000e+01	0.000000e+00	0.0	6.074239e-02	-4.532037e-02	0.0	6.601883e-01	-6.002139e-02	0.0	4.255532e-01	6.172254e-02	0.0	6.897642e-01	4.910667e-02	0.0	3.791232e-01	-7.360540e-02	0.0	9.994675e-01	-7.275895e-04	0.0	9.985544e-01	-1.331421e-03	0.0	7.738131e-01	-4.739954e-02	0.0	6.898600e-01	-5.714758e-02	0.0	-1.127093e-03	5.516441e-03	0.0	7.467800e-01	-5.080693e-02	0.0	5.833311e-01	5.753439e-02	0.0	9.928160e-01	-3.736226e-03	0.0	9.899359e-01	-4.744170e-03	0.0	5.989071e-01	5.659958e-02	0.0	7.187646e-01	-5.406304e-02	0.0	-1.468635e-03	5.997814e-04	0.0	9.865725e-01	-5.906457e-03	0.0	9.827328e-01	-7.226341e-03	0.0	-1.301980e-03	-6.472904e-03	0.0	6.451051e-01	-6.137199e-02	0.0	8.244819e-01	-4.029739e-02	0.0	7.997421e-01	-4.389368e-02	0.0	3.484809e-01	6.060766e-02	0.0	8.479019e-01	-3.666701e-02	0.0	2.473656e-01	5.609713e-02	0.0	8.699419e-01	-3.302675e-02	0.0	1.046405e-02	1.734275e-02	0.0	8.904956e-01	-2.943277e-02	0.0	7.702150e-02	-4.969836e-02	0.0	9.094908e-01	-2.593984e-02	0.0	-1.766707e-03	-3.206918e-03	0.0	9.424825e-01	-1.916801e-02	0.0	9.268474e-01	-2.254986e-02	0.0	1.794788e-02	-2.749618e-02	0.0	4.257416e-01	-7.303622e-02	0.0	8.591035e-01	-3.484267e-02	0.0	9.563355e-01	-1.566675e-02	0.0	9.784088e-01	-8.725279e-03	0.0	9.683300e-01	-1.208054e-02	0.0	1.582632e-01	-6.357311e-02	0.0	9.001950e-01	-2.767171e-02	0.0	7.604294e-01	-4.911905e-02	0.0	9.971359e-01	-2.087280e-03	0.0	5.990500e-01	-6.504467e-02	0.0	4.414441e-01	-7.268637e-02	0.0	5.363196e-01	-6.897975e-02	0.0	4.730157e-01	-7.175389e-02	0.0	5.046766e-01	-7.051644e-02	0.0	4.888342e-01	-7.117210e-02	0.0	1.249493e-01	-5.906458e-02	0.0	2.784422e-02	-3.297577e-02	0.0	3.945689e-01	-7.349742e-02	0.0	4.621904e-02	-4.062230e-02	0.0	4.101097e-01	-7.330802e-02	0.0	3.187146e-01	-7.321332e-02	0.0	3.486125e-01	-7.358008e-02	0.0	3.350777e-02	-3.558906e-02	0.0	2.895104e-01	-7.250783e-02	0.0	9.348849e-01	-2.086580e-02	0.0	1.468045e-01	-6.216095e-02	0.0	1.946434e-01	-6.723313e-02	0.0	8.579569e-02	-5.175606e-02	0.0	1.045869e-01	-5.560334e-02	0.0	5.678223e-01	-6.715996e-02	0.0	1.700657e-01	-6.489146e-02	0.0	6.145275e-01	-6.388296e-02	0.0	8.804131e-01	-3.122132e-02	0.0	2.266820e-02	-3.027647e-02	0.0	9.952218e-01	-2.870133e-03	0.0	6.736439e-03	-1.882105e-02	0.0	1.849222e-02	2.151129e-02	0.0	9.183775e-01	-2.423537e-02	0.0	9.49640
[...]
POINT_DATA 5233

SCALARS Conservative_1 float 1
LOOKUP_TABLE default
1.199828e+00	1.181603e+00	1.171178e+00	1.164739e+00	1.160165e+00	1.155700e+00	1.148815e+00	1.137897e+00	1.121716e+00	1.100362e+00	1.075073e+00	1.048463e+00	1.024897e+00	1.008363e+00	9.999899e-01	9.979320e-01	9.990415e-01	1.000484e+00	1.000512e+00	9.985234e-01	9.947399e-01	9.897185e-01	9.840443e-01	9.781889e-01	9.724300e-01	9.668785e-01	9.615257e-01	9.563251e-01	9.512121e-01	9.461552e-01	9.411385e-01	9.361181e-01	9.310601e-01	9.259808e-01	9.209316e-01	9.159608e-01	9.110871e-01	9.063149e-01	9.016556e-01	8.971257e-01	8.927250e-01	8.884641e-01	8.843252e-01	8.803251e-01	8.764786e-01	8.728374e-01	8.693912e-01	8.660759e-01	8.627445e-01	8.593871e-01	8.562060e-01	8.535550e-01	8.515479e-01	8.498929e-01	8.479171e-01	8.448694e-01	8.402505e-01	8.342087e-01	8.276237e-01	8.217522e-01	8.174798e-01	8.149993e-01	8.140379e-01	8.141630e-01	8.150648e-01	8.165444e-01	8.185525e-01	8.210055e-01	8.238173e-01	8.268752e-01	8.301982e-01	8.339492e-01	8.383752e-01	8.435441e-01	8.493797e-01	8.557356e-01	8.626764e-01	8.703804e-01	8.789047e-01	8.882885e-01	8.986437e-01	9.100291e-01	9.225961e-01	9.364626e-01	9.518184e-01	9.689406e-01	9.880574e-01	1.009527e+00	1.033836e+00	1.061299e+00	1.092447e+00	1.127746e+00	1.167046e+00	1.209886e+00	1.254555e+00	1.298041e+00	1.331744e+00	1.350900e+00	1.339533e+00	1.308264e+00	1.284247e+00	1.221077e+00	1.099422e+00	1.001938e+00	9.259448e-01	8.702451e-01	8.322735e-01	8.072788e-01	7.904546e-01	7.790617e-01	7.714049e-01	7.663151e-01	7.632330e-01	7.614214e-01	7.605061e-01	7.604838e-01	7.612261e-01	7.624960e-01	7.639722e-01	7.653276e-01	7.665795e-01	7.680515e-01	7.700020e-01	7.722810e-01	7.744891e-01	7.763988e-01	7.781020e-01	7.797457e-01	7.814326e-01	7.832332e-01	7.852027e-01	7.873249e-01	7.895269e-01	7.917080e-01	7.938247e-01	7.958515e-01	7.977788e-01	7.995687e-01	8.012307e-01	8.028791e-01	8.047251e-01	8.069226e-01	8.095196e-01	8.124805e-01	8.158127e-01	8.195848e-01	8.238331e-01	8.285263e-01	8.334872e-01	8.384995e-01	8.433513e-01	8.481010e-01	8.530520e-01	8.585609e-01	8.646921e-01	8.712144e-01	8.779041e-01	8.847586e-01	8.919454e-01	8.995121e-01	9.074077e-01	9.155444e-01	9.238732e-01	9.323818e-01	9.410406e-01	9.498362e-01	9.587184e-01	9.676696e-01	9.766155e-01	9.855586e-01	9.944159e-01	1.003107e+00	1.011568e+00	1.019717e+00	1.027506e+00	1.034915e+00	1.041990e+00	1.048911e+00	1.055937e+00	1.063459e+00	1.071772e+00	1.080974e+00	1.090682e+00	1.100034e+00	1.107781e+00	1.112586e+00	1.113360e+00	1.109741e+00	1.102492e+00	1.093779e+00	1.086678e+00	1.084162e+00	1.088066e+00	1.098281e+00	1.112854e+00	1.130018e+00	1.148480e+00	1.168636e+00	1.192714e+00	1.181127e+00	9.999764e-01	9.999694e-01	9.999527e-01	9.999287e-01	9.999046e-01	9.998764e-01	9.998367e-01	9.997815e-01	9.997187e-01	9.996667e-01	9.996322e-01	9.996437e-01	9.996981e-01	9.998089e-01	9.999040e-01	9.999808e-01	1.000023e+00	1.000049e+00	1.000063e+00	1.000070e+00	1.000073e+00	1.000074e+00	1.000074e+00	1.000076e+00	1.000077e+00	1.000080e+00	1.000085e+00	1.000092e+00	1.000101e+00	1.000114e+00	1.000129e+00	1.000150e+00	1.000169e+00	1.000196e+00	1.000213e+00	1.000224e+00	1.000226e+00	1.000213e+00	1.000203e+00	1.000190e+00	1.000184e+00	1.000168e+00	1.000151e+00	1.000130e+00	1.000106e+00	1.000078e+00	1.000060e+00	1.000046e+00	1.000013e+00	9.999797e-01	9.443414e-01	9.020710e-01	8.213412e-01	9.232597e-01	8.406833e-01	1.183062e+00	1.173569e+00	9.408074e-01	9.112762e-01	1.216997e+00	9.308345e-01	8.720667e-01	1.151716e+00	1.144986e+00	8.786816e-01	9.208935e-01	1.307633e+00	1.136014e+00	1.123646e+00	1.337687e+00	8.976540e-01	9.609068e-01	9.507463e-01	8.073070e-01	9.714773e-01	7.943718e-01	9.825831e-01	8.784086e-01	9.931927e-01	9.171422e-01	1.000621e+00	1.344665e+00	1.006090e+00	1.003004e+00	1.100373e+00	8.522897e-01	9.769869e-01	1.025357e+00	1.107394e+00	1.065588e+00	8.484607e-01	9.975012e-01	9.358407e-01	1.164146e+00	8.851394e-01	8.538379e-01	8.706392e-01	8.576939e-01	8.639735e-01	8.606440e-01	8.683429e-01	1.042997e+00	8.461731e-01	9.775614e-01	8.499731e-01	8.197408e-01	8.278152e-01	1.018721e+00	8.182330e-01	1.003614e+00	8.544841e-01	8.348344e-01	9.054066e-01	8.850116e-01	8.775019e-01	8.431938e-01	8.891930e-01	9.880891e-01	1.070122e+00	1.157648e+00	1.209201e+00	8.234926e-01	1.002359e+00	1.012769e+00	1.087633e+00	1.133853e+00	9.661241e-01	8.225191e-01	8.739906e-01	9.258293e-01	9.457598e-01	8.762454e-01	8.280194e-01	8.812340e-01	9.066198e-01	9.601039e-01	1.248744e+00	1.133833e+00	8.341462e-01	8.387253e-01	1.211158e+00	8.250632e-01	8.947290e-01	8.183350e-01	8.204929e-01	8.554559e-01	9.160357e-01	1.279722e+00	1.318487e+00	8.546553e-01	1.324584e+00	7.951320e-01	7.746032e-01	7.811598e-01	7.756380e-01	8.177486e-01	1.140215e+00	8.498582e-01	8.348752e-01	1.097231e+00	1.105870e+00	1.052283e+00	8.400033e-01	8.254031e-01	8.117444e-01	1.083644e+00	1.067046e+00	7.730840e-01	1.092479e+00	1.106614e+00	1.099060e+00	7.740181e-01	7.732079e-01	8.004176e-01	7.964538e-01	7.836914e-01	8.039688e-01	8.299479e-01	8.145606e-01	7.808189e-01	7.772406e-01	8.923320e-01	7.865963e-01	7.902029e-01	9.072686e-01	8.656734e-01	9.569791e-01	9.398856e-01	9.915004e-01	9.742781e-01	1.023928e+00	1.008229e+00	1.059444e+00	1.038434e+00	1.104229e+00	1.075183e+00	1.102347e+00	1.031322e+00	1.045362e+00	9.999565e-01	1.016226e+00	9.656245e-01	9.829319e-01	9.314982e-01	9.483850e-01	8.996212e-01	9.151684e-01	8.598322e-01	8.853892e-01	7.882992e-01	7.922633e-01	7.823180e-01	7.850877e-01	7.771844e-01	7.791028e-01	8.464781e-01	7.869034e-01	8.313015e-01	9.814422e-01	1.043721e+00	9.557880e-01	8.228468e-01	8.673432e-01	1.053406e+00	8.069092e-01	9.225974e-01	7.735660e-01	7.728177e-01	7.984721e-01	7.745944e-01	1.090303e+00	1.092377e+00	8.022585e-01	1.099374e+00	1.110422e+00	8.055934e-01	8.093176e-01	1.091887e+00	1.206471e+00	1.157952e+00	1.174455e+00	8.933575e-01	9.970112e-01	1.124417e+00	8.450378e-01	1.286683e+00	1.170401e+00	9.300689e-01	8.611352e-01	8.190231e-01	7.851373e-01	1.199576e+00	1.259531e+00	8.238857e-01	9.165164e-01	1.003322e+00	1.199633e+00	8.735000e-01	9.118686e-01	9.456864e-01	1.133352e+00	8.258206e-01	9.762985e-01	9.657779e-01	9.126450e-01	1.317252e+00	8.364068e-01	1.132830e+00	1.041625e+00	8.603945e-01	9.212458e-01	9.028964e-01	8.580294e-01	9.245894e-01	8.471601e-01	9.965531e-01	9.505793e-01	9.565103e-01	8.548412e-01	9.153121e-01	1.020537e+00	7.830853e-01	9.231514e-01	7.883775e-01	1.041854e+00	1.100608e+00	8.103946e-01	8.519534e-01	1.099645e+00	1.048669e+00	1.108355e+00	1.100927e+00	1.094590e+00	7.975483e-01	8.087058e-01	7.956195e-01	7.829502e-01	9.073370e-01	8.402505e-01	9.139689e-01	7.860720e-01	7.940098e-01	1.098098e+00	1.119029e+00	1.055544e+00	8.542505e-01	1.215365e+00	1.145819e+00	1.131613e+00	1.009076e+00	1.133500e+00	1.234090e+00	1.331023e+00	1.315056e+00	1.102269e+00	1.217657e+00	9.519984e-01	1.163046e+00	1.148575e+00	8.237490e-01	8.755377e-01	1.123030e+00	9.869545e-01	8.799649e-01	1.141660e+00	1.332380e+00	8.564869e-01	8.203188e-01	9.709865e-01	8.034111e-01	9.816564e-01	9.920029e-01	9.376591e-01	1.000361e+00	1.005627e+00	1.017437e+00	1.048653e+00	1.027465e+00	1.058816e+00	1.110017e+00	8.747778e-01	9.359201e-01	9.408214e-01	1.155385e+00	8.599574e-01	8.625969e-01	8.657182e-01	1.074350e+00	8.516669e-01	8.546386e-01	8.296470e-01	1.004283e+00	1.007904e+00	1.011332e+00	8.672805e-01	9.017413e-01	8.789506e-01	8.903344e-01	1.077036e+00	1.094513e+00	9.260484e-01	9.309797e-01	8.918843e-01	8.829294e-01	8.825786e-01	8.863713e-01	9.852117e-01	9.678356e-01	1.165346e+00	8.350758e-01	8.413102e-01	8.490078e-01	8.444072e-01	8.329372e-01	8.298658e-01	8.232812e-01	8.238130e-01	8.273028e-01	1.298354e+00	1.267562e+00	8.001709e-01	1.095901e+00	8.567257e-01	8.470248e-01	8.419094e-01	8.367966e-01	1.095747e+00	1.100203e+00	1.077309e+00	8.320091e-01	8.276404e-01	8.172913e-01	1.069901e+00	1.096247e+00	7.868223e-01	7.896466e-01	7.995201e-01	8.014762e-01	7.872192e-01	7.849695e-01	7.838664e-01	9.889495e-01	9.557077e-01	9.474195e-01	9.807174e-01	1.012976e+00	1.062588e+00	1.034940e+00	1.027845e+00	1.005206e+00	9.971708e-01	9.723752e-01	9.640301e-01	9.392228e-01	9.311184e-01	9.076721e-01	9.002876e-01	8.672917e-01	8.617013e-01	8.932580e-01	8.865094e-01	7.937968e-01	7.921836e-01	7.907803e-01	7.895560e-01	8.807928e-01	8.086202e-01	8.199867e-01	9.555598e-01	9.606372e-01	8.689945e-01	8.722346e-01	1.069707e+00	8.350105e-01	7.833860e-01	7.841044e-01	8.070433e-01	8.052762e-01	8.146339e-01	8.123236e-01	1.091037e+00	1.084524e+00	8.943963e-01	8.985964e-01	1.025315e+00	1.297444e+00	8.252648e-01	1.311608e+00	8.534816e-01	8.292110e-01	9.510710e-01	8.777128e-01	1.007445e+00	1.107322e+00	1.101256e+00	1.096612e+00	1.081173e+00	1.115975e+00	1.160563e+00	1.181452e+00	1.153144e+00	1.200927e+00	1.103910e+00	1.283254e+00	9.202972e-01	1.010852e+00	1.131557e+00	8.756436e-01	1.172914e+00	1.220863e+00	9.222735e-01	1.275976e+00	9.269410e-01	1.131356e+00	9.863656e-01	1.190710e+00	8.325225e-01	9.812381e-01	9.176680e-01	1.139453e+00	1.160740e+00	1.095995e+00	8.593600e-01	1.093255e+00	9.162876e-01	1.125966e+00	8.544562e-01	8.065769e-01	8.136972e-01	7.935776e-01	7.998397e-01	1.171571e+00	1.293313e+00	1.184875e+00	9.088629e-01	1.240735e+00	1.055118e+00	9.323368e-01	1.312117e+00	8.665542e-01	8.627473e-01	1.078033e+00	9.819484e-01	1.017739e+00	9.871756e-01	9.238570e-01	1.097525e+00	1.095648e+00	1.051738e+00	1.045111e+00	8.120096e-01	8.084610e-01	8.010207e-01	7.918192e-01	9.087171e-01	9.131434e-01	8.458356e-01	9.421731e-01	7.927192e-01	1.095971e+00	1.136243e+00	1.028959e+00	1.134208e+00	1.249581e+00	1.314998e+00	1.053700e+00	1.186192e+00	1.178451e+00	1.070321e+00	1.122722e+00	8.819529e-01	8.611129e-01	8.264903e-01	9.708808e-01	9.760504e-01	9.913521e-01	9.960398e-01	9.598163e-01	9.455047e-01	1.000287e+00	1.004066e+00	1.029629e+00	1.041166e+00	1.112209e+00	9.414449e-01	9.462708e-01	1.145973e+00	8.650214e-01	8.679914e-01	8.572351e-01	8.595400e-01	1.031629e+00	1.015036e+00	1.021004e+00	8.815642e-01	8.737090e-01	8.810498e-01	8.845663e-01	1.085511e+00	1.099622e+00	9.317191e-01	9.366293e-01	9.092742e-01	8.990614e-01	8.898747e-01	8.882538e-01	8.921174e-01	1.011551e+00	9.928200e-01	9.755162e-01	8.368381e-01	8.424606e-01	8.483569e-01	8.605168e-01	8.551751e-01	8.503234e-01	8.418067e-01	8.381891e-01	8.289246e-01	8.298784e-01	8.350834e-01	8.181540e-01	8.492999e-01	8.440365e-01	1.096482e+00	8.390327e-01	8.343945e-01	8.302104e-01	8.232386e-01	1.071762e+00	8.042239e-01	8.102094e-01	8.046734e-01	8.028246e-01	7.921430e-01	7.919618e-01	7.917920e-01	9.552675e-01	1.065108e+00	1.058362e+00	1.038447e+00	1.031734e+00	1.024905e+00	1.010338e+00	1.002815e+00	9.950617e-01	9.792959e-01	9.713035e-01	9.632838e-01	9.473096e-01	9.393895e-01	9.315816e-01	9.088952e-01	8.695576e-01	8.642988e-01	9.017986e-01	8.949829e-01	8.883840e-01	7.993421e-01	7.978077e-01	7.965258e-01	7.954278e-01	7.944937e-01	8.287562e-01	8.425704e-01	9.559207e-01	9.608758e-01	9.658271e-01	8.711965e-01	8.744294e-01	8.600686e-01	8.817330e-01	7.926947e-01	7.944926e-01	7.967927e-01	8.102922e-01	8.203863e-01	8.178662e-01	8.155975e-01	1.089389e+00	1.084277e+00	1.078286e+00	8.960924e-01	9.001910e-01	9.043937e-01	8.324702e-01	8.304967e-01	1.289943e+00	9.281123e-01	1.129357e+00	1.097678e+00	8.831004e-01	1.261888e+00	1.159456e+00	1.013182e+00	1.018105e+00	1.057425e+00	1.112695e+00	8.576199e-01	1.271269e+00	9.660438e-01	1.206348e+00	1.092415e+00	1.120629e+00	1.172023e+00	9.172748e-01	1.130602e+00	1.185407e+00	1.188067e+00	9.563993e-01	8.739650e-01	1.104109e+00	8.600134e-01	9.402642e-01	8.662821e-01	8.357857e-01	1.101035e+00	8.780676e-01	1.090331e+00	1.087296e+00	9.861624e-01	7.998988e-01	8.103309e-01	1.122117e+00	8.187006e-01	9.865933e-01	1.146693e+00	1.106001e+00	1.144057e+00	1.078629e+00	1.128384e+00	9.234056e-01	1.231575e+00	9.285155e-01	9.326084e-01	1.154395e+00	1.129949e+00	1.180683e+00	1.015146e+00	8.615687e-01	8.157926e-01	1.219404e+00	1.002392e+00	9.253527e-01	1.048414e+00	8.175533e-01	8.140281e-01	8.121544e-01	9.144827e-01	9.194821e-01	1.095702e+00	1.042536e+00	1.086572e+00	1.254719e+00	1.296765e+00	1.080058e+00	1.065699e+00	1.113091e+00	8.850209e-01	9.764910e-01	9.814766e-01	9.914660e-01	9.961992e-01	9.674125e-01	9.532981e-01	1.000619e+00	1.004882e+00	1.009009e+00	1.041511e+00	1.053087e+00	9.468103e-01	9.520365e-01	1.137238e+00	8.682092e-01	8.709020e-01	8.628970e-01	8.647515e-01	1.024028e+00	1.031683e+00	8.891198e-01	8.806412e-01	8.871933e-01	1.091097e+00	1.102742e+00	9.377279e-01	9.430006e-01	9.169228e-01	9.067886e-01	8.978081e-01	8.901728e-01	8.945598e-01	1.037368e+00	1.017941e+00	9.994225e-01	9.825841e-01	8.403637e-01	8.449259e-01	8.502779e-01	8.555048e-01	8.679572e-01	8.623880e-01	8.571505e-01	8.524487e-01	8.482257e-01	8.373036e-01	8.358117e-01	8.445477e-01	8.519764e-01	1.094599e+00	1.093693e+00	8.468185e-01	8.419630e-01	8.375036e-01	8.334974e-01	8.299525e-01	8.268151e-01	8.370848e-01	8.085240e-01	8.069018e-01	7.996904e-01	7.999962e-01	8.007632e-01	8.015169e-01	1.067026e+00	1.060912e+00	1.054736e+00	1.042054e+00	1.035720e+00	1.029365e+00	1.021895e+00	1.008905e+00	1.000842e+00	9.934032e-01	9.781888e-01	9.709335e-01	9.627620e-01	9.555889e-01	9.473304e-01	9.403283e-01	9.321128e-01	8.673824e-01	8.717407e-01	9.108671e-01	9.031546e-01	8.972366e-01	8.900085e-01	8.053222e-01	8.039621e-01	8.026385e-01	8.016201e-01	8.007275e-01	8.001341e-01	8.492104e-01	8.647116e-01	9.616052e-01	9.667697e-01	9.715247e-01	8.740838e-01	8.764208e-01	8.803402e-01	8.841565e-01	9.071198e-01	9.339652e-01	8.026238e-01	8.049111e-01	8.087029e-01	8.131358e-01	8.268405e-01	8.241320e-01	8.217022e-01	8.193654e-01	1.072925e+00	1.083238e+00	1.078465e+00	8.978166e-01	9.024350e-01	9.059313e-01	9.107541e-01	8.413439e-01	8.387530e-01	8.368195e-01	1.148054e+00	1.125343e+00	1.073701e+00	1.177465e+00	1.171260e+00	9.363846e-01	9.363047e-01	1.193494e+00	1.096515e+00	1.235365e+00	1.081070e+00	8.827066e-01	8.076968e-01	1.018699e+00	1.127159e+00	1.234984e+00	1.292316e+00	1.294369e+00	1.281513e+00	1.250849e+00	1.138724e+00	8.218773e-01	1.084565e+00	1.121530e+00	1.026547e+00	9.595773e-01	8.664529e-01	1.115926e+00	1.068624e+00	1.081996e+00	8.774000e-01	8.678315e-01	9.226548e-01	9.813123e-01	8.606228e-01	8.874949e-01	8.229545e-01	1.109674e+00	9.483924e-01	1.165199e+00	1.099800e+00	1.292573e+00	1.182391e+00	1.173230e+00	1.019722e+00	1.061236e+00	1.266770e+00	9.858810e-01	1.215152e+00	1.088025e+00	1.162021e+00	1.177068e+00	1.178082e+00	1.125474e+00	8.423723e-01	8.430980e-01	1.104120e+00	8.873858e-01	1.085383e+00	1.113477e+00	9.275573e-01	1.200175e+00	8.193679e-01	8.182401e-01	8.157145e-01	9.187753e-01	1.053278e+00	1.089994e+00	1.275304e+00	1.103698e+00	9.825656e-01	9.866833e-01	9.920606e-01	9.964881e-01	9.612075e-01	9.754650e-01	1.001614e+00	1.005606e+00	1.010548e+00	1.015617e+00	1.052038e+00	1.062704e+00	9.508005e-01	1.128573e+00	8.712910e-01	8.741627e-01	8.679902e-01	8.702952e-01	1.033978e+00	1.042188e+00	8.964500e-01	8.873808e-01	1.095029e+00	1.104727e+00	9.443606e-01	9.247795e-01	9.139139e-01	9.072095e-01	8.947011e-01	1.042331e+00	1.023738e+00	1.005937e+00	9.904362e-01	8.452071e-01	8.475759e-01	8.527406e-01	8.570485e-01	8.623093e-01	8.749296e-01	8.704893e-01	8.634309e-01	8.599050e-01	8.541961e-01	1.094057e+00	1.092109e+00	1.090213e+00	8.543246e-01	8.500970e-01	8.446396e-01	8.411459e-01	8.364904e-01	8.442608e-01	8.563858e-01	8.147650e-01	8.124516e-01	8.070809e-01	8.098681e-01	8.118548e-01	1.062731e+00	1.057297e+00	1.051223e+00	1.045387e+00	1.039172e+00	1.033227e+00	1.026389e+00	1.016494e+00	1.007089e+00	9.953978e-01	9.666314e-01	9.518427e-01	9.371509e-01	9.086495e-01	8.962809e-01	8.118718e-01	8.097923e-01	8.095795e-01	8.076585e-01	8.080268e-01	8.073072e-01	8.072839e-01	8.706306e-01	8.867908e-01	9.677477e-01	9.722270e-01	9.772722e-01	8.772685e-01	8.811158e-01	9.067072e-01	9.305661e-01	9.565236e-01	8.138404e-01	8.168248e-01	8.216922e-01	8.287029e-01	8.358038e-01	8.339077e-01	8.301524e-01	8.285463e-01	8.257639e-01	1.078200e+00	1.072940e+00	9.023196e-01	9.103444e-01	8.516406e-01	8.471398e-01	8.457441e-01	8.427969e-01	1.166077e+00	1.154375e+00	1.181134e+00	1.254992e+00	1.180682e+00	1.088606e+00	1.106555e+00	1.183405e+00	1.086403e+00	1.141045e+00	1.105939e+00	1.255336e+00	1.081819e+00	1.161525e+00	8.282833e-01	1.177728e+00	1.060973e+00	1.152346e+00	1.141415e+00	1.079418e+00	8.888040e-01	1.101716e+00	8.496601e-01	1.035167e+00	1.024798e+00	9.106140e-01	9.442108e-01	8.865037e-01	1.231221e+00	8.726356e-01	9.701634e-01	9.573108e-01	8.172676e-01	1.094246e+00	1.066029e+00	1.212900e+00	1.031025e+00	1.070053e+00	1.170731e+00	1.097582e+00	1.291353e+00	1.244998e+00	1.113741e+00	9.441447e-01	8.700769e-01	8.599396e-01	1.112130e+00	1.173869e+00	1.129522e+00	1.275254e+00	1.176732e+00	1.064262e+00	1.216965e+00	1.199794e+00	8.879964e-01	1.101544e+00	1.083945e+00	1.080337e+00	8.786997e-01	8.245717e-01	8.210770e-01	9.358683e-01	1.091848e+00	1.122775e+00	1.122178e+00	9.901278e-01	9.994915e-01	9.830123e-01	1.009061e+00	1.017512e+00	1.060615e+00	1.120994e+00	8.760595e-01	1.043363e+00	1.051497e+00	8.996533e-01	1.097453e+00	9.513600e-01	9.587497e-01	9.280438e-01	9.145972e-01	8.954394e-01	1.046659e+00	1.028104e+00	1.011336e+00	9.997783e-01	8.534516e-01	8.612421e-01	8.688096e-01	8.740554e-01	8.636825e-01	1.091457e+00	1.088962e+00	8.502903e-01	8.421517e-01	8.759993e-01	8.182587e-01	8.225291e-01	1.003197e+00	1.056069e+00	1.044840e+00	1.033299e+00	1.022712e+00	1.013319e+00	9.908518e-01	9.771656e-01	9.630690e-01	9.489338e-01	9.347813e-01	9.208063e-01	9.080836e-01	8.975853e-01	8.162081e-01	8.148985e-01	8.151109e-01	8.138465e-01	8.159082e-01	8.921854e-01	9.090288e-01	9.672483e-01	9.753299e-01	9.832619e-01	8.800682e-01	8.837921e-01	9.281687e-01	9.512313e-01	9.763535e-01	1.002451e+00	8.263432e-01	8.299434e-01	8.354928e-01	8.439700e-01	8.548132e-01	8.608023e-01	8.360006e-01	8.325352e-01	1.077796e+00	1.073290e+00	9.028505e-01	9.187286e-01	9.272133e-01	8.557910e-01	8.507929e-01	1.117389e+00	1.166018e+00	1.161177e+00	1.136253e+00	1.025478e+00	1.108370e+00	1.173798e+00	1.135620e+00	1.185597e+00	1.135185e+00	1.147603e+00	1.126775e+00	1.092503e+00	1.193609e+00	1.235628e+00	1.088367e+00	9.515881e-01	8.358920e-01	1.125044e+00	1.017130e+00	1.099454e+00	8.876490e-01	1.066661e+00	1.169561e+00	8.756826e-01	1.043571e+00	9.189992e-01	8.966414e-01	1.083528e+00	1.091446e+00	1.082188e+00	1.067018e+00	1.171389e+00	1.098736e+00	1.103073e+00	1.082831e+00	8.283613e-01	8.985325e-01	9.355880e-01	9.897584e-01	1.150518e+00	1.157258e+00	1.272001e+00	1.075361e+00	1.085451e+00	1.175645e+00	1.099193e+00	1.169035e+00	1.152265e+00	8.908655e-01	1.224907e+00	9.799815e-01	9.646886e-01	1.094849e+00	1.233597e+00	1.067210e+00	1.106561e+00	9.439040e-01	1.254310e+00	1.176116e+00	1.005263e+00	1.213095e+00	1.200148e+00	8.801853e-01	1.117599e+00	1.079349e+00	8.891359e-01	8.319095e-01	9.086177e-01	1.118326e+00	1.143430e+00	9.980337e-01	1.007582e+00	1.025399e+00	1.034306e+00	1.114269e+00	8.793744e-01	1.051246e+00	1.059001e+00	8.698639e-01	9.748714e-01	9.828034e-01	9.588364e-01	9.500599e-01	9.347892e-01	9.199857e-01	1.049063e+00	8.581146e-01	8.628212e-01	9.055789e-01	8.916527e-01	9.271701e-01	1.091450e+00	8.707052e-01	8.608771e-01	8.332156e-01	1.059485e+00	1.049542e+00	1.009805e+00	1.038877e+00	1.028571e+00	1.019144e+00	9.991141e-01	9.867702e-01	9.735507e-01	9.600737e-01	9.464787e-01	9.328322e-01	9.199105e-01	8.255250e-01	8.237123e-01	8.228303e-01	8.228654e-01	8.230472e-01	8.274158e-01	9.123126e-01	9.305344e-01	9.666098e-01	9.900239e-01	8.826216e-01	8.863495e-01	9.484953e-01	9.694000e-01	9.929296e-01	1.016434e+00	1.041003e+00	8.402735e-01	8.460746e-01	8.514211e-01	8.596291e-01	8.717182e-01	8.520520e-01	8.450742e-01	8.400752e-01	1.074557e+00	1.067817e+00	9.035899e-01	9.111451e-01	8.791617e-01	8.690470e-01	8.617428e-01	8.578006e-01	1.152328e+00	1.152977e+00	1.149674e+00	1.121132e+00	1.156067e+00	1.140385e+00	1.113586e+00	1.050484e+00	1.172800e+00	1.120684e+00	1.117931e+00	1.071726e+00	1.166005e+00	1.084786e+00	8.331653e-01	1.137606e+00	1.141596e+00	1.128291e+00	1.169441e+00	1.070942e+00	9.260705e-01	1.027039e+00	1.024947e+00	9.594742e-01	1.132800e+00	1.131997e+00	1.128187e+00	1.171839e+00	1.172189e+00	9.002136e-01	9.