# vtk DataFile Version 3.0
vtk output
ASCII
DATASET UNSTRUCTURED_GRID
POINTS 200 float
9.997500e-01	-3.633243e-05	0.0	9.990000e-01	-1.454723e-04	0.0	9.977600e-01	-3.275073e-04	0.0	9.960200e-01	-5.899266e-04	0.0	9.937800e-01	-9.470929e-04	0.0	9.910500e-01	-1.422091e-03	0.0	9.878400e-01	-2.045505e-03	0.0	9.841300e-01	-2.853652e-03	0.0	9.799500e-01	-3.858845e-03	0.0	9.752800e-01	-5.058243e-03	0.0	9.701500e-01	-6.405031e-03	0.0	9.645400e-01	-7.840737e-03	0.0	9.584700e-01	-9.290025e-03	0.0	9.519400e-01	-1.069754e-02	0.0	9.449600e-01	-1.203534e-02	0.0	9.375400e-01	-1.330781e-02	0.0	9.296900e-01	-1.454228e-02	0.0	9.214000e-01	-1.577701e-02	0.0	9.127000e-01	-1.703926e-02	0.0	9.035800e-01	-1.835006e-02	0.0	8.940600e-01	-1.971305e-02	0.0	8.841500e-01	-2.112364e-02	0.0	8.738500e-01	-2.257360e-02	0.0	8.631800e-01	-2.405085e-02	0.0	8.521600e-01	-2.554472e-02	0.0	8.407700e-01	-2.705206e-02	0.0	8.290500e-01	-2.856361e-02	0.0	8.170100e-01	-3.007554e-02	0.0	8.046400e-01	-3.158703e-02	0.0	7.919700e-01	-3.309242e-02	0.0	7.790100e-01	-3.458844e-02	0.0	7.657800e-01	-3.607049e-02	0.0	7.522800e-01	-3.753600e-02	0.0	7.385200e-01	-3.898113e-02	0.0	7.245300e-01	-4.040001e-02	0.0	7.103200e-01	-4.178900e-02	0.0	6.958900e-01	-4.314555e-02	0.0	6.812700e-01	-4.446446e-02	0.0	6.664700e-01	-4.574273e-02	0.0	6.515000e-01	-4.697758e-02	0.0	6.363800e-01	-4.816570e-02	0.0	6.211300e-01	-4.930419e-02	0.0	6.057600e-01	-5.039118e-02	0.0	5.902800e-01	-5.142504e-02	0.0	5.747100e-01	-5.240372e-02	0.0	5.590600e-01	-5.332605e-02	0.0	5.433600e-01	-5.418994e-02	0.0	5.276100e-01	-5.499521e-02	0.0	5.118400e-01	-5.574020e-02	0.0	4.960500e-01	-5.642485e-02	0.0	4.802700e-01	-5.704783e-02	0.0	4.645100e-01	-5.760875e-02	0.0	4.487800e-01	-5.810712e-02	0.0	4.331100e-01	-5.854188e-02	0.0	4.175000e-01	-5.891279e-02	0.0	4.019700e-01	-5.921896e-02	0.0	3.865400e-01	-5.945950e-02	0.0	3.712300e-01	-5.963352e-02	0.0	3.560400e-01	-5.974023e-02	0.0	3.409900e-01	-5.977848e-02	0.0	3.261100e-01	-5.974716e-02	0.0	3.114000e-01	-5.964512e-02	0.0	2.968700e-01	-5.947100e-02	0.0	2.825500e-01	-5.922370e-02	0.0	2.684500e-01	-5.890194e-02	0.0	2.545700e-01	-5.850404e-02	0.0	2.409400e-01	-5.802914e-02	0.0	2.275700e-01	-5.747595e-02	0.0	2.144700e-01	-5.684319e-02	0.0	2.016600e-01	-5.613018e-02	0.0	1.891400e-01	-5.533523e-02	0.0	1.769300e-01	-5.445794e-02	0.0	1.650400e-01	-5.349745e-02	0.0	1.534900e-01	-5.245400e-02	0.0	1.422900e-01	-5.132730e-02	0.0	1.314400e-01	-5.011610e-02	0.0	1.209500e-01	-4.882015e-02	0.0	1.108500e-01	-4.744224e-02	0.0	1.011300e-01	-4.598019e-02	0.0	9.181000e-02	-4.443612e-02	0.0	8.290000e-02	-4.281114e-02	0.0	7.440000e-02	-4.110463e-02	0.0	6.633000e-02	-3.932011e-02	0.0	5.869000e-02	-3.745729e-02	0.0	5.149000e-02	-3.551818e-02	0.0	4.474000e-02	-3.350532e-02	0.0	3.844000e-02	-3.141840e-02	0.0	3.260000e-02	-2.926025e-02	0.0	2.723000e-02	-2.703457e-02	0.0	2.232000e-02	-2.473632e-02	0.0	1.790000e-02	-2.237951e-02	0.0	1.395000e-02	-1.995331e-02	0.0	1.049000e-02	-1.746898e-02	0.0	7.520000e-03	-1.492744e-02	0.0	5.040000e-03	-1.232885e-02	0.0	3.050000e-03	-9.671687e-03	0.0	1.560000e-03	-6.971179e-03	0.0	5.600000e-04	-4.206170e-03	0.0	6.000000e-05	-1.383997e-03	0.0	0.000000e+00	0.000000e+00	0.0	6.000000e-05	1.263698e-03	0.0	5.600000e-04	3.624876e-03	0.0	1.560000e-03	5.788531e-03	0.0	3.050000e-03	7.806431e-03	0.0	5.040000e-03	9.723603e-03	0.0	7.520000e-03	1.154780e-02	0.0	1.049000e-02	1.329402e-02	0.0	1.395000e-02	1.497276e-02	0.0	1.790000e-02	1.659195e-02	0.0	2.232000e-02	1.815121e-02	0.0	2.723000e-02	1.966367e-02	0.0	3.260000e-02	2.112522e-02	0.0	3.844000e-02	2.254354e-02	0.0	4.474000e-02	2.392000e-02	0.0	5.149000e-02	2.525598e-02	0.0	5.869000e-02	2.655449e-02	0.0	6.633000e-02	2.781627e-02	0.0	7.440000e-02	2.904197e-02	0.0	8.290000e-02	3.023350e-02	0.0	9.181000e-02	3.138978e-02	0.0	1.011300e-01	3.251230e-02	0.0	1.108500e-01	3.360103e-02	0.0	1.209500e-01	3.465484e-02	0.0	1.314400e-01	3.567559e-02	0.0	1.422900e-01	3.666099e-02	0.0	1.534900e-01	3.761077e-02	0.0	1.650400e-01	3.852530e-02	0.0	1.769300e-01	3.940390e-02	0.0	1.891400e-01	4.024508e-02	0.0	2.016600e-01	4.104807e-02	0.0	2.144700e-01	4.181137e-02	0.0	2.275700e-01	4.253456e-02	0.0	2.409400e-01	4.321594e-02	0.0	2.545700e-01	4.385425e-02	0.0	2.684500e-01	4.444810e-02	0.0	2.825500e-01	4.499518e-02	0.0	2.968700e-01	4.549431e-02	0.0	3.114000e-01	4.594372e-02	0.0	3.261100e-01	4.634094e-02	0.0	3.409900e-01	4.668410e-02	0.0	3.560400e-01	4.697132e-02	0.0	3.712300e-01	4.720004e-02	0.0	3.865400e-01	4.736796e-02	0.0	4.019700e-01	4.747292e-02	0.0	4.175000e-01	4.751248e-02	0.0	4.331100e-01	4.748429e-02	0.0	4.487800e-01	4.738610e-02	0.0	4.645100e-01	4.721558e-02	0.0	4.802700e-01	4.697075e-02	0.0	4.960500e-01	4.664958e-02	0.0	5.118400e-01	4.625015e-02	0.0	5.276100e-01	4.577133e-02	0.0	5.433600e-01	4.521141e-02	0.0	5.590600e-01	4.457005e-02	0.0	5.747100e-01	4.384611e-02	0.0	5.902800e-01	4.304025e-02	0.0	6.057600e-01	4.215273e-02	0.0	6.211300e-01	4.118492e-02	0.0	6.363800e-01	4.013823e-02	0.0	6.515000e-01	3.901461e-02	0.0	6.664700e-01	3.781740e-02	0.0	6.812700e-01	3.655083e-02	0.0	6.958900e-01	3.521903e-02	0.0	7.103200e-01	3.382683e-02	0.0	7.245300e-01	3.238178e-02	0.0	7.385200e-01	3.088922e-02	0.0	7.522800e-01	2.935610e-02	0.0	7.657800e-01	2.779232e-02	0.0	7.790100e-01	2.620625e-02	0.0	7.919700e-01	2.460555e-02	0.0	8.046400e-01	2.300073e-02	0.0	8.170100e-01	2.140143e-02	0.0	8.290500e-01	1.982000e-02	0.0	8.407700e-01	1.826324e-02	0.0	8.521600e-01	1.673960e-02	0.0	8.631800e-01	1.525990e-02	0.0	8.738500e-01	1.382463e-02	0.0	8.841500e-01	1.243702e-02	0.0	8.940600e-01	1.109826e-02	0.0	9.035800e-01	9.806670e-03	0.0	9.127000e-01	8.564955e-03	0.0	9.214000e-01	7.384059e-03	0.0	9.296900e-01	6.280544e-03	0.0	9.375400e-01	5.285370e-03	0.0	9.449600e-01	4.427678e-03	0.0	9.519400e-01	3.732384e-03	0.0	9.584700e-01	3.205602e-03	0.0	9.645400e-01	2.827160e-03	0.0	9.701500e-01	2.552202e-03	0.0	9.752800e-01	2.324934e-03	0.0	9.799500e-01	2.093124e-03	0.0	9.841300e-01	1.827060e-03	0.0	9.878400e-01	1.519918e-03	0.0	9.910500e-01	1.190209e-03	0.0	9.937800e-01	8.630243e-04	0.0	9.960200e-01	5.666270e-04	0.0	9.977600e-01	3.231884e-04	0.0	9.990000e-01	1.450783e-04	0.0	9.997500e-01	3.632619e-05	0.0	1.000000e+00	0.000000e+00	0.0	
CELLS 200	600
2	199	0	2	0	1	2	1	2	2	2	3	2	3	4	2	4	5	2	5	6	2	6	7	2	7	8	2	8	9	2	9	10	2	10	11	2	11	12	2	12	13	2	13	14	2	14	15	2	15	16	2	16	17	2	17	18	2	18	19	2	19	20	2	20	21	2	21	22	2	22	23	2	23	24	2	24	25	2	25	26	2	26	27	2	27	28	2	28	29	2	29	30	2	30	31	2	31	32	2	32	33	2	33	34	2	34	35	2	35	36	2	36	37	2	37	38	2	38	39	2	39	40	2	40	41	2	41	42	2	42	43	2	43	44	2	44	45	2	45	46	2	46	47	2	47	48	2	48	49	2	49	50	2	50	51	2	51	52	2	52	53	2	53	54	2	54	55	2	55	56	2	56	57	2	57	58	2	58	59	2	59	60	2	60	61	2	61	62	2	62	63	2	63	64	2	64	65	2	65	66	2	66	67	2	67	68	2	68	69	2	69	70	2	70	71	2	71	72	2	72	73	2	73	74	2	74	75	2	75	76	2	76	77	2	77	78	2	78	79	2	79	80	2	80	81	2	81	82	2	82	83	2	83	84	2	84	85	2	85	86	2	86	87	2	87	88	2	88	89	2	89	90	2	90	91	2	91	92	2	92	93	2	93	94	2	94	95	2	95	96	2	96	97	2	97	98	2	98	99	2	99	100	2	100	101	2	101	102	2	102	103	2	103	104	2	104	105	2	105	106	2	106	107	2	107	108	2	108	109	2	109	110	2	110	111	2	111	112	2	112	113	2	113	114	2	114	115	2	115	116	2	116	117	2	117	118	2	118	119	2	119	120	2	120	121	2	121	122	2	122	123	2	123	124	2	124	125	2	125	126	2	126	127	2	127	128	2	128	129	2	129	130	2	130	131	2	131	132	2	132	133	2	133	134	2	134	135	2	135	136	2	136	137	2	137	138	2	138	139	2	139	140	2	140	141	2	141	142	2	142	143	2	143	144	2	144	145	2	145	146	2	146	147	2	147	148	2	148	149	2	149	150	2	150	151	2	151	152	2	152	153	2	153	154	2	154	155	2	155	156	2	156	157	2	157	158	2	158	159	2	159	160	2	160	161	2	161	162	2	162	163	2	163	164	2	164	165	2	165	166	2	166	167	2	167	168	2	168	169	2	169	170	2	170	171	2	171	172	2	172	173	2	173	174	2	174	175	2	175	176	2	176	177	2	177	178	2	178	179	2	179	180	2	180	181	2	181	182	2	182	183	2	183	184	2	184	185	2	185	186	2	186	187	2	187	188	2	188	189	2	189	190	2	190	191	2	191	192	2	192	193	2	193	194	2	194	195	2	195	196	2	196	197	2	197	198	2	198	199	
CELL_TYPES 200
3	3	3	3	3	3	3	3	3	3	3	3	3	3	3	3	3	3	3	3	3	3	3	3	3	3	3	3	3	3	3	3	3	3	3	3	3	3	3	3	3	3	3	3	3	3	3	3	3	3	3	3	3	3	3	3	3	3	3	3	3	3	3	3	3	3	3	3	3	3	3	3	3	3	3	3	3	3	3	3	3	3	3	3	3	3	3	3	3	3	3	3	3	3	3	3	3	3	3	3	3	3	3	3	3	3	3	3	3	3	3	3	3	3	3	3	3	3	3	3	3	3	3	3	3	3	3	3	3	3	3	3	3	3	3	3	3	3	3	3	3	3	3	3	3	3	3	3	3	3	3	3	3	3	3	3	3	3	3	3	3	3	3	3	3	3	3	3	3	3	3	3	3	3	3	3	3	3	3	3	3	3	3	3	3	3	3	3	3	3	3	3	3	3	3	3	3	3	3	3	
POINT_DATA 200

SCALARS Conservative_1 float 1
LOOKUP_TABLE default
1.199828e+00	1.181603e+00	1.171178e+00	1.164739e+00	1.160165e+00	1.155700e+00	1.148815e+00	1.137897e+00	1.121716e+00	1.100362e+00	1.075073e+00	1.048463e+00	1.024897e+00	1.008363e+00	9.999899e-01	9.979320e-01	9.990415e-01	1.000484e+00	1.000512e+00	9.985234e-01	9.947399e-01	9.897185e-01	9.840443e-01	9.781889e-01	9.724300e-01	9.668785e-01	9.615257e-01	9.563251e-01	9.512121e-01	9.461552e-01	9.411385e-01	9.361181e-01	9.310601e-01	9.259808e-01	9.209316e-01	9.159608e-01	9.110871e-01	9.063149e-01	9.016556e-01	8.971257e-01	8.927250e-01	8.884641e-01	8.843252e-01	8.803251e-01	8.764786e-01	8.728374e-01	8.693912e-01	8.660759e-01	8.627445e-01	8.593871e-01	8.562060e-01	8.535550e-01	8.515479e-01	8.498929e-01	8.479171e-01	8.448694e-01	8.402505e-01	8.342087e-01	8.276237e-01	8.217522e-01	8.174798e-01	8.149993e-01	8.140379e-01	8.141630e-01	8.150648e-01	8.165444e-01	8.185525e-01	8.210055e-01	8.238173e-01	8.268752e-01	8.301982e-01	8.339492e-01	8.383752e-01	8.435441e-01	8.493797e-01	8.557356e-01	8.626764e-01	8.703804e-01	8.789047e-01	8.882885e-01	8.986437e-01	9.100291e-01	9.225961e-01	9.364626e-01	9.518184e-01	9.689406e-01	9.880574e-01	1.009527e+00	1.033836e+00	1.061299e+00	1.092447e+00	1.127746e+00	1.167046e+00	1.209886e+00	1.254555e+00	1.298041e+00	1.331744e+00	1.350900e+00	1.339533e+00	1.308264e+00	1.284247e+00	1.221077e+00	1.099422e+00	1.001938e+00	9.259448e-01	8.702451e-01	8.322735e-01	8.072788e-01	7.904546e-01	7.790617e-01	7.714049e-01	7.663151e-01	7.632330e-01	7.614214e-01	7.605061e-01	7.604838e-01	7.612261e-01	7.624960e-01	7.639722e-01	7.653276e-01	7.665795e-01	7.680515e-01	7.700020e-01	7.722810e-01	7.744891e-01	7.763988e-01	7.781020e-01	7.797457e-01	7.814326e-01	7.832332e-01	7.852027e-01	7.873249e-01	7.895269e-01	7.917080e-01	7.938247e-01	7.958515e-01	7.977788e-01	7.995687e-01	8.012307e-01	8.028791e-01	8.047251e-01	8.069226e-01	8.095196e-01	8.124805e-01	8.158127e-01	8.195848e-01	8.238331e-01	8.285263e-01	8.334872e-01	8.384995e-01	8.433513e-01	8.481010e-01	8.530520e-01	8.585609e-01	8.646921e-01	8.712144e-01	8.779041e-01	8.847586e-01	8.919454e-01	8.995121e-01	9.074077e-01	9.155444e-01	9.238732e-01	9.323818e-01	9.410406e-01	9.498362e-01	9.587184e-01	9.676696e-01	9.766155e-01	9.855586e-01	9.944159e-01	1.003107e+00	1.011568e+00	1.019717e+00	1.027506e+00	1.034915e+00	1.041990e+00	1.048911e+00	1.055937e+00	1.063459e+00	1.071772e+00	1.080974e+00	1.090682e+00	1.100034e+00	1.107781e+00	1.112586e+00	1.113360e+00	1.109741e+00	1.102492e+00	1.093779e+00	1.086678e+00	1.084162e+00	1.088066e+00	1.098281e+00	1.112854e+00	1.130018e+00	1.148480e+00	1.168636e+00	1.192714e+00	1.181127e+00	
SCALARS Conservative_2 float 1
LOOKUP_TABLE default
7.195761e-01	7.459518e-01	7.640429e-01	7.748526e-01	7.807449e-01	7.855188e-01	7.913250e-01	8.009904e-01	8.159997e-01	8.364063e-01	8.604943e-01	8.849365e-01	9.060901e-01	9.215745e-01	9.308004e-01	9.347630e-01	9.355169e-01	9.351562e-01	9.351396e-01	9.360789e-01	9.380276e-01	9.406847e-01	9.436747e-01	9.467070e-01	9.495951e-01	9.522732e-01	9.547362e-01	9.570262e-01	9.591537e-01	9.611509e-01	9.630528e-01	9.648517e-01	9.665619e-01	9.681811e-01	9.696966e-01	9.710965e-01	9.723952e-01	9.735738e-01	9.746425e-01	9.756165e-01	9.764769e-01	9.772586e-01	9.779352e-01	9.785438e-01	9.790518e-01	9.795000e-01	9.798657e-01	9.802011e-01	9.804743e-01	9.807244e-01	9.808924e-01	9.810054e-01	9.810483e-01	9.810778e-01	9.811134e-01	9.811872e-01	9.812259e-01	9.811489e-01	9.808248e-01	9.803294e-01	9.798256e-01	9.794125e-01	9.791630e-01	9.790118e-01	9.789596e-01	9.789158e-01	9.789031e-01	9.788497e-01	9.787693e-01	9.785947e-01	9.783393e-01	9.779494e-01	9.774269e-01	9.766916e-01	9.757308e-01	9.744044e-01	9.727324e-01	9.706199e-01	9.678365e-01	9.642273e-01	9.597022e-01	9.539693e-01	9.467652e-01	9.376732e-01	9.261779e-01	9.115511e-01	8.928609e-01	8.690329e-01	8.384945e-01	7.990964e-01	7.483526e-01	6.832155e-01	6.000211e-01	4.965641e-01	3.728515e-01	2.366423e-01	1.074543e-01	1.080446e-02	-2.158172e-02	5.237529e-03	7.307553e-02	2.105445e-01	4.135870e-01	5.903487e-01	7.153437e-01	7.969023e-01	8.484728e-01	8.813736e-01	9.026370e-01	9.169639e-01	9.270009e-01	9.341667e-01	9.396356e-01	9.439123e-01	9.473438e-01	9.502858e-01	9.528006e-01	9.549743e-01	9.569045e-01	9.585697e-01	9.600555e-01	9.614752e-01	9.628444e-01	9.640755e-01	9.651732e-01	9.661364e-01	9.670210e-01	9.678318e-01	9.686110e-01	9.693553e-01	9.700972e-01	9.708162e-01	9.715158e-01	9.721646e-01	9.727764e-01	9.733360e-01	9.738562e-01	9.743280e-01	9.747653e-01	9.751857e-01	9.756371e-01	9.760984e-01	9.765764e-01	9.770547e-01	9.775300e-01	9.780009e-01	9.784368e-01	9.788381e-01	9.791211e-01	9.793172e-01	9.794110e-01	9.794406e-01	9.793869e-01	9.792212e-01	9.788785e-01	9.783298e-01	9.776109e-01	9.766668e-01	9.755026e-01	9.740602e-01	9.723373e-01	9.703085e-01	9.679785e-01	9.653310e-01	9.623612e-01	9.590630e-01	9.554349e-01	9.515171e-01	9.472435e-01	9.427256e-01	9.379700e-01	9.329953e-01	9.279173e-01	9.227910e-01	9.176712e-01	9.125838e-01	9.074731e-01	9.022161e-01	8.965205e-01	8.900898e-01	8.825886e-01	8.740097e-01	8.647787e-01	8.559783e-01	8.491480e-01	8.458536e-01	8.471045e-01	8.528051e-01	8.614966e-01	8.705136e-01	8.765504e-01	8.769651e-01	8.704511e-01	8.577412e-01	8.395674e-01	8.174771e-01	7.911812e-01	7.596440e-01	7.213179e-01	6.623527e-01	
SCALARS Conservative_3 float 1
LOOKUP_TABLE default
1.010185e-01	1.066669e-01	1.128621e-01	1.197577e-01	1.301701e-01	1.447838e-01	1.632525e-01	1.836632e-01	2.028679e-01	2.169449e-01	2.227120e-01	2.185926e-01	2.055532e-01	1.873879e-01	1.688216e-01	1.535218e-01	1.431268e-01	1.373957e-01	1.349773e-01	1.342393e-01	1.338860e-01	1.331540e-01	1.317576e-01	1.297245e-01	1.272230e-01	1.244524e-01	1.215464e-01	1.185942e-01	1.156216e-01	1.126163e-01	1.095669e-01	1.064531e-01	1.032633e-01	9.999013e-02	9.661960e-02	9.316658e-02	8.962751e-02	8.602086e-02	8.235302e-02	7.863592e-02	7.488279e-02	7.110047e-02	6.730748e-02	6.350532e-02	5.970153e-02	5.588746e-02	5.206688e-02	4.825186e-02	4.446592e-02	4.071344e-02	3.695813e-02	3.314311e-02	2.924596e-02	2.525368e-02	2.119856e-02	1.712461e-02	1.307676e-02	9.041826e-03	4.912105e-03	5.512258e-04	-4.077400e-03	-8.952218e-03	-1.406189e-02	-1.939505e-02	-2.498993e-02	-3.087456e-02	-3.710525e-02	-4.369884e-02	-5.068892e-02	-5.809541e-02	-6.596521e-02	-7.436240e-02	-8.335732e-02	-9.298248e-02	-1.032806e-01	-1.143034e-01	-1.261621e-01	-1.389231e-01	-1.526625e-01	-1.675044e-01	-1.835673e-01	-2.009634e-01	-2.198484e-01	-2.403571e-01	-2.626100e-01	-2.867254e-01	-3.127741e-01	-3.407019e-01	-3.701224e-01	-4.003051e-01	-4.297752e-01	-4.554276e-01	-4.721894e-01	-4.716461e-01	-4.408792e-01	-3.644559e-01	-2.306518e-01	-3.806026e-02	1.858227e-01	3.519272e-01	4.964410e-01	6.611707e-01	7.236705e-01	6.883950e-01	6.111735e-01	5.274906e-01	4.530283e-01	3.912823e-01	3.411107e-01	3.001129e-01	2.665495e-01	2.386345e-01	2.151934e-01	1.952742e-01	1.781412e-01	1.632804e-01	1.503069e-01	1.388687e-01	1.287117e-01	1.195643e-01	1.112279e-01	1.036336e-01	9.673167e-02	9.042978e-02	8.459760e-02	7.908928e-02	7.387929e-02	6.894307e-02	6.427111e-02	5.981307e-02	5.553710e-02	5.141165e-02	4.740551e-02	4.348076e-02	3.961305e-02	3.578266e-02	3.197571e-02	2.817083e-02	2.433902e-02	2.045980e-02	1.653676e-02	1.257196e-02	8.554262e-03	4.451783e-03	2.463044e-04	-4.068200e-03	-8.488175e-03	-1.300475e-02	-1.763455e-02	-2.238787e-02	-2.728682e-02	-3.235201e-02	-3.753259e-02	-4.279917e-02	-4.810020e-02	-5.345551e-02	-5.888127e-02	-6.435768e-02	-6.982712e-02	-7.524586e-02	-8.057330e-02	-8.579637e-02	-9.085666e-02	-9.572523e-02	-1.003322e-01	-1.046533e-01	-1.086181e-01	-1.121917e-01	-1.153189e-01	-1.179556e-01	-1.200612e-01	-1.216017e-01	-1.225783e-01	-1.230165e-01	-1.229890e-01	-1.226415e-01	-1.221487e-01	-1.216882e-01	-1.213317e-01	-1.209151e-01	-1.199064e-01	-1.174099e-01	-1.123088e-01	-1.037193e-01	-9.145176e-02	-7.642807e-02	-6.081038e-02	-4.768398e-02	-4.029233e-02	-4.083796e-02	-4.941615e-02	-6.379310e-02	-8.016365e-02	-9.480108e-02	-1.049857e-01	-1.097974e-01	-1.102825e-01	-1.061985e-01	-1.003424e-01	2.575542e-03	
SCALARS Conservative_4 float 1
LOOKUP_TABLE default
3.446400e+00	3.400789e+00	3.375500e+00	3.359980e+00	3.348829e+00	3.337955e+00	3.320859e+00	3.293670e+00	3.253299e+00	3.199971e+00	3.136706e+00	3.069895e+00	3.010550e+00	2.968896e+00	2.947830e+00	2.942642e+00	2.945389e+00	2.948947e+00	2.948922e+00	2.943792e+00	2.934120e+00	2.921306e+00	2.906820e+00	2.891857e+00	2.877116e+00	2.862885e+00	2.849140e+00	2.835771e+00	2.822606e+00	2.809571e+00	2.796630e+00	2.783664e+00	2.770585e+00	2.757438e+00	2.744353e+00	2.731456e+00	2.718800e+00	2.706392e+00	2.694263e+00	2.682461e+00	2.670979e+00	2.659856e+00	2.649036e+00	2.638574e+00	2.628497e+00	2.618954e+00	2.609910e+00	2.601212e+00	2.592462e+00	2.583645e+00	2.575276e+00	2.568292e+00	2.562985e+00	2.558606e+00	2.553391e+00	2.545380e+00	2.533242e+00	2.517348e+00	2.499971e+00	2.484426e+00	2.473082e+00	2.466467e+00	2.463889e+00	2.464195e+00	2.466578e+00	2.470488e+00	2.475809e+00	2.482301e+00	2.489747e+00	2.497834e+00	2.506623e+00	2.516528e+00	2.528207e+00	2.541822e+00	2.557183e+00	2.573873e+00	2.592086e+00	2.612283e+00	2.634565e+00	2.659022e+00	2.685961e+00	2.715498e+00	2.748015e+00	2.783778e+00	2.823240e+00	2.867057e+00	2.915744e+00	2.970179e+00	3.031515e+00	3.100403e+00	3.178104e+00	3.265666e+00	3.362452e+00	3.467277e+00	3.575828e+00	3.681278e+00	3.762485e+00	3.809725e+00	3.781235e+00	3.702852e+00	3.649606e+00	3.499784e+00	3.190662e+00	2.942738e+00	2.747757e+00	2.604029e+00	2.505822e+00	2.441099e+00	2.397372e+00	2.367664e+00	2.347671e+00	2.334320e+00	2.326255e+00	2.321537e+00	2.319183e+00	2.319221e+00	2.321279e+00	2.324726e+00	2.328734e+00	2.332419e+00	2.335838e+00	2.339859e+00	2.345151e+00	2.351286e+00	2.357221e+00	2.362357e+00	2.366949e+00	2.371378e+00	2.375925e+00	2.380769e+00	2.386063e+00	2.391758e+00	2.397664e+00	2.403506e+00	2.409176e+00	2.414601e+00	2.419759e+00	2.424550e+00	2.429001e+00	2.433416e+00	2.438364e+00	2.444240e+00	2.451172e+00	2.459063e+00	2.467934e+00	2.477964e+00	2.489242e+00	2.501689e+00	2.514815e+00	2.528065e+00	2.540878e+00	2.553423e+00	2.566489e+00	2.581008e+00	2.597134e+00	2.614252e+00	2.631787e+00	2.649719e+00	2.668493e+00	2.688221e+00	2.708770e+00	2.729905e+00	2.751497e+00	2.773513e+00	2.795872e+00	2.818540e+00	2.841382e+00	2.864364e+00	2.887267e+00	2.910129e+00	2.932729e+00	2.954851e+00	2.976358e+00	2.997035e+00	3.016769e+00	3.035511e+00	3.053376e+00	3.070823e+00	3.088489e+00	3.107360e+00	3.128158e+00	3.151138e+00	3.175344e+00	3.198663e+00	3.218022e+00	3.230126e+00	3.232242e+00	3.223402e+00	3.205424e+00	3.183665e+00	3.165778e+00	3.159227e+00	3.168687e+00	3.194037e+00	3.230166e+00	3.272675e+00	3.318106e+00	3.367493e+00	3.426997e+00	3.383858e+00	
SCALARS Pressure float 1
LOOKUP_TABLE default
1.290548e+00	1.264205e+00	1.248337e+00	1.238434e+00	1.231529e+00	1.224773e+00	1.214688e+00	1.198772e+00	1.175261e+00	1.144280e+00	1.107706e+00	1.069460e+00	1.035764e+00	1.012143e+00	1.000152e+00	9.972148e-01	9.988483e-01	1.000986e+00	1.001119e+00	9.983996e-01	9.931344e-01	9.861237e-01	9.782076e-01	9.700543e-01	9.620584e-01	9.543724e-01	9.469842e-01	9.398214e-01	9.327994e-01	9.258706e-01	9.190053e-01	9.121509e-01	9.052600e-01	8.983547e-01	8.915050e-01	8.847769e-01	8.781910e-01	8.717590e-01	8.654932e-01	8.594109e-01	8.535183e-01	8.478190e-01	8.422990e-01	8.369690e-01	8.318597e-01	8.270267e-01	8.224648e-01	8.180742e-01	8.136724e-01	8.092337e-01	8.050439e-01	8.015620e-01	7.989446e-01	7.967898e-01	7.942039e-01	7.901827e-01	7.840853e-01	7.761255e-01	7.675056e-01	7.598689e-01	7.543462e-01	7.511682e-01	7.499503e-01	7.501379e-01	7.513157e-01	7.532467e-01	7.558541e-01	7.590469e-01	7.627016e-01	7.666868e-01	7.710178e-01	7.759220e-01	7.817167e-01	7.885080e-01	7.961861e-01	8.045896e-01	8.137787e-01	8.239977e-01	8.353694e-01	8.479600e-01	8.619032e-01	8.773170e-01	8.944147e-01	9.133961e-01	9.345594e-01	9.583414e-01	9.851282e-01	1.015457e+00	1.050092e+00	1.089629e+00	1.134898e+00	1.186701e+00	1.245072e+00	1.309379e+00	1.377182e+00	1.443417e+00	1.495270e+00	1.523658e+00	1.507269e+00	1.462203e+00	1.420630e+00	1.321053e+00	1.149880e+00	1.012934e+00	9.078928e-01	8.317170e-01	7.800122e-01	7.460553e-01	7.233602e-01	7.080883e-01	6.978517e-01	6.911087e-01	6.870054e-01	6.845707e-01	6.833112e-01	6.831853e-01	6.840582e-01	6.856242e-01	6.874446e-01	6.891109e-01	6.906347e-01	6.924249e-01	6.948334e-01	6.976962e-01	7.004792e-01	7.028828e-01	7.050149e-01	7.070747e-01	7.091879e-01	7.114528e-01	7.139339e-01	7.166176e-01	7.194055e-01	7.221742e-01	7.248612e-01	7.274382e-01	7.298883e-01	7.321647e-01	7.342754e-01	7.363679e-01	7.387079e-01	7.415081e-01	7.448291e-01	7.486274e-01	7.529126e-01	7.577742e-01	7.632686e-01	7.693508e-01	7.758110e-01	7.823495e-01	7.886905e-01	7.948983e-01	8.013789e-01	8.086088e-01	8.166895e-01	8.253217e-01	8.341968e-01	8.433269e-01	8.529265e-01	8.630722e-01	8.736947e-01	8.846842e-01	8.959740e-01	9.075507e-01	9.193765e-01	9.314339e-01	9.436591e-01	9.560171e-01	9.684324e-01	9.808774e-01	9.932467e-01	1.005435e+00	1.017336e+00	1.028830e+00	1.039848e+00	1.050355e+00	1.060422e+00	1.070298e+00	1.080373e+00	1.091198e+00	1.103221e+00	1.116570e+00	1.130692e+00	1.144296e+00	1.155519e+00	1.162387e+00	1.163328e+00	1.157880e+00	1.147239e+00	1.134597e+00	1.124451e+00	1.121067e+00	1.127022e+00	1.142002e+00	1.163407e+00	1.188661e+00	1.216116e+00	1.246309e+00	1.281864e+00	1.279255e+00	
SCALARS Temperature float 1
LOOKUP_TABLE default
1.075611e+00	1.069907e+00	1.065881e+00	1.063272e+00	1.061511e+00	1.059767e+00	1.057340e+00	1.053498e+00	1.047735e+00	1.039913e+00	1.030354e+00	1.020027e+00	1.010603e+00	1.003748e+00	1.000162e+00	9.992813e-01	9.998066e-01	1.000502e+00	1.000607e+00	9.998761e-01	9.983860e-01	9.963678e-01	9.940687e-01	9.916840e-01	9.893343e-01	9.870655e-01	9.848766e-01	9.827425e-01	9.806430e-01	9.785610e-01	9.764825e-01	9.743972e-01	9.722896e-01	9.701655e-01	9.680469e-01	9.659550e-01	9.638936e-01	9.618721e-01	9.598933e-01	9.579604e-01	9.560820e-01	9.542525e-01	9.524765e-01	9.507499e-01	9.490929e-01	9.475151e-01	9.460239e-01	9.445757e-01	9.431209e-01	9.416404e-01	9.402456e-01	9.390865e-01	9.382262e-01	9.375179e-01	9.366528e-01	9.352720e-01	9.331566e-01	9.303733e-01	9.273605e-01	9.246935e-01	9.227705e-01	9.216796e-01	9.212720e-01	9.213609e-01	9.217865e-01	9.224811e-01	9.234033e-01	9.245333e-01	9.258141e-01	9.272099e-01	9.287153e-01	9.304187e-01	9.324187e-01	9.347561e-01	9.373736e-01	9.402316e-01	9.433186e-01	9.467098e-01	9.504664e-01	9.545998e-01	9.591156e-01	9.640538e-01	9.694542e-01	9.753684e-01	9.818674e-01	9.890610e-01	9.970354e-01	1.005874e+00	1.015724e+00	1.026693e+00	1.038859e+00	1.052276e+00	1.066858e+00	1.082233e+00	1.097745e+00	1.111996e+00	1.122791e+00	1.127884e+00	1.125220e+00	1.117666e+00	1.106196e+00	1.081875e+00	1.045895e+00	1.010975e+00	9.805043e-01	9.557273e-01	9.372065e-01	9.241607e-01	9.151192e-01	9.088989e-01	9.046504e-01	9.018597e-01	9.001254e-01	8.990695e-01	8.984954e-01	8.983562e-01	8.986269e-01	8.991841e-01	8.998294e-01	9.004129e-01	9.009304e-01	9.015345e-01	9.023787e-01	9.034227e-01	9.044403e-01	9.053116e-01	9.060700e-01	9.068017e-01	9.075483e-01	9.083537e-01	9.092351e-01	9.101929e-01	9.111855e-01	9.121724e-01	9.131250e-01	9.140376e-01	9.149007e-01	9.156995e-01	9.164344e-01	9.171591e-01	9.179631e-01	9.189334e-01	9.200877e-01	9.214097e-01	9.228988e-01	9.245831e-01	9.264845e-01	9.285774e-01	9.308013e-01	9.330352e-01	9.351862e-01	9.372684e-01	9.394256e-01	9.418188e-01	9.444859e-01	9.473233e-01	9.502141e-01	9.531718e-01	9.562542e-01	9.594893e-01	9.628469e-01	9.662931e-01	9.698020e-01	9.733681e-01	9.769785e-01	9.806259e-01	9.842922e-01	9.879581e-01	9.916209e-01	9.952502e-01	9.988243e-01	1.002322e+00	1.005701e+00	1.008937e+00	1.012011e+00	1.014919e+00	1.017690e+00	1.020390e+00	1.023142e+00	1.026084e+00	1.029343e+00	1.032930e+00	1.036683e+00	1.040236e+00	1.043094e+00	1.044761e+00	1.044880e+00	1.043378e+00	1.040587e+00	1.037318e+00	1.034760e+00	1.034040e+00	1.035803e+00	1.039808e+00	1.045426e+00	1.051895e+00	1.058892e+00	1.066465e+00	1.074746e+00	1.083081e+00	
SCALARS Pressure_Coefficient float 1
LOOKUP_TABLE default
6.485457e-01	5.897440e-01	5.543238e-01	5.322182e-01	5.168049e-01	5.017243e-01	4.792138e-01	4.436883e-01	3.912067e-01	3.220539e-01	2.404160e-01	1.550449e-01	7.983011e-02	2.710435e-02	3.394109e-04	-6.216934e-03	-2.570798e-03	2.201787e-03	2.498246e-03	-3.572306e-03	-1.532498e-02	-3.097394e-02	-4.864365e-02	-6.684317e-02	-8.469118e-02	-1.018473e-01	-1.183389e-01	-1.343273e-01	-1.500013e-01	-1.654675e-01	-1.807918e-01	-1.960918e-01	-2.114732e-01	-2.268869e-01	-2.421763e-01	-2.571944e-01	-2.718951e-01	-2.862523e-01	-3.002384e-01	-3.138150e-01	-3.269681e-01	-3.396896e-01	-3.520111e-01	-3.639084e-01	-3.753132e-01	-3.861011e-01	-3.962839e-01	-4.060843e-01	-4.159099e-01	-4.258177e-01	-4.351698e-01	-4.429421e-01	-4.487844e-01	-4.535941e-01	-4.593662e-01	-4.683421e-01	-4.819525e-01	-4.997199e-01	-5.189608e-01	-5.360069e-01	-5.483343e-01	-5.554280e-01	-5.581466e-01	-5.577279e-01	-5.550989e-01	-5.507885e-01	-5.449686e-01	-5.378417e-01	-5.296838e-01	-5.207884e-01	-5.111210e-01	-5.001741e-01	-4.872395e-01	-4.720804e-01	-4.549417e-01	-4.361838e-01	-4.156725e-01	-3.928623e-01	-3.674791e-01	-3.393750e-01	-3.082518e-01	-2.738460e-01	-2.356814e-01	-1.933124e-01	-1.460727e-01	-9.298800e-02	-3.319600e-02	3.450249e-02	1.118132e-01	2.000644e-01	3.011126e-01	4.167433e-01	5.470366e-01	6.905771e-01	8.419239e-01	9.897696e-01	1.105514e+00	1.168880e+00	1.132296e+00	1.031703e+00	9.389061e-01	7.166354e-01	3.345531e-01	2.886957e-02	-2.055964e-01	-3.756318e-01	-4.910443e-01	-5.668409e-01	-6.174995e-01	-6.515885e-01	-6.744382e-01	-6.894894e-01	-6.986486e-01	-7.040833e-01	-7.068946e-01	-7.071756e-01	-7.052272e-01	-7.017316e-01	-6.976682e-01	-6.939489e-01	-6.905475e-01	-6.865516e-01	-6.811753e-01	-6.747853e-01	-6.685733e-01	-6.632080e-01	-6.584489e-01	-6.538512e-01	-6.491342e-01	-6.440785e-01	-6.385405e-01	-6.325501e-01	-6.263271e-01	-6.201468e-01	-6.141491e-01	-6.083969e-01	-6.029278e-01	-5.978467e-01	-5.931353e-01	-5.884646e-01	-5.832412e-01	-5.769909e-01	-5.695780e-01	-5.610995e-01	-5.515343e-01	-5.406825e-01	-5.284183e-01	-5.148420e-01	-5.004219e-01	-4.858270e-01	-4.716730e-01	-4.578164e-01	-4.433506e-01	-4.272124e-01	-4.091752e-01	-3.899069e-01	-3.700964e-01	-3.497166e-01	-3.282891e-01	-3.056424e-01	-2.819315e-01	-2.574013e-01	-2.322008e-01	-2.063600e-01	-1.799632e-01	-1.530493e-01	-1.257610e-01	-9.817617e-02	-7.046339e-02	-4.268433e-02	-1.507431e-02	1.213281e-02	3.869584e-02	6.435340e-02	8.894636e-02	1.124001e-01	1.348709e-01	1.569159e-01	1.794046e-01	2.035660e-01	2.304033e-01	2.602016e-01	2.917225e-01	3.220886e-01	3.471415e-01	3.624702e-01	3.645712e-01	3.524097e-01	3.286581e-01	3.004387e-01	2.777926e-01	2.702381e-01	2.835306e-01	3.169677e-01	3.647480e-01	4.211176e-01	4.824029e-01	5.497976e-01	6.291611e-01	6.233378e-01	
SCALARS Mach float 1
LOOKUP_TABLE default
4.935191e-01	5.210717e-01	5.398381e-01	5.517350e-01	5.596503e-01	5.674098e-01	5.780750e-01	5.946620e-01	6.189285e-01	6.508155e-01	6.883862e-01	7.275290e-01	7.621390e-01	7.867457e-01	7.994476e-01	8.025503e-01	8.007007e-01	7.982491e-01	7.978771e-01	8.004561e-01	8.056977e-01	8.127676e-01	8.207820e-01	8.290518e-01	8.371585e-01	8.449483e-01	8.524301e-01	8.596933e-01	8.668103e-01	8.738402e-01	8.808318e-01	8.878207e-01	8.948589e-01	9.019272e-01	9.089531e-01	9.158674e-01	9.226593e-01	9.292995e-01	9.357804e-01	9.420939e-01	9.482131e-01	9.541582e-01	9.599158e-01	9.655009e-01	9.708495e-01	9.759324e-01	9.807279e-01	9.853770e-01	9.900394e-01	9.947764e-01	9.992324e-01	1.002930e+00	1.005672e+00	1.007927e+00	1.010680e+00	1.015069e+00	1.021780e+00	1.030590e+00	1.040101e+00	1.048500e+00	1.054544e+00	1.057968e+00	1.059247e+00	1.058968e+00	1.057633e+00	1.055452e+00	1.052556e+00	1.049004e+00	1.044973e+00	1.040576e+00	1.035827e+00	1.030447e+00	1.024118e+00	1.016707e+00	1.008387e+00	9.992771e-01	9.894062e-01	9.785231e-01	9.664167e-01	9.530307e-01	9.383226e-01	9.221324e-01	9.042888e-01	8.845688e-01	8.626634e-01	8.380988e-01	8.104326e-01	7.791641e-01	7.434512e-01	7.024196e-01	6.550270e-01	5.998646e-01	5.353336e-01	4.598642e-01	3.712560e-01	2.683050e-01	1.523963e-01	2.330677e-02	1.112685e-01	2.150728e-01	3.139739e-01	4.617338e-01	6.265314e-01	7.607930e-01	8.672794e-01	9.493668e-01	1.008919e+00	1.050175e+00	1.078501e+00	1.097882e+00	1.111075e+00	1.119722e+00	1.125090e+00	1.128356e+00	1.130131e+00	1.130561e+00	1.129724e+00	1.128002e+00	1.126006e+00	1.124201e+00	1.122599e+00	1.120729e+00	1.118115e+00	1.114881e+00	1.111726e+00	1.109024e+00	1.106670e+00	1.104399e+00	1.102079e+00	1.099577e+00	1.096836e+00	1.093857e+00	1.090767e+00	1.087693e+00	1.084724e+00	1.081877e+00	1.079184e+00	1.076689e+00	1.074393e+00	1.072127e+00	1.069613e+00	1.066576e+00	1.062960e+00	1.058815e+00	1.054141e+00	1.048847e+00	1.042862e+00	1.036263e+00	1.029237e+00	1.022165e+00	1.015341e+00	1.008722e+00	1.001849e+00	9.942060e-01	9.856648e-01	9.765499e-01	9.672317e-01	9.576633e-01	9.476528e-01	9.371016e-01	9.260999e-01	9.147515e-01	9.031347e-01	8.912606e-01	8.791657e-01	8.668682e-01	8.544221e-01	8.418879e-01	8.292699e-01	8.166687e-01	8.041578e-01	7.918128e-01	7.797801e-01	7.681618e-01	7.570276e-01	7.464059e-01	7.362031e-01	7.261723e-01	7.158656e-01	7.047394e-01	6.922824e-01	6.783992e-01	6.636693e-01	6.495185e-01	6.379815e-01	6.311823e-01	6.306962e-01	6.368265e-01	6.481110e-01	6.611553e-01	6.712451e-01	6.740647e-01	6.671454e-01	6.512363e-01	6.284572e-01	6.014816e-01	5.712698e-01	5.371511e-01	4.977778e-01	4.554091e-01	