# vtk DataFile Version 3.0
vtk output
ASCII
DATASET UNSTRUCTURED_GRID
POINTS 5233 float
9.997500e-01	-3.633629e-05	0.0	9.990000e-01	-1.457162e-04	0.0	9.977600e-01	-3.301809e-04	0.0	9.960200e-01	-6.043541e-04	0.0	9.937800e-01	-9.991695e-04	0.0	9.910500e-01	-1.565814e-03	0.0	9.878400e-01	-2.371555e-03	0.0	9.841300e-01	-3.491355e-03	0.0	9.799500e-01	-4.957971e-03	0.0	9.752800e-01	-6.765263e-03	0.0	9.701500e-01	-8.823640e-03	0.0	9.645400e-01	-1.101357e-02	0.0	9.584700e-01	-1.318909e-02	0.0	9.519400e-01	-1.524664e-02	0.0	9.449600e-01	-1.714448e-02	0.0	9.375400e-01	-1.890989e-02	0.0	9.296900e-01	-2.061680e-02	0.0	9.214000e-01	-2.235580e-02	0.0	9.127000e-01	-2.419176e-02	0.0	9.035800e-01	-2.616424e-02	0.0	8.940600e-01	-2.827068e-02	0.0	8.841500e-01	-3.048319e-02	0.0	8.738500e-01	-3.276105e-02	0.0	8.631800e-01	-3.505536e-02	0.0	8.521600e-01	-3.732203e-02	0.0	8.407700e-01	-3.953386e-02	0.0	8.290500e-01	-4.166200e-02	0.0	8.170100e-01	-4.369383e-02	0.0	8.046400e-01	-4.562805e-02	0.0	7.919700e-01	-4.746329e-02	0.0	7.790100e-01	-4.920602e-02	0.0	7.657800e-01	-5.086382e-02	0.0	7.522800e-01	-5.244741e-02	0.0	7.385200e-01	-5.396513e-02	0.0	7.245300e-01	-5.542105e-02	0.0	7.103200e-01	-5.681843e-02	0.0	6.958900e-01	-5.815778e-02	0.0	6.812700e-01	-5.943310e-02	0.0	6.664700e-01	-6.063694e-02	0.0	6.515000e-01	-6.175898e-02	0.0	6.363800e-01	-6.278622e-02	0.0	6.211300e-01	-6.370493e-02	0.0	6.057600e-01	-6.450218e-02	0.0	5.902800e-01	-6.516607e-02	0.0	5.747100e-01	-6.568634e-02	0.0	5.590600e-01	-6.605595e-02	0.0	5.433600e-01	-6.627083e-02	0.0	5.276100e-01	-6.633109e-02	0.0	5.118400e-01	-6.624026e-02	0.0	4.960500e-01	-6.600526e-02	0.0	4.802700e-01	-6.563640e-02	0.0	4.645100e-01	-6.514625e-02	0.0	4.487800e-01	-6.454907e-02	0.0	4.331100e-01	-6.386103e-02	0.0	4.175000e-01	-6.309744e-02	0.0	4.019700e-01	-6.227406e-02	0.0	3.865400e-01	-6.140569e-02	0.0	3.712300e-01	-6.050563e-02	0.0	3.560400e-01	-5.958389e-02	0.0	3.409900e-01	-5.864929e-02	0.0	3.261100e-01	-5.770871e-02	0.0	3.114000e-01	-5.676453e-02	0.0	2.968700e-01	-5.581713e-02	0.0	2.825500e-01	-5.486579e-02	0.0	2.684500e-01	-5.390635e-02	0.0	2.545700e-01	-5.293211e-02	0.0	2.409400e-01	-5.193703e-02	0.0	2.275700e-01	-5.091278e-02	0.0	2.144700e-01	-4.985046e-02	0.0	2.016600e-01	-4.874199e-02	0.0	1.891400e-01	-4.757796e-02	0.0	1.769300e-01	-4.635152e-02	0.0	1.650400e-01	-4.505615e-02	0.0	1.534900e-01	-4.368800e-02	0.0	1.422900e-01	-4.224406e-02	0.0	1.314400e-01	-4.072181e-02	0.0	1.209500e-01	-3.912187e-02	0.0	1.108500e-01	-3.745046e-02	0.0	1.011300e-01	-3.570953e-02	0.0	9.181000e-02	-3.390805e-02	0.0	8.290000e-02	-3.205531e-02	0.0	7.440000e-02	-3.016008e-02	0.0	6.633000e-02	-2.823696e-02	0.0	5.869000e-02	-2.629716e-02	0.0	5.149000e-02	-2.435496e-02	0.0	4.474000e-02	-2.242514e-02	0.0	3.844000e-02	-2.051950e-02	0.0	3.260000e-02	-1.865209e-02	0.0	2.723000e-02	-1.683606e-02	0.0	2.232000e-02	-1.507582e-02	0.0	1.790000e-02	-1.338761e-02	0.0	1.395000e-02	-1.176582e-02	0.0	1.049000e-02	-1.021584e-02	0.0	7.520000e-03	-8.729604e-03	0.0	5.040000e-03	-7.290779e-03	0.0	3.050000e-03	-5.871003e-03	0.0	1.560000e-03	-4.433540e-03	0.0	5.600000e-04	-2.891459e-03	0.0	6.000000e-05	-1.095807e-03	0.0	0.000000e+00	0.000000e+00	0.0	6.000000e-05	1.091884e-03	0.0	5.600000e-04	2.891096e-03	0.0	1.560000e-03	4.447541e-03	0.0	3.050000e-03	5.902171e-03	0.0	5.040000e-03	7.335554e-03	0.0	7.520000e-03	8.779272e-03	0.0	1.049000e-02	1.025796e-02	0.0	1.395000e-02	1.178537e-02	0.0	1.790000e-02	1.336807e-02	0.0	2.232000e-02	1.500040e-02	0.0	2.723000e-02	1.668806e-02	0.0	3.260000e-02	1.841629e-02	0.0	3.844000e-02	2.018215e-02	0.0	4.474000e-02	2.197464e-02	0.0	5.149000e-02	2.378211e-02	0.0	5.869000e-02	2.559503e-02	0.0	6.633000e-02	2.740093e-02	0.0	7.440000e-02	2.918758e-02	0.0	8.290000e-02	3.094515e-02	0.0	9.181000e-02	3.266017e-02	0.0	1.011300e-01	3.432395e-02	0.0	1.108500e-01	3.592662e-02	0.0	1.209500e-01	3.745791e-02	0.0	1.314400e-01	3.891324e-02	0.0	1.422900e-01	4.028348e-02	0.0	1.534900e-01	4.156400e-02	0.0	1.650400e-01	4.275253e-02	0.0	1.769300e-01	4.384690e-02	0.0	1.891400e-01	4.484563e-02	0.0	2.016600e-01	4.574970e-02	0.0	2.144700e-01	4.656087e-02	0.0	2.275700e-01	4.728347e-02	0.0	2.409400e-01	4.792180e-02	0.0	2.545700e-01	4.848181e-02	0.0	2.684500e-01	4.897031e-02	0.0	2.825500e-01	4.939418e-02	0.0	2.968700e-01	4.976183e-02	0.0	3.114000e-01	5.008152e-02	0.0	3.261100e-01	5.036116e-02	0.0	3.409900e-01	5.060897e-02	0.0	3.560400e-01	5.083286e-02	0.0	3.712300e-01	5.103968e-02	0.0	3.865400e-01	5.123564e-02	0.0	4.019700e-01	5.142618e-02	0.0	4.175000e-01	5.161533e-02	0.0	4.331100e-01	5.180576e-02	0.0	4.487800e-01	5.199863e-02	0.0	4.645100e-01	5.219371e-02	0.0	4.802700e-01	5.238858e-02	0.0	4.960500e-01	5.257914e-02	0.0	5.118400e-01	5.275922e-02	0.0	5.276100e-01	5.292024e-02	0.0	5.433600e-01	5.305176e-02	0.0	5.590600e-01	5.314080e-02	0.0	5.747100e-01	5.317250e-02	0.0	5.902800e-01	5.312998e-02	0.0	6.057600e-01	5.299490e-02	0.0	6.211300e-01	5.274808e-02	0.0	6.363800e-01	5.236997e-02	0.0	6.515000e-01	5.184161e-02	0.0	6.664700e-01	5.114613e-02	0.0	6.812700e-01	5.026993e-02	0.0	6.958900e-01	4.920328e-02	0.0	7.103200e-01	4.794174e-02	0.0	7.245300e-01	4.648939e-02	0.0	7.385200e-01	4.485485e-02	0.0	7.522800e-01	4.305495e-02	0.0	7.657800e-01	4.111666e-02	0.0	7.790100e-01	3.907092e-02	0.0	7.919700e-01	3.695166e-02	0.0	8.046400e-01	3.479859e-02	0.0	8.170100e-01	3.265007e-02	0.0	8.290500e-01	3.054549e-02	0.0	8.407700e-01	2.851255e-02	0.0	8.521600e-01	2.657609e-02	0.0	8.631800e-01	2.475882e-02	0.0	8.738500e-01	2.306655e-02	0.0	8.841500e-01	2.150554e-02	0.0	8.940600e-01	2.007599e-02	0.0	9.035800e-01	1.876834e-02	0.0	9.127000e-01	1.756537e-02	0.0	9.214000e-01	1.643841e-02	0.0	9.296900e-01	1.534016e-02	0.0	9.375400e-01	1.421677e-02	0.0	9.449600e-01	1.300737e-02	0.0	9.519400e-01	1.166918e-02	0.0	9.584700e-01	1.019403e-02	0.0	9.645400e-01	8.619760e-03	0.0	9.701500e-01	7.022980e-03	0.0	9.752800e-01	5.506555e-03	0.0	9.799500e-01	4.153091e-03	0.0	9.841300e-01	3.026657e-03	0.0	9.878400e-01	2.134786e-03	0.0	9.910500e-01	1.461700e-03	0.0	9.937800e-01	9.615087e-04	0.0	9.960200e-01	5.939325e-04	0.0	9.977600e-01	3.282511e-04	0.0	9.990000e-01	1.455402e-04	0.0	9.997500e-01	3.633350e-05	0.0	1.000000e+00	0.000000e+00	0.0	1.984229e+01	2.506660e+00	0.0	1.937166e+01	4.973800e+00	0.0	1.859553e+01	7.362490e+00	0.0	1.752613e+01	9.635070e+00	0.0	1.618034e+01	1.175571e+01	0.0	1.457937e+01	1.369094e+01	0.0	1.274848e+01	1.541027e+01	0.0	1.071654e+01	1.688656e+01	0.0	8.515590e+00	1.809654e+01	0.0	6.180340e+00	1.902113e+01	0.0	3.747630e+00	1.964575e+01	0.0	1.255810e+00	1.996053e+01	0.0	-1.255810e+00	1.996053e+01	0.0	-3.747630e+00	1.964574e+01	0.0	-6.180340e+00	1.902113e+01	0.0	-8.515590e+00	1.809654e+01	0.0	-1.071654e+01	1.688656e+01	0.0	-1.274848e+01	1.541026e+01	0.0	-1.457937e+01	1.369094e+01	0.0	-1.618034e+01	1.175570e+01	0.0	-1.752613e+01	9.635070e+00	0.0	-1.859553e+01	7.362490e+00	0.0	-1.937166e+01	4.973800e+00	0.0	-1.984229e+01	2.506660e+00	0.0	-2.000000e+01	0.000000e+00	0.0	-1.984229e+01	-2.506670e+00	0.0	-1.937166e+01	-4.973800e+00	0.0	-1.859553e+01	-7.362490e+00	0.0	-1.752613e+01	-9.635080e+00	0.0	-1.618034e+01	-1.175571e+01	0.0	-1.457937e+01	-1.369094e+01	0.0	-1.274848e+01	-1.541027e+01	0.0	-1.071653e+01	-1.688656e+01	0.0	-8.515580e+00	-1.809654e+01	0.0	-6.180340e+00	-1.902113e+01	0.0	-3.747620e+00	-1.964575e+01	0.0	-1.255810e+00	-1.996053e+01	0.0	1.255810e+00	-1.996053e+01	0.0	3.747630e+00	-1.964574e+01	0.0	6.180340e+00	-1.902113e+01	0.0	8.515590e+00	-1.809654e+01	0.0	1.071654e+01	-1.688656e+01	0.0	1.274848e+01	-1.541026e+01	0.0	1.457937e+01	-1.369094e+01	0.0	1.618034e+01	-1.175570e+01	0.0	1.752614e+01	-9.635070e+00	0.0	1.859553e+01	-7.362490e+00	0.0	1.937166e+01	-4.973790e+00	0.0	1.984229e+01	-2.506660e+00	0.0	2.000000e+01	0.000000e+00	0.0	6.102683e-02	-3.427463e-02	0.0	6.600965e-01	-7.471695e-02	0.0	4.253397e-01	6.616210e-02	0.0	6.897056e-01	6.267741e-02	0.0	3.784738e-01	-7.505667e-02	0.0	9.994680e-01	-7.764313e-04	0.0	9.985415e-01	-1.409096e-03	0.0	7.740765e-01	-6.187714e-02	0.0	6.898634e-01	-7.201605e-02	0.0	-6.421537e-04	4.508549e-03	0.0	7.469584e-01	-6.558356e-02	0.0	5.830061e-01	6.725906e-02	0.0	9.928119e-01	-3.993332e-03	0.0	9.899548e-01	-5.157592e-03	0.0	5.985988e-01	6.703319e-02	0.0	7.188576e-01	-6.895653e-02	0.0	-1.118037e-03	5.691348e-04	0.0	9.866272e-01	-6.570025e-03	0.0	9.828323e-01	-8.251446e-03	0.0	-6.467728e-04	-4.493873e-03	0.0	6.449633e-01	-7.591267e-02	0.0	8.248946e-01	-5.334562e-02	0.0	8.000871e-01	-5.781594e-02	0.0	3.483468e-01	6.462584e-02	0.0	8.483608e-01	-4.851557e-02	0.0	2.472017e-01	6.065525e-02	0.0	8.704216e-01	-4.342320e-02	0.0	1.074371e-02	1.435043e-02	0.0	8.909680e-01	-3.829184e-02	0.0	7.719253e-02	-3.884562e-02	0.0	9.099346e-01	-3.337846e-02	0.0	-1.275242e-03	-2.290174e-03	0.0	9.428564e-01	-2.435217e-02	0.0	9.272557e-01	-2.879484e-02	0.0	1.862207e-02	-1.847715e-02	0.0	4.250840e-01	-7.772266e-02	0.0	8.595762e-01	-4.598810e-02	0.0	9.566648e-01	-1.970089e-02	0.0	9.785608e-01	-1.023098e-02	0.0	9.685842e-01	-1.480913e-02	0.0	1.580782e-01	-5.485795e-02	0.0	9.006549e-01	-3.579494e-02	0.0	7.606504e-01	-6.377321e-02	0.0	9.971164e-01	-2.202196e-03	0.0	5.987512e-01	-7.874824e-02	0.0	4.407936e-01	-7.846070e-02	0.0	5.358209e-01	-8.042865e-02	0.0	4.723942e-01	-7.963498e-02	0.0	5.041045e-01	-8.031971e-02	0.0	4.882346e-01	-8.004297e-02	0.0	1.248810e-01	-4.940248e-02	0.0	2.842506e-02	-2.284285e-02	0.0	3.939119e-01	-7.600910e-02	0.0	4.662484e-02	-2.966023e-02	0.0	4.094499e-01	-7.690210e-02	0.0	3.181395e-01	-7.085824e-02	0.0	3.479921e-01	-7.302416e-02	0.0	3.403169e-02	-2.507386e-02	0.0	2.889920e-01	-6.859609e-02	0.0	9.352760e-01	-2.657737e-02	0.0	1.466570e-01	-5.311716e-02	0.0	1.943528e-01	-5.960196e-02	0.0	8.591335e-02	-4.107774e-02	0.0	1.046061e-01	-4.538413e-02	0.0	5.674181e-01	-7.991422e-02	0.0	1.698445e-01	-5.651938e-02	0.0	6.142821e-01	-7.793658e-02	0.0	8.808926e-01	-4.084631e-02	0.0	2.329900e-02	-2.063982e-02	0.0	9.952051e-01	-3.036803e-03	0.0	7.484214e-03	-1.235042e-02	0.0	1.866259e-02	1.840908e-02	0.0	9.188035e-01	-3.104964e-02	0.0	9.49994
[...]
POINT_DATA 5233

SCALARS Conservative_1 float 1
LOOKUP_TABLE default
1.207709e+00	1.203453e+00	1.197100e+00	1.195569e+00	1.194831e+00	1.193921e+00	1.188950e+00	1.179170e+00	1.163050e+00	1.139588e+00	1.111241e+00	1.078459e+00	1.050415e+00	1.029266e+00	1.022975e+00	1.023541e+00	1.029368e+00	1.031755e+00	1.031624e+00	1.023487e+00	1.015721e+00	1.009672e+00	1.005123e+00	1.028008e+00	1.019291e+00	1.016608e+00	9.499099e-01	8.378646e-01	7.473789e-01	6.758406e-01	6.730499e-01	6.708352e-01	6.741249e-01	6.779407e-01	6.813478e-01	6.861667e-01	6.904717e-01	6.959040e-01	7.015938e-01	7.085831e-01	7.155516e-01	7.242432e-01	7.340170e-01	7.454020e-01	7.570661e-01	7.685149e-01	7.802248e-01	7.936535e-01	8.085661e-01	8.243550e-01	8.381878e-01	8.498307e-01	8.606153e-01	8.714315e-01	8.816363e-01	8.915685e-01	9.001016e-01	9.073610e-01	9.128499e-01	9.172326e-01	9.204473e-01	9.225705e-01	9.240427e-01	9.241401e-01	9.239141e-01	9.226930e-01	9.219006e-01	9.203664e-01	9.195226e-01	9.181311e-01	9.182680e-01	9.185906e-01	9.212997e-01	9.246767e-01	9.294249e-01	9.344679e-01	9.428103e-01	9.520658e-01	9.630212e-01	9.741907e-01	9.863941e-01	9.990934e-01	1.012910e+00	1.026446e+00	1.041347e+00	1.055588e+00	1.071008e+00	1.085618e+00	1.100926e+00	1.113926e+00	1.130041e+00	1.145312e+00	1.164791e+00	1.184145e+00	1.188434e+00	1.181694e+00	1.227788e+00	1.217423e+00	1.194161e+00	1.246684e+00	1.235615e+00	1.183020e+00	1.029857e+00	9.946292e-01	9.693356e-01	9.862431e-01	9.823896e-01	9.783797e-01	9.680481e-01	9.584803e-01	9.485260e-01	9.397079e-01	9.287813e-01	9.170381e-01	9.049353e-01	8.917299e-01	8.789474e-01	8.664656e-01	8.539209e-01	8.419989e-01	8.299118e-01	8.177841e-01	8.055776e-01	7.929661e-01	7.811151e-01	7.700233e-01	7.614720e-01	7.547062e-01	7.498279e-01	7.447886e-01	7.381589e-01	7.310615e-01	7.262042e-01	7.223043e-01	7.228821e-01	7.234940e-01	7.270461e-01	7.298974e-01	7.355060e-01	7.435529e-01	7.523498e-01	7.689891e-01	7.839837e-01	8.060051e-01	8.174644e-01	8.325532e-01	8.391514e-01	8.484801e-01	8.527023e-01	8.579134e-01	8.589641e-01	8.584521e-01	8.548745e-01	8.489567e-01	8.411299e-01	8.314441e-01	8.208212e-01	8.087079e-01	7.962028e-01	7.829404e-01	7.675082e-01	7.546687e-01	7.411185e-01	7.435869e-01	7.515200e-01	8.106692e-01	8.698595e-01	9.633019e-01	1.018972e+00	1.017960e+00	1.020172e+00	1.002260e+00	1.011692e+00	1.021504e+00	1.030368e+00	1.041250e+00	1.046296e+00	1.051790e+00	1.053914e+00	1.053482e+00	1.050782e+00	1.046057e+00	1.039791e+00	1.035433e+00	1.032446e+00	1.039766e+00	1.052856e+00	1.076665e+00	1.100261e+00	1.124737e+00	1.145267e+00	1.159182e+00	1.170549e+00	1.175411e+00	1.181107e+00	1.182403e+00	1.188594e+00	1.194898e+00	1.208556e+00	1.197201e+00	9.995256e-01	9.996197e-01	9.998149e-01	9.997074e-01	1.000222e+00	1.000177e+00	9.995630e-01	9.999025e-01	9.998056e-01	9.997650e-01	9.997400e-01	9.997287e-01	9.997441e-01	9.998456e-01	9.998600e-01	9.999153e-01	9.999322e-01	9.999438e-01	9.999467e-01	9.999456e-01	9.999414e-01	9.999329e-01	9.999365e-01	9.999418e-01	9.999366e-01	9.999346e-01	9.999522e-01	9.999585e-01	9.999642e-01	9.999842e-01	1.000008e+00	1.000034e+00	1.000061e+00	1.000118e+00	1.000161e+00	1.000193e+00	1.000249e+00	1.000285e+00	1.000273e+00	1.000284e+00	1.000163e+00	1.000153e+00	1.000075e+00	1.000032e+00	1.000088e+00	1.000075e+00	1.000411e+00	1.000652e+00	9.998265e-01	9.992178e-01	1.029325e+00	7.112810e-01	8.281418e-01	7.612627e-01	9.060504e-01	1.204472e+00	1.197626e+00	6.764170e-01	6.987628e-01	1.205944e+00	6.824898e-01	8.415422e-01	1.187899e+00	1.184201e+00	8.331546e-01	6.891899e-01	1.291431e+00	1.176424e+00	1.166392e+00	1.289052e+00	7.184056e-01	8.986302e-01	6.938276e-01	7.494441e-01	1.055304e+00	7.318487e-01	1.032474e+00	1.015041e+00	1.016697e+00	1.002227e+00	1.028346e+00	1.309346e+00	1.033569e+00	1.033915e+00	1.135231e+00	8.797768e-01	1.042597e+00	1.054243e+00	1.148849e+00	1.103553e+00	9.302913e-01	1.022662e+00	6.789669e-01	1.192906e+00	7.481826e-01	8.701360e-01	7.947501e-01	8.501152e-01	8.234321e-01	8.377239e-01	9.469841e-01	1.104145e+00	8.982729e-01	1.058116e+00	8.895467e-01	9.231486e-01	9.169186e-01	1.088859e+00	9.261437e-01	1.033102e+00	9.349998e-01	9.238767e-01	9.894724e-01	9.672484e-01	7.710075e-01	9.266430e-01	7.365295e-01	1.011115e+00	1.118765e+00	1.190707e+00	1.194752e+00	9.900217e-01	1.034794e+00	1.039684e+00	1.128666e+00	1.143547e+00	1.008606e+00	9.256837e-01	7.818692e-01	6.847842e-01	6.810136e-01	9.560189e-01	9.244460e-01	7.592500e-01	7.041806e-01	1.043655e+00	1.228144e+00	1.150847e+00	9.121108e-01	9.244534e-01	1.217654e+00	9.247615e-01	9.786343e-01	9.252771e-01	9.260452e-01	8.599137e-01	6.932816e-01	1.284190e+00	1.275551e+00	8.599146e-01	1.267294e+00	9.662554e-01	9.161564e-01	9.417116e-01	8.272279e-01	8.117266e-01	1.185469e+00	8.613171e-01	8.514900e-01	1.115410e+00	1.076769e+00	1.051975e+00	8.577083e-01	8.359329e-01	7.769110e-01	1.047193e+00	1.052554e+00	8.770386e-01	1.132118e+00	1.057872e+00	1.043394e+00	8.521151e-01	9.033885e-01	7.306488e-01	7.298854e-01	7.703031e-01	7.367964e-01	8.463638e-01	7.984752e-01	7.889037e-01	8.138161e-01	8.117563e-01	7.584868e-01	7.443657e-01	7.872665e-01	8.500973e-01	8.357150e-01	7.551262e-01	1.029772e+00	9.947863e-01	1.028457e+00	1.018610e+00	1.052976e+00	1.043406e+00	1.048554e+00	1.050016e+00	1.093911e+00	1.038461e+00	1.049075e+00	1.012114e+00	1.024531e+00	9.260216e-01	1.010252e+00	7.576109e-01	7.978213e-01	7.992742e-01	7.740151e-01	8.555198e-01	8.219836e-01	7.523853e-01	7.381009e-01	7.790367e-01	7.646221e-01	9.303769e-01	8.018565e-01	1.003333e+00	9.553481e-01	9.236645e-01	1.046417e+00	1.077398e+00	8.094094e-01	9.205160e-01	8.080019e-01	1.070045e+00	9.780694e-01	1.029261e+00	8.636659e-01	8.894235e-01	7.284832e-01	8.388205e-01	1.148157e+00	1.158542e+00	7.320899e-01	1.167497e+00	1.174159e+00	7.429650e-01	7.632824e-01	1.044310e+00	1.224822e+00	1.192663e+00	1.200634e+00	7.271571e-01	1.073588e+00	1.179466e+00	8.604726e-01	1.239271e+00	1.172258e+00	1.015568e+00	9.402693e-01	9.266079e-01	8.979077e-01	1.171804e+00	1.228075e+00	9.284323e-01	7.018210e-01	1.031851e+00	1.166604e+00	8.509511e-01	7.072689e-01	6.841662e-01	1.171047e+00	9.235104e-01	1.038856e+00	9.707118e-01	9.925407e-01	1.223354e+00	9.290636e-01	1.141492e+00	1.073056e+00	9.411245e-01	6.970972e-01	7.215825e-01	8.689999e-01	1.005304e+00	9.047110e-01	1.018417e+00	6.904160e-01	1.040529e+00	9.965857e-01	7.904044e-01	1.023731e+00	8.467327e-01	7.783369e-01	7.877496e-01	1.041904e+00	1.155334e+00	7.511502e-01	8.647424e-01	1.060829e+00	1.047476e+00	1.161848e+00	1.073166e+00	1.134109e+00	7.452221e-01	7.453285e-01	7.507434e-01	8.608911e-01	7.140286e-01	9.294073e-01	1.022642e+00	8.090815e-01	9.362416e-01	1.104615e+00	1.168520e+00	1.050151e+00	9.356943e-01	1.228760e+00	1.180310e+00	1.174019e+00	1.054855e+00	1.129333e+00	1.187972e+00	1.260376e+00	1.218419e+00	1.125661e+00	1.224745e+00	1.031244e+00	1.189166e+00	1.182384e+00	8.247763e-01	7.968639e-01	1.161429e+00	1.014622e+00	8.424954e-01	1.177205e+00	1.239004e+00	8.791928e-01	8.074744e-01	1.030906e+00	7.379679e-01	1.040468e+00	1.012780e+00	1.018277e+00	1.026803e+00	1.035886e+00	1.047007e+00	1.100171e+00	1.056137e+00	1.091209e+00	1.147834e+00	9.527995e-01	6.871189e-01	6.837293e-01	1.185751e+00	8.608236e-01	8.508665e-01	8.371728e-01	1.111813e+00	8.970567e-01	8.877104e-01	9.201629e-01	1.072607e+00	1.038201e+00	1.040129e+00	9.466570e-01	9.825059e-01	7.861472e-01	7.506284e-01	1.112868e+00	1.131740e+00	6.923165e-01	6.897955e-01	9.717209e-01	9.610199e-01	7.738665e-01	7.618879e-01	1.057863e+00	1.044790e+00	1.154147e+00	9.163312e-01	9.110695e-01	9.322478e-01	9.306736e-01	9.282313e-01	9.286727e-01	9.275427e-01	9.258591e-01	9.287247e-01	1.283371e+00	1.211789e+00	9.480170e-01	1.146021e+00	8.642244e-01	8.628404e-01	8.576510e-01	8.528396e-01	1.120385e+00	1.089352e+00	1.050286e+00	8.436495e-01	8.331297e-01	7.931813e-01	1.051066e+00	1.054258e+00	9.109366e-01	9.233443e-01	7.402418e-01	7.388129e-01	7.986343e-01	8.209147e-01	8.347850e-01	1.028311e+00	8.391356e-01	7.856558e-01	1.009172e+00	1.018729e+00	1.051103e+00	1.037344e+00	1.029950e+00	1.013023e+00	1.015995e+00	9.761367e-01	8.912049e-01	7.667912e-01	7.697945e-01	8.026148e-01	8.143509e-01	8.575792e-01	8.617439e-01	8.241069e-01	8.340613e-01	7.596474e-01	7.671623e-01	7.742882e-01	7.804686e-01	1.010603e+00	9.618564e-01	9.734788e-01	7.705252e-01	9.012241e-01	8.224128e-01	8.097868e-01	1.086241e+00	9.855219e-01	8.723454e-01	8.845220e-01	7.404626e-01	7.374764e-01	7.738212e-01	7.587146e-01	1.050552e+00	1.049653e+00	7.394637e-01	7.312712e-01	1.085871e+00	1.221886e+00	9.288469e-01	1.260102e+00	9.036921e-01	9.302512e-01	6.974349e-01	8.111504e-01	1.038507e+00	1.153530e+00	1.146948e+00	1.087821e+00	1.099535e+00	1.161543e+00	1.186312e+00	1.198218e+00	1.182138e+00	1.216255e+00	1.128892e+00	1.284821e+00	9.967280e-01	1.040979e+00	1.167990e+00	8.589948e-01	1.193641e+00	1.189718e+00	7.067482e-01	1.234496e+00	7.011269e-01	1.142254e+00	1.020203e+00	1.175900e+00	9.240494e-01	1.043125e+00	7.128751e-01	1.174729e+00	1.153914e+00	1.126472e+00	8.680204e-01	1.066275e+00	8.078055e-01	1.166318e+00	8.670513e-01	7.455999e-01	7.521628e-01	8.077816e-01	9.182277e-01	1.191117e+00	1.248043e+00	1.174613e+00	1.021503e+00	1.188612e+00	1.088660e+00	1.007942e+00	1.277858e+00	9.458946e-01	8.703780e-01	1.111704e+00	1.054089e+00	1.023875e+00	1.021972e+00	7.959207e-01	1.138062e+00	1.075489e+00	1.048943e+00	1.046078e+00	7.475034e-01	7.451313e-01	7.574022e-01	8.687316e-01	7.265508e-01	7.185088e-01	9.349007e-01	1.034893e+00	8.170461e-01	1.114134e+00	1.172832e+00	1.076456e+00	1.115063e+00	1.200553e+00	1.288475e+00	1.100539e+00	1.199935e+00	1.195821e+00	1.106212e+00	1.160161e+00	8.527254e-01	8.788575e-01	8.216279e-01	1.015539e+00	1.030771e+00	1.022279e+00	1.021503e+00	1.031745e+00	1.020063e+00	1.029281e+00	1.032942e+00	1.060623e+00	1.074274e+00	1.150650e+00	6.927659e-01	6.896817e-01	1.177675e+00	8.626099e-01	8.503617e-01	8.964636e-01	8.874303e-01	1.086428e+00	1.045895e+00	1.052761e+00	9.581293e-01	9.518929e-01	8.007018e-01	7.897029e-01	1.121965e+00	1.137777e+00	6.985668e-01	6.957147e-01	9.860887e-01	9.750636e-01	9.659529e-01	7.784924e-01	7.657124e-01	1.072591e+00	1.059114e+00	1.045380e+00	9.202928e-01	9.160691e-01	9.104585e-01	9.408956e-01	9.378460e-01	9.360590e-01	9.329787e-01	9.321119e-01	9.287945e-01	9.268348e-01	9.322725e-01	9.551214e-01	8.650056e-01	8.586544e-01	1.100656e+00	8.493245e-01	8.419991e-01	8.306733e-01	8.030606e-01	1.053029e+00	9.304567e-01	9.434070e-01	7.483384e-01	7.530097e-01	8.275572e-01	8.417780e-01	8.550761e-01	8.172566e-01	1.052456e+00	1.051542e+00	1.040656e+00	1.034801e+00	1.029415e+00	1.015200e+00	1.018270e+00	1.010990e+00	1.009449e+00	9.569327e-01	8.810642e-01	7.993562e-01	7.827601e-01	7.883734e-01	8.184762e-01	8.639781e-01	8.665729e-01	8.273857e-01	8.356940e-01	8.443302e-01	7.661540e-01	7.748043e-01	7.817723e-01	7.895165e-01	7.977865e-01	9.687898e-01	9.825320e-01	7.620971e-01	8.321566e-01	9.603863e-01	8.373576e-01	8.237152e-01	9.943899e-01	1.005885e+00	8.806334e-01	8.917923e-01	9.050666e-01	7.439785e-01	7.834296e-01	7.704287e-01	7.583829e-01	1.059322e+00	1.056107e+00	1.053784e+00	7.529139e-01	7.444837e-01	7.359747e-01	9.318205e-01	9.312815e-01	1.257405e+00	9.987584e-01	1.165298e+00	1.128434e+00	8.149264e-01	1.237376e+00	1.185250e+00	1.042618e+00	1.049926e+00	1.097702e+00	1.152539e+00	8.691976e-01	1.245156e+00	1.044226e+00	1.188125e+00	1.086520e+00	1.158127e+00	1.174938e+00	8.239051e-01	1.142769e+00	1.202286e+00	1.201584e+00	7.318393e-01	9.511115e-01	1.128985e+00	9.029121e-01	1.010674e+00	8.789727e-01	9.322430e-01	1.136888e+00	8.668909e-01	1.076982e+00	1.069261e+00	1.013711e+00	8.262640e-01	7.573635e-01	1.157760e+00	9.357065e-01	1.032769e+00	1.177734e+00	1.145894e+00	1.174023e+00	1.113620e+00	1.142036e+00	7.178608e-01	1.210513e+00	7.133353e-01	7.073681e-01	1.159608e+00	1.163826e+00	1.174390e+00	1.019814e+00	8.710637e-01	7.522838e-01	1.200098e+00	1.063336e+00	8.172407e-01	1.047466e+00	7.546003e-01	7.509727e-01	7.536368e-01	7.305303e-01	7.257897e-01	1.118725e+00	1.081081e+00	1.112203e+00	1.227166e+00	1.265031e+00	1.113087e+00	1.099532e+00	1.148980e+00	8.620534e-01	1.048775e+00	1.033677e+00	1.021611e+00	1.024322e+00	1.033716e+00	1.022127e+00	1.027792e+00	1.032697e+00	1.038835e+00	1.073904e+00	1.086540e+00	6.979049e-01	7.173059e-01	1.169619e+00	8.725098e-01	8.630367e-01	8.952193e-01	8.866558e-01	1.055729e+00	1.064283e+00	9.636233e-01	9.564816e-01	8.045578e-01	1.126884e+00	1.138618e+00	7.052496e-01	7.024682e-01	9.886641e-01	9.798873e-01	9.713277e-01	7.932102e-01	7.837421e-01	1.085953e+00	1.072170e+00	1.058071e+00	1.045822e+00	9.241084e-01	9.206254e-01	9.159064e-01	9.105311e-01	9.472848e-01	9.442736e-01	9.417122e-01	9.394040e-01	9.377473e-01	9.275057e-01	9.299221e-01	9.366242e-01	8.655886e-01	1.107982e+00	1.096117e+00	8.553531e-01	8.480361e-01	8.349027e-01	8.267949e-01	8.119099e-01	9.483050e-01	9.606709e-01	7.609487e-01	7.667484e-01	8.358186e-01	8.468352e-01	8.591681e-01	8.732354e-01	1.055168e+00	1.052988e+00	1.050646e+00	1.043862e+00	1.039057e+00	1.035312e+00	1.027334e+00	1.021180e+00	1.015958e+00	1.028495e+00	9.861643e-01	9.133786e-01	8.653002e-01	8.433518e-01	8.020895e-01	8.034965e-01	8.082174e-01	8.712324e-01	8.694757e-01	8.332390e-01	8.396387e-01	8.485520e-01	8.549258e-01	7.727789e-01	7.823256e-01	7.899959e-01	7.972065e-01	8.055832e-01	8.171776e-01	9.728546e-01	9.870156e-01	8.452062e-01	9.228467e-01	1.012925e+00	8.508273e-01	8.377574e-01	8.277458e-01	1.000639e+00	1.014219e+00	1.029872e+00	8.860093e-01	8.982686e-01	9.095920e-01	9.231836e-01	7.976173e-01	7.790333e-01	7.689126e-01	7.590401e-01	1.057447e+00	1.063828e+00	1.059659e+00	7.687166e-01	7.595846e-01	7.483771e-01	7.400990e-01	9.360504e-01	9.348599e-01	9.335937e-01	1.153943e+00	1.160101e+00	1.108610e+00	1.200180e+00	1.165965e+00	7.165943e-01	1.002489e+00	1.182836e+00	1.122280e+00	1.202711e+00	1.110811e+00	9.571300e-01	8.441096e-01	1.068739e+00	1.139464e+00	1.207953e+00	1.273591e+00	1.261349e+00	1.252579e+00	1.220942e+00	1.170221e+00	7.590668e-01	1.119132e+00	1.156091e+00	1.058185e+00	7.791146e-01	9.019039e-01	1.152426e+00	1.058731e+00	1.071806e+00	8.736912e-01	8.740799e-01	8.340685e-01	9.769797e-01	8.699567e-01	8.251080e-01	7.606336e-01	1.144779e+00	1.013203e+00	1.189058e+00	1.130970e+00	1.245794e+00	1.199776e+00	1.192845e+00	1.048785e+00	1.097187e+00	1.239798e+00	1.051995e+00	1.199105e+00	1.085769e+00	1.162233e+00	1.193756e+00	1.198962e+00	1.139706e+00	9.306183e-01	9.334020e-01	1.138028e+00	8.693631e-01	1.078772e+00	1.148290e+00	7.279493e-01	1.196739e+00	7.573990e-01	7.612668e-01	7.628535e-01	7.405689e-01	1.089078e+00	1.113512e+00	1.257216e+00	1.125302e+00	1.041175e+00	1.036348e+00	1.022220e+00	1.023136e+00	1.024400e+00	1.034677e+00	1.027304e+00	1.033235e+00	1.038622e+00	1.044469e+00	1.085805e+00	1.096385e+00	7.116748e-01	1.162316e+00	8.808340e-01	8.749856e-01	8.949522e-01	8.877487e-01	1.066989e+00	1.075221e+00	9.680469e-01	9.603122e-01	1.130170e+00	1.139906e+00	7.103008e-01	9.921251e-01	9.838787e-01	9.777042e-01	8.024221e-01	1.084313e+00	1.071883e+00	1.058685e+00	1.047186e+00	9.281430e-01	9.243911e-01	9.205472e-01	9.158499e-01	9.107397e-01	9.519981e-01	9.494723e-01	9.454483e-01	9.435640e-01	9.408473e-01	1.113559e+00	1.104402e+00	1.094976e+00	8.645275e-01	8.528957e-01	8.436017e-01	8.289040e-01	8.213521e-01	9.529882e-01	9.658590e-01	7.708631e-01	7.738778e-01	8.517440e-01	8.648639e-01	8.784474e-01	1.055627e+00	1.052595e+00	1.049801e+00	1.045305e+00	1.041087e+00	1.036894e+00	1.029275e+00	1.021286e+00	1.023110e+00	1.033057e+00	8.874413e-01	8.275061e-01	8.261302e-01	8.487199e-01	8.605148e-01	7.819160e-01	7.890975e-01	7.994692e-01	8.049354e-01	8.161791e-01	8.251845e-01	8.347680e-01	9.785981e-01	9.914512e-01	9.086629e-01	9.776378e-01	1.022091e+00	8.627067e-01	8.451306e-01	1.005985e+00	1.020494e+00	1.035221e+00	8.920921e-01	9.058518e-01	9.161858e-01	9.284457e-01	9.413576e-01	8.098698e-01	7.864396e-01	7.764946e-01	7.659074e-01	1.066954e+00	1.062222e+00	7.799882e-01	7.594091e-01	9.402026e-01	9.382860e-01	9.373607e-01	9.352274e-01	1.189987e+00	1.184426e+00	1.176392e+00	1.235304e+00	1.196754e+00	1.122496e+00	1.139371e+00	1.172743e+00	1.093176e+00	1.171150e+00	1.139584e+00	1.216509e+00	1.107626e+00	1.161525e+00	7.656049e-01	1.199467e+00	1.095053e+00	1.158212e+00	1.146707e+00	1.113189e+00	8.432397e-01	1.132656e+00	9.330258e-01	1.066888e+00	1.055991e+00	7.794216e-01	1.005598e+00	9.590776e-01	1.214013e+00	8.987203e-01	1.026732e+00	1.016258e+00	8.664174e-01	1.116786e+00	1.060222e+00	1.205057e+00	1.074893e+00	1.103268e+00	1.192460e+00	1.124153e+00	1.268676e+00	1.213648e+00	1.147476e+00	7.237123e-01	8.729990e-01	8.642029e-01	1.143618e+00	1.194192e+00	1.161848e+00	1.242924e+00	1.195238e+00	1.096471e+00	1.200408e+00	1.186393e+00	8.761519e-01	1.121055e+00	1.086700e+00	1.079285e+00	8.782431e-01	7.676150e-01	7.734632e-01	7.303830e-01	1.110800e+00	1.131662e+00	1.134818e+00	1.041220e+00	1.021341e+00	1.037588e+00	1.033369e+00	1.044489e+00	1.093292e+00	1.153612e+00	8.859011e-01	1.075202e+00	1.084027e+00	9.691923e-01	1.131276e+00	7.286300e-01	7.760526e-01	9.922495e-01	9.815046e-01	8.223131e-01	1.084127e+00	1.070478e+00	1.058814e+00	1.049912e+00	9.267809e-01	9.185178e-01	9.093957e-01	9.513848e-01	9.459234e-01	1.109128e+00	1.101370e+00	8.378969e-01	8.200823e-01	9.716969e-01	7.865151e-01	8.848366e-01	1.021810e+00	1.053426e+00	1.045114e+00	1.036197e+00	1.022754e+00	1.023673e+00	1.015732e+00	9.409009e-01	8.799823e-01	8.409873e-01	8.415775e-01	8.512941e-01	8.614464e-01	8.704791e-01	8.034214e-01	8.191046e-01	8.343001e-01	8.405194e-01	8.535934e-01	9.850329e-01	9.989889e-01	8.523033e-01	9.945078e-01	1.041549e+00	8.749207e-01	8.621868e-01	1.012977e+00	1.027300e+00	1.042645e+00	1.056402e+00	9.009490e-01	9.135084e-01	9.241240e-01	9.345848e-01	9.502828e-01	9.596272e-01	7.903987e-01	7.758457e-01	1.073032e+00	1.068819e+00	8.012880e-01	7.591241e-01	7.439495e-01	9.414159e-01	9.377408e-01	1.148674e+00	1.188774e+00	1.185561e+00	1.168468e+00	1.065738e+00	1.138468e+00	1.197202e+00	1.165994e+00	1.177622e+00	1.142486e+00	1.177077e+00	1.159514e+00	1.112461e+00	1.184643e+00	1.206682e+00	1.105549e+00	7.417366e-01	7.758150e-01	1.156544e+00	1.042044e+00	1.117667e+00	9.722682e-01	1.094256e+00	1.165122e+00	9.074252e-01	1.074253e+00	7.798724e-01	8.410817e-01	1.116323e+00	1.124306e+00	1.104997e+00	1.094737e+00	1.190639e+00	1.125825e+00	1.132235e+00	1.092439e+00	7.802233e-01	8.777684e-01	7.485302e-01	1.039324e+00	1.180154e+00	1.184802e+00	1.244128e+00	1.108154e+00	1.098792e+00	1.193370e+00	1.132368e+00	1.170264e+00	1.154973e+00	8.597715e-01	1.209535e+00	1.031431e+00	1.018546e+00	1.119260e+00	1.223731e+00	1.099265e+00	1.139521e+00	7.390223e-01	1.235146e+00	1.193285e+00	1.049792e+00	1.193710e+00	1.191175e+00	8.790312e-01	1.130412e+00	1.085804e+00	8.809485e-01	7.739179e-01	8.717344e-01	1.128409e+00	1.147954e+00	1.020682e+00	1.026764e+00	1.054459e+00	1.064302e+00	1.147205e+00	8.966530e-01	1.082481e+00	1.090152e+00	9.172412e-01	9.682755e-01	1.036602e+00	7.590009e-01	1.007495e+00	9.955467e-01	9.838431e-01	1.082392e+00	9.324722e-01	9.250721e-01	9.715853e-01	9.617587e-01	7.612673e-01	1.112252e+00	8.701423e-01	8.559992e-01	8.911852e-01	1.059049e+00	1.049414e+00	1.023439e+00	1.041177e+00	1.029202e+00	1.022968e+00	1.026957e+00	9.860135e-01	9.272037e-01	8.718422e-01	8.593660e-01	8.560739e-01	8.642265e-01	7.935493e-01	8.082658e-01	8.251110e-01	8.421505e-01	8.558643e-01	8.739055e-01	9.916956e-01	1.005644e+00	8.542618e-01	1.031512e+00	8.847867e-01	8.752272e-01	1.018053e+00	1.031566e+00	1.046585e+00	1.062444e+00	1.078737e+00	9.083095e-01	9.226937e-01	9.321517e-01	9.436706e-01	9.563322e-01	8.290148e-01	8.102632e-01	7.858438e-01	1.076229e+00	1.067133e+00	8.201842e-01	7.992290e-01	9.535502e-01	9.476413e-01	9.430895e-01	9.382016e-01	1.180200e+00	1.180156e+00	1.178617e+00	1.155241e+00	1.154636e+00	1.173147e+00	1.126608e+00	1.079753e+00	1.192452e+00	1.153137e+00	1.150107e+00	1.102674e+00	1.187587e+00	1.101868e+00	7.996045e-01	1.167431e+00	1.170531e+00	1.135368e+00	1.191545e+00	1.094698e+00	9.860597e-01	1.063144e+00	1.049232e+00	7.791120e-01	1.165143e+00	1.162886e+00	1.159278e+00	1.189788e+00	1.168293e+00	8.844822e-01	7.