# vtk DataFile Version 3.0
vtk output
ASCII
DATASET UNSTRUCTURED_GRID
POINTS 200 float
9.997500e-01	-3.633629e-05	0.0	9.990000e-01	-1.457162e-04	0.0	9.977600e-01	-3.301809e-04	0.0	9.960200e-01	-6.043541e-04	0.0	9.937800e-01	-9.991695e-04	0.0	9.910500e-01	-1.565814e-03	0.0	9.878400e-01	-2.371555e-03	0.0	9.841300e-01	-3.491355e-03	0.0	9.799500e-01	-4.957971e-03	0.0	9.752800e-01	-6.765263e-03	0.0	9.701500e-01	-8.823640e-03	0.0	9.645400e-01	-1.101357e-02	0.0	9.584700e-01	-1.318909e-02	0.0	9.519400e-01	-1.524664e-02	0.0	9.449600e-01	-1.714448e-02	0.0	9.375400e-01	-1.890989e-02	0.0	9.296900e-01	-2.061680e-02	0.0	9.214000e-01	-2.235580e-02	0.0	9.127000e-01	-2.419176e-02	0.0	9.035800e-01	-2.616424e-02	0.0	8.940600e-01	-2.827068e-02	0.0	8.841500e-01	-3.048319e-02	0.0	8.738500e-01	-3.276105e-02	0.0	8.631800e-01	-3.505536e-02	0.0	8.521600e-01	-3.732203e-02	0.0	8.407700e-01	-3.953386e-02	0.0	8.290500e-01	-4.166200e-02	0.0	8.170100e-01	-4.369383e-02	0.0	8.046400e-01	-4.562805e-02	0.0	7.919700e-01	-4.746329e-02	0.0	7.790100e-01	-4.920602e-02	0.0	7.657800e-01	-5.086382e-02	0.0	7.522800e-01	-5.244741e-02	0.0	7.385200e-01	-5.396513e-02	0.0	7.245300e-01	-5.542105e-02	0.0	7.103200e-01	-5.681843e-02	0.0	6.958900e-01	-5.815778e-02	0.0	6.812700e-01	-5.943310e-02	0.0	6.664700e-01	-6.063694e-02	0.0	6.515000e-01	-6.175898e-02	0.0	6.363800e-01	-6.278622e-02	0.0	6.211300e-01	-6.370493e-02	0.0	6.057600e-01	-6.450218e-02	0.0	5.902800e-01	-6.516607e-02	0.0	5.747100e-01	-6.568634e-02	0.0	5.590600e-01	-6.605595e-02	0.0	5.433600e-01	-6.627083e-02	0.0	5.276100e-01	-6.633109e-02	0.0	5.118400e-01	-6.624026e-02	0.0	4.960500e-01	-6.600526e-02	0.0	4.802700e-01	-6.563640e-02	0.0	4.645100e-01	-6.514625e-02	0.0	4.487800e-01	-6.454907e-02	0.0	4.331100e-01	-6.386103e-02	0.0	4.175000e-01	-6.309744e-02	0.0	4.019700e-01	-6.227406e-02	0.0	3.865400e-01	-6.140569e-02	0.0	3.712300e-01	-6.050563e-02	0.0	3.560400e-01	-5.958389e-02	0.0	3.409900e-01	-5.864929e-02	0.0	3.261100e-01	-5.770871e-02	0.0	3.114000e-01	-5.676453e-02	0.0	2.968700e-01	-5.581713e-02	0.0	2.825500e-01	-5.486579e-02	0.0	2.684500e-01	-5.390635e-02	0.0	2.545700e-01	-5.293211e-02	0.0	2.409400e-01	-5.193703e-02	0.0	2.275700e-01	-5.091278e-02	0.0	2.144700e-01	-4.985046e-02	0.0	2.016600e-01	-4.874199e-02	0.0	1.891400e-01	-4.757796e-02	0.0	1.769300e-01	-4.635152e-02	0.0	1.650400e-01	-4.505615e-02	0.0	1.534900e-01	-4.368800e-02	0.0	1.422900e-01	-4.224406e-02	0.0	1.314400e-01	-4.072181e-02	0.0	1.209500e-01	-3.912187e-02	0.0	1.108500e-01	-3.745046e-02	0.0	1.011300e-01	-3.570953e-02	0.0	9.181000e-02	-3.390805e-02	0.0	8.290000e-02	-3.205531e-02	0.0	7.440000e-02	-3.016008e-02	0.0	6.633000e-02	-2.823696e-02	0.0	5.869000e-02	-2.629716e-02	0.0	5.149000e-02	-2.435496e-02	0.0	4.474000e-02	-2.242514e-02	0.0	3.844000e-02	-2.051950e-02	0.0	3.260000e-02	-1.865209e-02	0.0	2.723000e-02	-1.683606e-02	0.0	2.232000e-02	-1.507582e-02	0.0	1.790000e-02	-1.338761e-02	0.0	1.395000e-02	-1.176582e-02	0.0	1.049000e-02	-1.021584e-02	0.0	7.520000e-03	-8.729604e-03	0.0	5.040000e-03	-7.290779e-03	0.0	3.050000e-03	-5.871003e-03	0.0	1.560000e-03	-4.433540e-03	0.0	5.600000e-04	-2.891459e-03	0.0	6.000000e-05	-1.095807e-03	0.0	0.000000e+00	0.000000e+00	0.0	6.000000e-05	1.091884e-03	0.0	5.600000e-04	2.891096e-03	0.0	1.560000e-03	4.447541e-03	0.0	3.050000e-03	5.902171e-03	0.0	5.040000e-03	7.335554e-03	0.0	7.520000e-03	8.779272e-03	0.0	1.049000e-02	1.025796e-02	0.0	1.395000e-02	1.178537e-02	0.0	1.790000e-02	1.336807e-02	0.0	2.232000e-02	1.500040e-02	0.0	2.723000e-02	1.668806e-02	0.0	3.260000e-02	1.841629e-02	0.0	3.844000e-02	2.018215e-02	0.0	4.474000e-02	2.197464e-02	0.0	5.149000e-02	2.378211e-02	0.0	5.869000e-02	2.559503e-02	0.0	6.633000e-02	2.740093e-02	0.0	7.440000e-02	2.918758e-02	0.0	8.290000e-02	3.094515e-02	0.0	9.181000e-02	3.266017e-02	0.0	1.011300e-01	3.432395e-02	0.0	1.108500e-01	3.592662e-02	0.0	1.209500e-01	3.745791e-02	0.0	1.314400e-01	3.891324e-02	0.0	1.422900e-01	4.028348e-02	0.0	1.534900e-01	4.156400e-02	0.0	1.650400e-01	4.275253e-02	0.0	1.769300e-01	4.384690e-02	0.0	1.891400e-01	4.484563e-02	0.0	2.016600e-01	4.574970e-02	0.0	2.144700e-01	4.656087e-02	0.0	2.275700e-01	4.728347e-02	0.0	2.409400e-01	4.792180e-02	0.0	2.545700e-01	4.848181e-02	0.0	2.684500e-01	4.897031e-02	0.0	2.825500e-01	4.939418e-02	0.0	2.968700e-01	4.976183e-02	0.0	3.114000e-01	5.008152e-02	0.0	3.261100e-01	5.036116e-02	0.0	3.409900e-01	5.060897e-02	0.0	3.560400e-01	5.083286e-02	0.0	3.712300e-01	5.103968e-02	0.0	3.865400e-01	5.123564e-02	0.0	4.019700e-01	5.142618e-02	0.0	4.175000e-01	5.161533e-02	0.0	4.331100e-01	5.180576e-02	0.0	4.487800e-01	5.199863e-02	0.0	4.645100e-01	5.219371e-02	0.0	4.802700e-01	5.238858e-02	0.0	4.960500e-01	5.257914e-02	0.0	5.118400e-01	5.275922e-02	0.0	5.276100e-01	5.292024e-02	0.0	5.433600e-01	5.305176e-02	0.0	5.590600e-01	5.314080e-02	0.0	5.747100e-01	5.317250e-02	0.0	5.902800e-01	5.312998e-02	0.0	6.057600e-01	5.299490e-02	0.0	6.211300e-01	5.274808e-02	0.0	6.363800e-01	5.236997e-02	0.0	6.515000e-01	5.184161e-02	0.0	6.664700e-01	5.114613e-02	0.0	6.812700e-01	5.026993e-02	0.0	6.958900e-01	4.920328e-02	0.0	7.103200e-01	4.794174e-02	0.0	7.245300e-01	4.648939e-02	0.0	7.385200e-01	4.485485e-02	0.0	7.522800e-01	4.305495e-02	0.0	7.657800e-01	4.111666e-02	0.0	7.790100e-01	3.907092e-02	0.0	7.919700e-01	3.695166e-02	0.0	8.046400e-01	3.479859e-02	0.0	8.170100e-01	3.265007e-02	0.0	8.290500e-01	3.054549e-02	0.0	8.407700e-01	2.851255e-02	0.0	8.521600e-01	2.657609e-02	0.0	8.631800e-01	2.475882e-02	0.0	8.738500e-01	2.306655e-02	0.0	8.841500e-01	2.150554e-02	0.0	8.940600e-01	2.007599e-02	0.0	9.035800e-01	1.876834e-02	0.0	9.127000e-01	1.756537e-02	0.0	9.214000e-01	1.643841e-02	0.0	9.296900e-01	1.534016e-02	0.0	9.375400e-01	1.421677e-02	0.0	9.449600e-01	1.300737e-02	0.0	9.519400e-01	1.166918e-02	0.0	9.584700e-01	1.019403e-02	0.0	9.645400e-01	8.619760e-03	0.0	9.701500e-01	7.022980e-03	0.0	9.752800e-01	5.506555e-03	0.0	9.799500e-01	4.153091e-03	0.0	9.841300e-01	3.026657e-03	0.0	9.878400e-01	2.134786e-03	0.0	9.910500e-01	1.461700e-03	0.0	9.937800e-01	9.615087e-04	0.0	9.960200e-01	5.939325e-04	0.0	9.977600e-01	3.282511e-04	0.0	9.990000e-01	1.455402e-04	0.0	9.997500e-01	3.633350e-05	0.0	1.000000e+00	0.000000e+00	0.0	
CELLS 200	600
2	199	0	2	0	1	2	1	2	2	2	3	2	3	4	2	4	5	2	5	6	2	6	7	2	7	8	2	8	9	2	9	10	2	10	11	2	11	12	2	12	13	2	13	14	2	14	15	2	15	16	2	16	17	2	17	18	2	18	19	2	19	20	2	20	21	2	21	22	2	22	23	2	23	24	2	24	25	2	25	26	2	26	27	2	27	28	2	28	29	2	29	30	2	30	31	2	31	32	2	32	33	2	33	34	2	34	35	2	35	36	2	36	37	2	37	38	2	38	39	2	39	40	2	40	41	2	41	42	2	42	43	2	43	44	2	44	45	2	45	46	2	46	47	2	47	48	2	48	49	2	49	50	2	50	51	2	51	52	2	52	53	2	53	54	2	54	55	2	55	56	2	56	57	2	57	58	2	58	59	2	59	60	2	60	61	2	61	62	2	62	63	2	63	64	2	64	65	2	65	66	2	66	67	2	67	68	2	68	69	2	69	70	2	70	71	2	71	72	2	72	73	2	73	74	2	74	75	2	75	76	2	76	77	2	77	78	2	78	79	2	79	80	2	80	81	2	81	82	2	82	83	2	83	84	2	84	85	2	85	86	2	86	87	2	87	88	2	88	89	2	89	90	2	90	91	2	91	92	2	92	93	2	93	94	2	94	95	2	95	96	2	96	97	2	97	98	2	98	99	2	99	100	2	100	101	2	101	102	2	102	103	2	103	104	2	104	105	2	105	106	2	106	107	2	107	108	2	108	109	2	109	110	2	110	111	2	111	112	2	112	113	2	113	114	2	114	115	2	115	116	2	116	117	2	117	118	2	118	119	2	119	120	2	120	121	2	121	122	2	122	123	2	123	124	2	124	125	2	125	126	2	126	127	2	127	128	2	128	129	2	129	130	2	130	131	2	131	132	2	132	133	2	133	134	2	134	135	2	135	136	2	136	137	2	137	138	2	138	139	2	139	140	2	140	141	2	141	142	2	142	143	2	143	144	2	144	145	2	145	146	2	146	147	2	147	148	2	148	149	2	149	150	2	150	151	2	151	152	2	152	153	2	153	154	2	154	155	2	155	156	2	156	157	2	157	158	2	158	159	2	159	160	2	160	161	2	161	162	2	162	163	2	163	164	2	164	165	2	165	166	2	166	167	2	167	168	2	168	169	2	169	170	2	170	171	2	171	172	2	172	173	2	173	174	2	174	175	2	175	176	2	176	177	2	177	178	2	178	179	2	179	180	2	180	181	2	181	182	2	182	183	2	183	184	2	184	185	2	185	186	2	186	187	2	187	188	2	188	189	2	189	190	2	190	191	2	191	192	2	192	193	2	193	194	2	194	195	2	195	196	2	196	197	2	197	198	2	198	199	
CELL_TYPES 200
3	3	3	3	3	3	3	3	3	3	3	3	3	3	3	3	3	3	3	3	3	3	3	3	3	3	3	3	3	3	3	3	3	3	3	3	3	3	3	3	3	3	3	3	3	3	3	3	3	3	3	3	3	3	3	3	3	3	3	3	3	3	3	3	3	3	3	3	3	3	3	3	3	3	3	3	3	3	3	3	3	3	3	3	3	3	3	3	3	3	3	3	3	3	3	3	3	3	3	3	3	3	3	3	3	3	3	3	3	3	3	3	3	3	3	3	3	3	3	3	3	3	3	3	3	3	3	3	3	3	3	3	3	3	3	3	3	3	3	3	3	3	3	3	3	3	3	3	3	3	3	3	3	3	3	3	3	3	3	3	3	3	3	3	3	3	3	3	3	3	3	3	3	3	3	3	3	3	3	3	3	3	3	3	3	3	3	3	3	3	3	3	3	3	3	3	3	3	3	3	
POINT_DATA 200

SCALARS Conservative_1 float 1
LOOKUP_TABLE default
1.207709e+00	1.203453e+00	1.197100e+00	1.195569e+00	1.194831e+00	1.193921e+00	1.188950e+00	1.179170e+00	1.163050e+00	1.139588e+00	1.111241e+00	1.078459e+00	1.050415e+00	1.029266e+00	1.022975e+00	1.023541e+00	1.029368e+00	1.031755e+00	1.031624e+00	1.023487e+00	1.015721e+00	1.009672e+00	1.005123e+00	1.028008e+00	1.019291e+00	1.016608e+00	9.499099e-01	8.378646e-01	7.473789e-01	6.758406e-01	6.730499e-01	6.708352e-01	6.741249e-01	6.779407e-01	6.813478e-01	6.861667e-01	6.904717e-01	6.959040e-01	7.015938e-01	7.085831e-01	7.155516e-01	7.242432e-01	7.340170e-01	7.454020e-01	7.570661e-01	7.685149e-01	7.802248e-01	7.936535e-01	8.085661e-01	8.243550e-01	8.381878e-01	8.498307e-01	8.606153e-01	8.714315e-01	8.816363e-01	8.915685e-01	9.001016e-01	9.073610e-01	9.128499e-01	9.172326e-01	9.204473e-01	9.225705e-01	9.240427e-01	9.241401e-01	9.239141e-01	9.226930e-01	9.219006e-01	9.203664e-01	9.195226e-01	9.181311e-01	9.182680e-01	9.185906e-01	9.212997e-01	9.246767e-01	9.294249e-01	9.344679e-01	9.428103e-01	9.520658e-01	9.630212e-01	9.741907e-01	9.863941e-01	9.990934e-01	1.012910e+00	1.026446e+00	1.041347e+00	1.055588e+00	1.071008e+00	1.085618e+00	1.100926e+00	1.113926e+00	1.130041e+00	1.145312e+00	1.164791e+00	1.184145e+00	1.188434e+00	1.181694e+00	1.227788e+00	1.217423e+00	1.194161e+00	1.246684e+00	1.235615e+00	1.183020e+00	1.029857e+00	9.946292e-01	9.693356e-01	9.862431e-01	9.823896e-01	9.783797e-01	9.680481e-01	9.584803e-01	9.485260e-01	9.397079e-01	9.287813e-01	9.170381e-01	9.049353e-01	8.917299e-01	8.789474e-01	8.664656e-01	8.539209e-01	8.419989e-01	8.299118e-01	8.177841e-01	8.055776e-01	7.929661e-01	7.811151e-01	7.700233e-01	7.614720e-01	7.547062e-01	7.498279e-01	7.447886e-01	7.381589e-01	7.310615e-01	7.262042e-01	7.223043e-01	7.228821e-01	7.234940e-01	7.270461e-01	7.298974e-01	7.355060e-01	7.435529e-01	7.523498e-01	7.689891e-01	7.839837e-01	8.060051e-01	8.174644e-01	8.325532e-01	8.391514e-01	8.484801e-01	8.527023e-01	8.579134e-01	8.589641e-01	8.584521e-01	8.548745e-01	8.489567e-01	8.411299e-01	8.314441e-01	8.208212e-01	8.087079e-01	7.962028e-01	7.829404e-01	7.675082e-01	7.546687e-01	7.411185e-01	7.435869e-01	7.515200e-01	8.106692e-01	8.698595e-01	9.633019e-01	1.018972e+00	1.017960e+00	1.020172e+00	1.002260e+00	1.011692e+00	1.021504e+00	1.030368e+00	1.041250e+00	1.046296e+00	1.051790e+00	1.053914e+00	1.053482e+00	1.050782e+00	1.046057e+00	1.039791e+00	1.035433e+00	1.032446e+00	1.039766e+00	1.052856e+00	1.076665e+00	1.100261e+00	1.124737e+00	1.145267e+00	1.159182e+00	1.170549e+00	1.175411e+00	1.181107e+00	1.182403e+00	1.188594e+00	1.194898e+00	1.208556e+00	1.197201e+00	
SCALARS Conservative_2 float 1
LOOKUP_TABLE default
5.671464e-01	6.059151e-01	6.168052e-01	6.207535e-01	6.200969e-01	6.187922e-01	6.193802e-01	6.284432e-01	6.452360e-01	6.791857e-01	7.159189e-01	7.653194e-01	8.068027e-01	8.409329e-01	8.586388e-01	8.657091e-01	8.646352e-01	8.607473e-01	8.588179e-01	8.609013e-01	8.653954e-01	8.722095e-01	8.834119e-01	8.733422e-01	8.764454e-01	8.789454e-01	8.829719e-01	9.081224e-01	8.960494e-01	9.139276e-01	9.175851e-01	9.204999e-01	9.241226e-01	9.279807e-01	9.309397e-01	9.338463e-01	9.367985e-01	9.400394e-01	9.436840e-01	9.470760e-01	9.513284e-01	9.548813e-01	9.595441e-01	9.634715e-01	9.688777e-01	9.717979e-01	9.758080e-01	9.773900e-01	9.806619e-01	9.812604e-01	9.826864e-01	9.818462e-01	9.830337e-01	9.816533e-01	9.815294e-01	9.794710e-01	9.784610e-01	9.762863e-01	9.755471e-01	9.742729e-01	9.736651e-01	9.730885e-01	9.729047e-01	9.730448e-01	9.732481e-01	9.741636e-01	9.747789e-01	9.757413e-01	9.760432e-01	9.768465e-01	9.772223e-01	9.774211e-01	9.778881e-01	9.771264e-01	9.761968e-01	9.730567e-01	9.707951e-01	9.649473e-01	9.611865e-01	9.558051e-01	9.516506e-01	9.404456e-01	9.322483e-01	9.192551e-01	9.109855e-01	8.946584e-01	8.836575e-01	8.656007e-01	8.547750e-01	8.322408e-01	8.193031e-01	7.912565e-01	7.675025e-01	7.150164e-01	6.553017e-01	5.530225e-01	3.514162e-01	2.643356e-01	1.964708e-01	2.070717e-01	2.730982e-01	3.783019e-01	6.058157e-01	7.278217e-01	8.230048e-01	8.485582e-01	8.725116e-01	8.815255e-01	8.894007e-01	8.969501e-01	9.030837e-01	9.105141e-01	9.161029e-01	9.223684e-01	9.261879e-01	9.310061e-01	9.340573e-01	9.378764e-01	9.397186e-01	9.429558e-01	9.440265e-01	9.454251e-01	9.444106e-01	9.445902e-01	9.437210e-01	9.437165e-01	9.422741e-01	9.411967e-01	9.404515e-01	9.402350e-01	9.385159e-01	9.370237e-01	9.354334e-01	9.346118e-01	9.348894e-01	9.353033e-01	9.360858e-01	9.359521e-01	9.372152e-01	9.397760e-01	9.416238e-01	9.435452e-01	9.464929e-01	9.475312e-01	9.492101e-01	9.488990e-01	9.496931e-01	9.485694e-01	9.497525e-01	9.489608e-01	9.501868e-01	9.504105e-01	9.511672e-01	9.522561e-01	9.524152e-01	9.534161e-01	9.524587e-01	9.526206e-01	9.501547e-01	9.499370e-01	9.435079e-01	9.416308e-01	9.337196e-01	9.358052e-01	9.324594e-01	9.363978e-01	9.432564e-01	9.241064e-01	9.205286e-01	9.107155e-01	8.959921e-01	8.933819e-01	8.810115e-01	8.784310e-01	8.733970e-01	8.689582e-01	8.653191e-01	8.622080e-01	8.611091e-01	8.621291e-01	8.637505e-01	8.677257e-01	8.695030e-01	8.711793e-01	8.658437e-01	8.519034e-01	8.294228e-01	7.973920e-01	7.688277e-01	7.341788e-01	7.132770e-01	6.912996e-01	6.824592e-01	6.715145e-01	6.668635e-01	6.544654e-01	6.440920e-01	6.261599e-01	5.974040e-01	5.483206e-01	
SCALARS Conservative_3 float 1
LOOKUP_TABLE default
8.485007e-02	8.687836e-02	9.321413e-02	1.046450e-01	1.197738e-01	1.440811e-01	1.721356e-01	2.078106e-01	2.372448e-01	2.690131e-01	2.808342e-01	2.854051e-01	2.689566e-01	2.459017e-01	2.178564e-01	1.972271e-01	1.852564e-01	1.826262e-01	1.844567e-01	1.908923e-01	1.953521e-01	1.950520e-01	2.009255e-01	1.810286e-01	1.721855e-01	1.505765e-01	1.328149e-01	1.453728e-01	1.232365e-01	1.286218e-01	1.165666e-01	1.110455e-01	1.047543e-01	9.952929e-02	9.463083e-02	8.906947e-02	8.463743e-02	7.897296e-02	7.401892e-02	6.727593e-02	6.139766e-02	5.326418e-02	4.563687e-02	3.566153e-02	2.751735e-02	1.743248e-02	8.976817e-03	-1.468243e-03	-9.927370e-03	-1.997957e-02	-2.659237e-02	-3.449050e-02	-4.003265e-02	-4.612673e-02	-4.988315e-02	-5.412860e-02	-5.620342e-02	-5.881565e-02	-5.991957e-02	-6.144560e-02	-6.219517e-02	-6.329845e-02	-6.431026e-02	-6.563108e-02	-6.749533e-02	-6.989427e-02	-7.313501e-02	-7.694678e-02	-8.184367e-02	-8.769847e-02	-9.452825e-02	-1.023667e-01	-1.109460e-01	-1.207873e-01	-1.309027e-01	-1.425181e-01	-1.535866e-01	-1.663503e-01	-1.784302e-01	-1.918969e-01	-2.036455e-01	-2.165095e-01	-2.279140e-01	-2.402702e-01	-2.513671e-01	-2.609987e-01	-2.717711e-01	-2.806588e-01	-2.923321e-01	-2.971900e-01	-3.139639e-01	-3.126190e-01	-3.364754e-01	-3.184228e-01	-3.754016e-01	-3.198985e-01	-3.470099e-01	-2.558129e-01	7.043755e-02	2.492323e-01	4.848098e-01	6.653249e-01	6.128483e-01	5.394512e-01	4.451969e-01	4.097335e-01	3.642835e-01	3.490279e-01	3.222431e-01	3.086472e-01	2.905581e-01	2.787499e-01	2.647354e-01	2.521619e-01	2.394369e-01	2.258379e-01	2.134922e-01	1.998691e-01	1.879764e-01	1.745201e-01	1.627908e-01	1.495455e-01	1.382136e-01	1.249303e-01	1.142854e-01	1.017644e-01	9.215212e-02	8.123460e-02	7.235707e-02	6.350400e-02	5.648391e-02	4.803937e-02	4.176332e-02	3.501441e-02	3.023752e-02	2.591407e-02	2.252985e-02	1.928257e-02	1.619969e-02	1.374828e-02	1.114909e-02	1.022225e-02	7.894529e-03	1.016721e-02	8.996511e-03	1.108417e-02	1.024027e-02	1.156331e-02	1.080087e-02	1.177778e-02	1.070830e-02	1.019595e-02	8.368950e-03	5.203078e-03	1.768214e-03	-3.974257e-03	-9.491726e-03	-1.825834e-02	-2.615056e-02	-3.779770e-02	-4.774319e-02	-6.311891e-02	-7.572443e-02	-9.398759e-02	-1.124940e-01	-1.239070e-01	-1.454831e-01	-1.244568e-01	-1.318370e-01	-1.292404e-01	-1.279949e-01	-1.484564e-01	-1.449875e-01	-1.510449e-01	-1.464170e-01	-1.409137e-01	-1.350681e-01	-1.272006e-01	-1.212618e-01	-1.157230e-01	-1.124145e-01	-1.138748e-01	-1.193643e-01	-1.339163e-01	-1.530759e-01	-1.775559e-01	-2.008677e-01	-2.158713e-01	-2.236366e-01	-2.138266e-01	-1.994911e-01	-1.751423e-01	-1.537971e-01	-1.306755e-01	-1.143849e-01	-1.007731e-01	-9.433929e-02	-8.551974e-02	-7.692445e-02	3.884205e-03	
SCALARS Conservative_4 float 1
LOOKUP_TABLE default
3.453420e+00	3.448337e+00	3.431890e+00	3.428734e+00	3.426617e+00	3.423597e+00	3.409594e+00	3.384353e+00	3.341251e+00	3.283737e+00	3.209400e+00	3.131397e+00	3.060729e+00	3.011914e+00	2.996801e+00	3.000535e+00	3.015737e+00	3.021134e+00	3.020002e+00	2.998796e+00	2.980560e+00	2.969135e+00	2.967991e+00	3.023378e+00	3.004125e+00	2.978161e+00	2.786969e+00	2.490486e+00	2.240431e+00	2.086214e+00	2.080286e+00	2.074247e+00	2.084933e+00	2.095891e+00	2.106142e+00	2.119881e+00	2.132147e+00	2.147342e+00	2.163490e+00	2.182614e+00	2.202629e+00	2.226017e+00	2.253394e+00	2.283942e+00	2.316880e+00	2.347405e+00	2.379848e+00	2.415312e+00	2.455745e+00	2.497123e+00	2.534274e+00	2.564258e+00	2.593970e+00	2.621867e+00	2.649188e+00	2.674750e+00	2.697446e+00	2.715902e+00	2.730741e+00	2.741946e+00	2.750556e+00	2.756306e+00	2.760497e+00	2.761281e+00	2.761049e+00	2.758760e+00	2.757286e+00	2.754372e+00	2.752569e+00	2.750164e+00	2.751640e+00	2.754096e+00	2.762839e+00	2.773077e+00	2.786902e+00	2.800744e+00	2.823941e+00	2.848005e+00	2.878499e+00	2.909440e+00	2.944513e+00	2.976325e+00	3.014324e+00	3.048559e+00	3.090735e+00	3.125582e+00	3.169033e+00	3.203718e+00	3.248709e+00	3.276354e+00	3.324607e+00	3.355102e+00	3.409468e+00	3.433768e+00	3.441198e+00	3.349795e+00	3.397015e+00	3.295374e+00	3.203757e+00	3.428342e+00	3.489845e+00	3.398401e+00	2.996619e+00	2.921761e+00	2.865726e+00	2.924772e+00	2.914777e+00	2.915954e+00	2.883018e+00	2.864370e+00	2.833567e+00	2.813655e+00	2.781227e+00	2.752969e+00	2.716891e+00	2.682801e+00	2.645174e+00	2.612616e+00	2.575988e+00	2.545016e+00	2.510378e+00	2.478133e+00	2.442219e+00	2.408716e+00	2.375165e+00	2.346291e+00	2.321285e+00	2.302575e+00	2.288420e+00	2.275268e+00	2.256258e+00	2.237229e+00	2.222823e+00	2.212118e+00	2.213004e+00	2.214036e+00	2.223266e+00	2.229188e+00	2.244473e+00	2.264812e+00	2.289505e+00	2.329870e+00	2.373206e+00	2.427463e+00	2.460950e+00	2.498204e+00	2.517542e+00	2.540592e+00	2.553306e+00	2.566180e+00	2.570078e+00	2.569004e+00	2.559550e+00	2.544937e+00	2.523759e+00	2.499416e+00	2.470307e+00	2.439544e+00	2.404933e+00	2.371889e+00	2.327910e+00	2.294830e+00	2.257551e+00	2.261867e+00	2.290203e+00	2.432886e+00	2.616754e+00	2.848119e+00	3.009796e+00	3.011782e+00	2.997119e+00	2.952114e+00	2.971614e+00	2.999065e+00	3.022635e+00	3.050522e+00	3.063718e+00	3.077064e+00	3.082118e+00	3.081077e+00	3.073013e+00	3.061487e+00	3.043793e+00	3.032436e+00	3.024085e+00	3.039064e+00	3.073312e+00	3.128742e+00	3.193084e+00	3.250380e+00	3.305924e+00	3.337847e+00	3.369247e+00	3.379154e+00	3.394549e+00	3.393790e+00	3.411343e+00	3.426483e+00	3.462234e+00	3.416044e+00	
SCALARS Pressure float 1
LOOKUP_TABLE default
1.326909e+00	1.317067e+00	1.307743e+00	1.305201e+00	1.303882e+00	1.301819e+00	1.294320e+00	1.279430e+00	1.255229e+00	1.219836e+00	1.177319e+00	1.128832e+00	1.086581e+00	1.055604e+00	1.045301e+00	1.046170e+00	1.054373e+00	1.058372e+00	1.058413e+00	1.047569e+00	1.037246e+00	1.029426e+00	1.023876e+00	1.054587e+00	1.045109e+00	1.034819e+00	9.469236e-01	7.942955e-01	6.772496e-01	5.824120e-01	5.778837e-01	5.734062e-01	5.773511e-01	5.813857e-01	5.854356e-01	5.914541e-01	5.965834e-01	6.031802e-01	6.099725e-01	6.186001e-01	6.270389e-01	6.378298e-01	6.499174e-01	6.641681e-01	6.785621e-01	6.931126e-01	7.078348e-01	7.253918e-01	7.443965e-01	7.651463e-01	7.831216e-01	7.985492e-01	8.126425e-01	8.270953e-01	8.405627e-01	8.540346e-01	8.655483e-01	8.755088e-01	8.829997e-01	8.889830e-01	8.933899e-01	8.963791e-01	8.984336e-01	8.986728e-01	8.983902e-01	8.967441e-01	8.956160e-01	8.935725e-01	8.923631e-01	8.905269e-01	8.907174e-01	8.913530e-01	8.948730e-01	8.995648e-01	9.060090e-01	9.133027e-01	9.246502e-01	9.377881e-01	9.529166e-01	9.686626e-01	9.857703e-01	1.004098e+00	1.023871e+00	1.043524e+00	1.064770e+00	1.085674e+00	1.108005e+00	1.128941e+00	1.151227e+00	1.170326e+00	1.193595e+00	1.215644e+00	1.243203e+00	1.270033e+00	1.280496e+00	1.270836e+00	1.319074e+00	1.295920e+00	1.274207e+00	1.354493e+00	1.345822e+00	1.260331e+00	1.054434e+00	1.003672e+00	9.656435e-01	9.898452e-01	9.839101e-01	9.826272e-01	9.683248e-01	9.579960e-01	9.436619e-01	9.324790e-01	9.166794e-01	9.017740e-01	8.844980e-01	8.672790e-01	8.491740e-01	8.327911e-01	8.152918e-01	7.995682e-01	7.829983e-01	7.671859e-01	7.507110e-01	7.345085e-01	7.186863e-01	7.045087e-01	6.930823e-01	6.845273e-01	6.780644e-01	6.716302e-01	6.629875e-01	6.540580e-01	6.476600e-01	6.426430e-01	6.431339e-01	6.436044e-01	6.481213e-01	6.515379e-01	6.588694e-01	6.683176e-01	6.800662e-01	7.003760e-01	7.207289e-01	7.481782e-01	7.639225e-01	7.829514e-01	7.920323e-01	8.041120e-01	8.097254e-01	8.165054e-01	8.177851e-01	8.171335e-01	8.121423e-01	8.043436e-01	7.938181e-01	7.811062e-01	7.670595e-01	7.513065e-01	7.350267e-01	7.178801e-01	6.985966e-01	6.818941e-01	6.661983e-01	6.668285e-01	6.813209e-01	7.530415e-01	8.372660e-01	9.587303e-01	1.034188e+00	1.038477e+00	1.038250e+00	1.017181e+00	1.031047e+00	1.044080e+00	1.056825e+00	1.071360e+00	1.078871e+00	1.086389e+00	1.089342e+00	1.088782e+00	1.084798e+00	1.078156e+00	1.069356e+00	1.062914e+00	1.059870e+00	1.069965e+00	1.090979e+00	1.124729e+00	1.160696e+00	1.196174e+00	1.226574e+00	1.247393e+00	1.264079e+00	1.272029e+00	1.280301e+00	1.283349e+00	1.293234e+00	1.303744e+00	1.324854e+00	1.316189e+00	
SCALARS Temperature float 1
LOOKUP_TABLE default
1.098699e+00	1.094407e+00	1.092426e+00	1.091699e+00	1.091269e+00	1.090373e+00	1.088624e+00	1.085027e+00	1.079256e+00	1.070418e+00	1.059463e+00	1.046709e+00	1.034430e+00	1.025589e+00	1.021824e+00	1.022109e+00	1.024292e+00	1.025798e+00	1.025968e+00	1.023530e+00	1.021192e+00	1.019564e+00	1.018657e+00	1.025854e+00	1.025330e+00	1.017914e+00	9.968562e-01	9.479998e-01	9.061663e-01	8.617594e-01	8.586045e-01	8.547646e-01	8.564454e-01	8.575761e-01	8.592317e-01	8.619686e-01	8.640229e-01	8.667578e-01	8.694097e-01	8.730099e-01	8.763015e-01	8.806846e-01	8.854256e-01	8.910200e-01	8.963049e-01	9.018857e-01	9.072190e-01	9.139906e-01	9.206377e-01	9.281758e-01	9.343032e-01	9.396568e-01	9.442576e-01	9.491226e-01	9.534121e-01	9.579013e-01	9.616117e-01	9.648958e-01	9.672999e-01	9.692012e-01	9.706040e-01	9.716105e-01	9.722858e-01	9.724422e-01	9.723741e-01	9.718770e-01	9.714886e-01	9.708878e-01	9.704635e-01	9.699344e-01	9.699973e-01	9.703485e-01	9.713159e-01	9.728426e-01	9.748060e-01	9.773506e-01	9.807384e-01	9.850034e-01	9.895074e-01	9.943255e-01	9.993676e-01	1.005009e+00	1.010821e+00	1.016638e+00	1.022494e+00	1.028501e+00	1.034544e+00	1.039907e+00	1.045690e+00	1.050632e+00	1.056240e+00	1.061409e+00	1.067319e+00	1.072532e+00	1.077465e+00	1.075436e+00	1.074350e+00	1.064478e+00	1.067031e+00	1.086476e+00	1.089191e+00	1.065351e+00	1.023865e+00	1.009091e+00	9.961911e-01	1.003652e+00	1.001548e+00	1.004341e+00	1.000286e+00	9.994948e-01	9.948719e-01	9.923073e-01	9.869702e-01	9.833550e-01	9.774157e-01	9.725803e-01	9.661260e-01	9.611358e-01	9.547626e-01	9.496071e-01	9.434717e-01	9.381277e-01	9.318917e-01	9.262799e-01	9.200774e-01	9.149186e-01	9.101876e-01	9.070116e-01	9.042934e-01	9.017730e-01	8.981637e-01	8.946690e-01	8.918429e-01	8.897122e-01	8.896803e-01	8.895780e-01	8.914445e-01	8.926431e-01	8.958043e-01	8.988164e-01	9.039229e-01	9.107749e-01	9.193162e-01	9.282549e-01	9.345026e-01	9.404221e-01	9.438491e-01	9.477088e-01	9.495991e-01	9.517340e-01	9.520597e-01	9.518685e-01	9.500135e-01	9.474494e-01	9.437521e-01	9.394573e-01	9.345026e-01	9.290209e-01	9.231651e-01	9.169026e-01	9.102138e-01	9.035674e-01	8.989093e-01	8.967728e-01	9.065906e-01	9.289134e-01	9.625301e-01	9.952543e-01	1.014933e+00	1.020156e+00	1.017721e+00	1.014888e+00	1.019132e+00	1.022100e+00	1.025677e+00	1.028917e+00	1.031134e+00	1.032896e+00	1.033615e+00	1.033507e+00	1.032372e+00	1.030686e+00	1.028433e+00	1.026541e+00	1.026562e+00	1.029044e+00	1.036209e+00	1.044641e+00	1.054928e+00	1.063514e+00	1.070994e+00	1.076097e+00	1.079903e+00	1.082199e+00	1.083984e+00	1.085373e+00	1.088037e+00	1.091092e+00	1.096229e+00	1.099388e+00	
SCALARS Pressure_Coefficient float 1
LOOKUP_TABLE default
7.297070e-01	7.077391e-01	6.869253e-01	6.812523e-01	6.783074e-01	6.737036e-01	6.569647e-01	6.237282e-01	5.697070e-01	4.907055e-01	3.958016e-01	2.875718e-01	1.932603e-01	1.241160e-01	1.011177e-01	1.030584e-01	1.213694e-01	1.302940e-01	1.303861e-01	1.061807e-01	8.313877e-02	6.568217e-02	5.329355e-02	1.218449e-01	1.006896e-01	7.772126e-02	-1.184742e-01	-4.591619e-01	-7.204250e-01	-9.321160e-01	-9.422239e-01	-9.522184e-01	-9.434126e-01	-9.344068e-01	-9.253670e-01	-9.119328e-01	-9.004836e-01	-8.857585e-01	-8.705972e-01	-8.513390e-01	-8.325024e-01	-8.084156e-01	-7.814344e-01	-7.496247e-01	-7.174954e-01	-6.850164e-01	-6.521545e-01	-6.129647e-01	-5.705436e-01	-5.242269e-01	-4.841036e-01	-4.496669e-01	-4.182086e-01	-3.859480e-01	-3.558868e-01	-3.258157e-01	-3.001154e-01	-2.778821e-01	-2.611614e-01	-2.478059e-01	-2.379691e-01	-2.312965e-01	-2.267108e-01	-2.261768e-01	-2.268077e-01	-2.304820e-01	-2.330001e-01	-2.375613e-01	-2.402608e-01	-2.443596e-01	-2.439343e-01	-2.425156e-01	-2.346585e-01	-2.241857e-01	-2.098014e-01	-1.935208e-01	-1.681914e-01	-1.388658e-01	-1.050968e-01	-6.994952e-02	-3.176270e-02	9.147227e-03	5.328368e-02	9.715095e-02	1.445761e-01	1.912355e-01	2.410817e-01	2.878150e-01	3.375600e-01	3.801926e-01	4.321308e-01	4.813484e-01	5.428645e-01	6.027520e-01	6.261080e-01	6.045449e-01	7.122198e-01	6.605363e-01	6.120690e-01	7.912784e-01	7.719230e-01	5.810961e-01	1.215054e-01	8.195620e-03	-7.668852e-02	-2.266706e-02	-3.591504e-02	-3.877862e-02	-7.070356e-02	-9.375883e-02	-1.257548e-01	-1.507164e-01	-1.859834e-01	-2.192544e-01	-2.578170e-01	-2.962523e-01	-3.366652e-01	-3.732341e-01	-4.122952e-01	-4.473924e-01	-4.843789e-01	-5.196743e-01	-5.564486e-01	-5.926148e-01	-6.279324e-01	-6.595789e-01	-6.850841e-01	-7.041801e-01	-7.186063e-01	-7.329682e-01	-7.522600e-01	-7.721919e-01	-7.864732e-01	-7.976719e-01	-7.965760e-01	-7.955259e-01	-7.854436e-01	-7.778171e-01	-7.614521e-01	-7.403625e-01	-7.141380e-01	-6.688036e-01	-6.233729e-01	-5.621023e-01	-5.269586e-01	-4.844835e-01	-4.642136e-01	-4.372500e-01	-4.247201e-01	-4.095863e-01	-4.067297e-01	-4.081841e-01	-4.193252e-01	-4.367331e-01	-4.602275e-01	-4.886022e-01	-5.199564e-01	-5.551194e-01	-5.914583e-01	-6.297318e-01	-6.727755e-01	-7.100579e-01	-7.450931e-01	-7.436864e-01	-7.113373e-01	-5.512466e-01	-3.632456e-01	-9.211979e-02	7.631217e-02	8.588662e-02	8.537991e-02	3.835082e-02	6.930238e-02	9.839272e-02	1.268410e-01	1.592853e-01	1.760506e-01	1.928335e-01	1.994234e-01	1.981732e-01	1.892820e-01	1.744554e-01	1.548125e-01	1.404334e-01	1.336376e-01	1.561720e-01	2.030789e-01	2.784123e-01	3.586961e-01	4.378878e-01	5.057445e-01	5.522156e-01	5.894621e-01	6.072069e-01	6.256712e-01	6.324744e-01	6.545400e-01	6.780001e-01	7.251198e-01	7.057782e-01	
SCALARS Mach float 1
LOOKUP_TABLE default
3.828567e-01	4.109115e-01	4.213677e-01	4.259063e-01	4.276388e-01	4.307074e-01	4.379719e-01	4.554483e-01	4.808713e-01	5.236536e-01	5.682353e-01	6.256591e-01	6.727818e-01	7.103938e-01	7.240035e-01	7.251737e-01	7.173529e-01	7.116492e-01	7.104634e-01	7.197458e-01	7.304910e-01	7.409107e-01	7.547764e-01	7.239625e-01	7.313990e-01	7.348018e-01	7.956875e-01	9.527894e-01	1.074465e+00	1.243281e+00	1.253473e+00	1.263450e+00	1.259934e+00	1.256408e+00	1.252177e+00	1.244522e+00	1.238623e+00	1.230583e+00	1.222915e+00	1.212030e+00	1.202822e+00	1.189229e+00	1.175464e+00	1.158078e+00	1.142927e+00	1.125521e+00	1.109795e+00	1.088686e+00	1.068360e+00	1.044434e+00	1.025474e+00	1.007929e+00	9.942828e-01	9.783149e-01	9.648718e-01	9.501116e-01	9.384331e-01	9.274266e-01	9.200723e-01	9.136759e-01	9.093055e-01	9.062741e-01	9.044072e-01	9.044504e-01	9.050095e-01	9.074442e-01	9.091972e-01	9.121613e-01	9.138490e-01	9.167050e-01	9.174809e-01	9.179112e-01	9.160543e-01	9.123650e-01	9.071307e-01	8.996913e-01	8.896739e-01	8.758166e-01	8.624923e-01	8.481607e-01	8.341097e-01	8.143162e-01	7.964622e-01	7.758949e-01	7.585000e-01	7.357539e-01	7.172627e-01	6.946819e-01	6.781844e-01	6.541314e-01	6.384958e-01	6.093761e-01	5.885655e-01	5.394229e-01	5.174027e-01	4.406144e-01	3.279848e-01	2.475123e-01	1.430011e-01	2.107437e-01	3.646845e-01	5.297379e-01	6.988982e-01	7.663201e-01	8.173871e-01	8.060284e-01	8.127932e-01	8.172321e-01	8.257679e-01	8.366259e-01	8.474627e-01	8.597275e-01	8.734361e-01	8.886883e-01	9.037033e-01	9.206786e-01	9.373191e-01	9.540744e-01	9.707067e-01	9.877734e-01	1.004354e+00	1.021315e+00	1.037310e+00	1.055162e+00	1.072294e+00	1.089163e+00	1.101440e+00	1.110820e+00	1.117990e+00	1.126106e+00	1.135887e+00	1.146757e+00	1.153927e+00	1.160184e+00	1.159415e+00	1.158852e+00	1.152838e+00	1.147311e+00	1.138013e+00	1.126833e+00	1.112649e+00	1.086672e+00	1.064214e+00	1.031295e+00	1.015217e+00	9.933727e-01	9.845842e-01	9.706402e-01	9.660662e-01	9.583330e-01	9.582204e-01	9.591083e-01	9.648114e-01	9.739410e-01	9.850789e-01	9.998864e-01	1.014530e+00	1.033074e+00	1.050102e+00	1.071727e+00	1.090391e+00	1.111869e+00	1.126757e+00	1.128828e+00	1.109322e+00	1.021726e+00	9.451801e-01	8.200341e-01	7.655992e-01	7.561092e-01	7.432573e-01	7.580516e-01	7.388511e-01	7.294304e-01	7.172463e-01	7.044111e-01	6.966707e-01	6.890747e-01	6.859200e-01	6.864390e-01	6.895102e-01	6.964789e-01	7.034398e-01	7.100760e-01	7.103932e-01	6.972803e-01	6.729694e-01	6.344570e-01	5.988182e-01	5.571791e-01	5.281390e-01	5.012264e-01	4.860578e-01	4.728454e-01	4.650172e-01	4.543138e-01	4.437494e-01	4.279302e-01	4.023070e-01	3.691806e-01	