TITLE = "SU2 Simulation"
VARIABLES = "Iteration","CLift","CDrag","CSideForce","CMx","CMy","CMz","CFx","CFy","CFz","CL/CD","Res_Flow[0]","Res_Flow[1]","Res_Flow[2]","Res_Flow[3]","Res_Flow[4]","Linear_Solver_Iterations","CFL_Number","Time(min)"
ZONE T= "Convergence history"
        3273, 6.67179664e-02, 8.55286143e-04, 0.00000000e+00, 0.00000000e+00, 0.00000000e+00, -3.69278418e-02, -6.00362159e-04, 6.67207473e-02, 0.00000000e+00, 7.80066028e+01, -6.07895071e+00, -6.06527888e+00, -6.59795953e+00, -5.48257118e+00, 0.00000000e+00, 2.0000000000, 10.0000000000, 0.0002930005
        3274, 6.65931025e-02, 7.19133751e-04, 0.00000000e+00, 0.00000000e+00, 0.00000000e+00, -3.70377913e-02, -7.33758259e-04, 6.65929430e-02, 0.00000000e+00, 9.26018316e+01, -6.13680308e+00, -6.04684584e+00, -6.22221541e+00, -5.53349869e+00, 0.00000000e+00, 2.0000000000, 10.0000000000, 0.0005698840
        3275, 6.65054067e-02, 6.68697022e-04, 0.00000000e+00, 0.00000000e+00, 0.00000000e+00, -3.71153895e-02, -7.82269910e-04, 6.65041677e-02, 0.00000000e+00, 9.94552158e+01, -6.13948462e+00, -6.07886437e+00, -6.18216744e+00, -5.53953514e+00, 0.00000000e+00, 2.0000000000, 10.0000000000, 0.0008541187
        3276, 6.64011223e-02, 6.25038155e-04, 0.00000000e+00, 0.00000000e+00, 0.00000000e+00, -3.71916506e-02, -8.23643435e-04, 6.63989557e-02, 0.00000000e+00, 1.06235310e+02, -6.10752331e+00, -6.05876184e+00, -6.13322228e+00, -5.50393702e+00, 0.00000000e+00, 2.0000000000, 10.0000000000, 0.0011291345
        3277, 6.62823192e-02, 5.91323039e-04, 0.00000000e+00, 0.00000000e+00, 0.00000000e+00, -3.72661915e-02, -8.54758852e-04, 6.62794454e-02, 0.00000000e+00, 1.12091555e+02, -6.06507179e+00, -6.02361792e+00, -6.08732033e+00, -5.45964380e+00, 0.00000000e+00, 2.0000000000, 10.0000000000, 0.0014106671
        3278, 6.61485738e-02, 5.67985006e-04, 0.00000000e+00, 0.00000000e+00, 0.00000000e+00, -3.73320859e-02, -8.75173691e-04, 6.61452227e-02, 0.00000000e+00, 1.16461831e+02, -6.03195604e+00, -6.00313374e+00, -6.06818470e+00, -5.42858222e+00, 0.00000000e+00, 2.0000000000, 10.0000000000, 0.0016885161
        3279, 6.60137327e-02, 5.48495288e-04, 0.00000000e+00, 0.00000000e+00, 0.00000000e+00, -3.73902609e-02, -8.91717229e-04, 6.60099886e-02, 0.00000000e+00, 1.20354238e+02, -6.00287538e+00, -5.98041125e+00, -6.05642352e+00, -5.40061945e+00, 0.00000000e+00, 2.0000000000, 10.0000000000, 0.0019753655
        3280, 6.58868845e-02, 5.32117630e-04, 0.00000000e+00, 0.00000000e+00, 0.00000000e+00, -3.74391363e-02, -9.05323810e-04, 6.58828133e-02, 0.00000000e+00, 1.23820150e+02, -5.97585887e+00, -5.94772456e+00, -6.04188638e+00, -5.37272739e+00, 0.00000000e+00, 2.0000000000, 10.0000000000, 0.0023275852
        3281, 6.57714879e-02, 5.19056297e-04, 0.00000000e+00, 0.00000000e+00, 0.00000000e+00, -3.74772048e-02, -9.15864672e-04, 6.57671592e-02, 0.00000000e+00, 1.26713592e+02, -5.95781086e+00, -5.92377827e+00, -6.03332059e+00, -5.35410664e+00, 0.00000000e+00, 2.0000000000, 10.0000000000, 0.0027463833
        3282, 6.56689196e-02, 5.08480042e-04, 0.00000000e+00, 0.00000000e+00, 0.00000000e+00, -3.75055139e-02, -9.24200895e-04, 6.56643846e-02, 0.00000000e+00, 1.29147487e+02, -5.94722862e+00, -5.90835818e+00, -6.02933143e+00, -5.34324537e+00, 0.00000000e+00, 2.0000000000, 10.0000000000, 0.0032051325
        3283, 6.55780147e-02, 4.99987481e-04, 0.00000000e+00, 0.00000000e+00, 0.00000000e+00, -3.75263897e-02, -9.30708354e-04, 6.55733161e-02, 0.00000000e+00, 1.31159313e+02, -5.94295441e+00, -5.90208889e+00, -6.02831069e+00, -5.33884284e+00, 0.00000000e+00, 2.0000000000, 10.0000000000, 0.0037137826
        3284, 6.54967188e-02, 4.93537848e-04, 0.00000000e+00, 0.00000000e+00, 0.00000000e+00, -3.75419358e-02, -9.35382991e-04, 6.54918988e-02, 0.00000000e+00, 1.32708604e+02, -5.94350981e+00, -5.90439650e+00, -6.02980400e+00, -5.33932260e+00, 0.00000000e+00, 2.0000000000, 10.0000000000, 0.0040086985
        3285, 6.54230590e-02, 4.88932353e-04, 0.00000000e+00, 0.00000000e+00, 0.00000000e+00, -3.75537145e-02, -9.38380511e-04, 6.54181561e-02, 0.00000000e+00, 1.33807997e+02, -5.94714809e+00, -5.91302152e+00, -6.03331919e+00, -5.34291817e+00, 0.00000000e+00, 2.0000000000, 10.0000000000, 0.0043024182
        3286, 6.53558065e-02, 4.85695812e-04, 0.00000000e+00, 0.00000000e+00, 0.00000000e+00, -3.75626797e-02, -9.40149175e-04, 6.53508490e-02, 0.00000000e+00, 1.34561190e+02, -5.95248299e+00, -5.92486329e+00, -6.03818462e+00, -5.34828527e+00, 0.00000000e+00, 2.0000000000, 10.0000000000, 0.0045923352
        3287, 6.52944385e-02, 4.83365008e-04, 0.00000000e+00, 0.00000000e+00, 0.00000000e+00, -3.75693962e-02, -9.41140690e-04, 6.52894448e-02, 0.00000000e+00, 1.35083089e+02, -5.95869983e+00, -5.93666540e+00, -6.04371498e+00, -5.35462005e+00, 0.00000000e+00, 2.0000000000, 10.0000000000, 0.0048765182
        3288, 6.52386302e-02, 4.81643695e-04, 0.00000000e+00, 0.00000000e+00, 0.00000000e+00, -3.75743209e-02, -9.41644142e-04, 6.52336122e-02, 0.00000000e+00, 1.35449983e+02, -5.96529946e+00, -5.94528473e+00, -6.04947502e+00, -5.36132906e+00, 0.00000000e+00, 2.0000000000, 10.0000000000, 0.0051470518
        3289, 6.51879959e-02, 4.80361674e-04, 0.00000000e+00, 0.00000000e+00, 0.00000000e+00, -3.75778910e-02, -9.41821275e-04, 6.51829620e-02, 0.00000000e+00, 1.35706072e+02, -5.97177634e+00, -5.94807692e+00, -6.05540666e+00, -5.36771081e+00, 0.00000000e+00, 2.0000000000, 10.0000000000, 0.0054309011
        3290, 6.51420099e-02, 4.79405579e-04, 0.00000000e+00, 0.00000000e+00, 0.00000000e+00, -3.75805093e-02, -9.41773962e-04, 6.51369660e-02, 0.00000000e+00, 1.35880792e+02, -5.97758737e+00, -5.94366965e+00, -6.06168867e+00, -5.37299555e+00, 0.00000000e+00, 2.0000000000, 10.0000000000, 0.0056988517
        3291, 6.51000829e-02, 4.78690966e-04, 0.00000000e+00, 0.00000000e+00, 0.00000000e+00, -3.75825010e-02, -9.41573775e-04, 6.50950335e-02, 0.00000000e+00, 1.35996055e+02, -5.98235431e+00, -5.93258321e+00, -6.06854954e+00, -5.37666131e+00, 0.00000000e+00, 2.0000000000, 10.0000000000, 0.0059759180
        3292, 6.50616812e-02, 4.78139230e-04, 0.00000000e+00, 0.00000000e+00, 0.00000000e+00, -3.75841022e-02, -9.41287649e-04, 6.50566288e-02, 0.00000000e+00, 1.36072669e+02, -5.98605798e+00, -5.91696601e+00, -6.07615823e+00, -5.37870934e+00, 0.00000000e+00, 2.0000000000, 10.0000000000, 0.0062516014
        3293, 6.50264225e-02, 4.77674850e-04, 0.00000000e+00, 0.00000000e+00, 0.00000000e+00, -3.75854545e-02, -9.40982755e-04, 6.50213684e-02, 0.00000000e+00, 1.36131141e+02, -5.98908898e+00, -5.89959315e+00, -6.08463889e+00, -5.37969374e+00, 0.00000000e+00, 2.0000000000, 10.0000000000, 0.0065268993
        3294, 6.49940626e-02, 4.77219108e-04, 0.00000000e+00, 0.00000000e+00, 0.00000000e+00, -3.75866302e-02, -9.40732461e-04, 6.49890062e-02, 0.00000000e+00, 1.36193337e+02, -5.99209491e+00, -5.88295018e+00, -6.09403771e+00, -5.38048183e+00, 0.00000000e+00, 2.0000000000, 10.0000000000, 0.0069297989
        3295, 6.49644360e-02, 4.76684654e-04, 0.00000000e+00, 0.00000000e+00, 0.00000000e+00, -3.75876581e-02, -9.40620486e-04, 6.49593750e-02, 0.00000000e+00, 1.36283884e+02, -5.99585186e+00, -5.86894757e+00, -6.10437501e+00, -5.38205043e+00, 0.00000000e+00, 2.0000000000, 10.0000000000, 0.0072216153
        3296, 6.49373769e-02, 4.75969172e-04, 0.00000000e+00, 0.00000000e+00, 0.00000000e+00, -3.75885664e-02, -9.40745507e-04, 6.49323068e-02, 0.00000000e+00, 1.36431897e+02, -6.00123330e+00, -5.85907937e+00, -6.11575280e+00, -5.38542717e+00, 0.00000000e+00, 2.0000000000, 10.0000000000, 0.0075106184
        3297, 6.49126479e-02, 4.74960257e-04, 0.00000000e+00, 0.00000000e+00, 0.00000000e+00, -3.75894177e-02, -9.41214722e-04, 6.49075617e-02, 0.00000000e+00, 1.36669641e+02, -6.00931335e+00, -5.85476140e+00, -6.12855808e+00, -5.39180743e+00, 0.00000000e+00, 2.0000000000, 10.0000000000, 0.0078405499
        3298, 6.48899005e-02, 4.73543017e-04, 0.00000000e+00, 0.00000000e+00, 0.00000000e+00, -3.75903276e-02, -9.42135392e-04, 6.48847887e-02, 0.00000000e+00, 1.37030635e+02, -6.02148086e+00, -5.85759709e+00, -6.14368460e+00, -5.40269789e+00, 0.00000000e+00, 2.0000000000, 10.0000000000, 0.0082074324
        3299, 6.48686740e-02, 4.71614591e-04, 0.00000000e+00, 0.00000000e+00, 0.00000000e+00, -3.75914758e-02, -9.43600306e-04, 6.48635252e-02, 0.00000000e+00, 1.37545944e+02, -6.03956791e+00, -5.86953908e+00, -6.16272846e+00, -5.42007197e+00, 0.00000000e+00, 2.0000000000, 10.0000000000, 0.0085019151
        3300, 6.48483802e-02, 4.69096671e-04, 0.00000000e+00, 0.00000000e+00, 0.00000000e+00, -3.75931085e-02, -9.45674919e-04, 6.48431813e-02, 0.00000000e+00, 1.38240973e+02, -6.06603217e+00, -5.89304648e+00, -6.18837004e+00, -5.44657621e+00, 0.00000000e+00, 2.0000000000, 10.0000000000, 0.0087798158
        3301, 6.48284166e-02, 4.65956311e-04, 0.00000000e+00, 0.00000000e+00, 0.00000000e+00, -3.75954548e-02, -9.48379029e-04, 6.48231539e-02, 0.00000000e+00, 1.39129818e+02, -6.10439464e+00, -5.93146381e+00, -6.22512021e+00, -5.48602233e+00, 0.00000000e+00, 2.0000000000, 10.0000000000, 0.0090527177
        3302, 6.48083767e-02, 4.62258815e-04, 0.00000000e+00, 0.00000000e+00, 0.00000000e+00, -3.75984945e-02, -9.51638477e-04, 6.48030382e-02, 0.00000000e+00, 1.40199331e+02, -6.15941549e+00, -5.98897556e+00, -6.28012105e+00, -5.54364073e+00, 0.00000000e+00, 2.0000000000, 10.0000000000, 0.0093146165
        3303, 6.47873565e-02, 4.58514450e-04, 0.00000000e+00, 0.00000000e+00, 0.00000000e+00, -3.76024030e-02, -9.54923398e-04, 6.47819414e-02, 0.00000000e+00, 1.41298396e+02, -6.23118677e+00, -6.06375811e+00, -6.35805326e+00, -5.61982780e+00, 0.00000000e+00, 2.0000000000, 10.0000000000, 0.0096133153
        3304, 6.47616420e-02, 4.55275035e-04, 0.00000000e+00, 0.00000000e+00, 0.00000000e+00, -3.76089450e-02, -9.57601083e-04, 6.47561622e-02, 0.00000000e+00, 1.42247295e+02, -6.29274098e+00, -6.12565467e+00, -6.43318894e+00, -5.68556225e+00, 0.00000000e+00, 2.0000000000, 10.0000000000, 0.0099130829
        3305, 6.47305053e-02, 4.52563803e-04, 0.00000000e+00, 0.00000000e+00, 0.00000000e+00, -3.76183885e-02, -9.59632426e-04, 6.47249738e-02, 0.00000000e+00, 1.43030673e+02, -6.32581999e+00, -6.15926162e+00, -6.48064206e+00, -5.72101706e+00, 0.00000000e+00, 2.0000000000, 10.0000000000, 0.0101820151
        3306, 6.46970424e-02, 4.50047796e-04, 0.00000000e+00, 0.00000000e+00, 0.00000000e+00, -3.76289786e-02, -9.61417846e-04, 6.46914640e-02, 0.00000000e+00, 1.43755937e+02, -6.34713551e+00, -6.18461131e+00, -6.51606796e+00, -5.74472658e+00, 0.00000000e+00, 2.0000000000, 10.0000000000, 0.0104569991
        3307, 6.46626138e-02, 4.47944562e-04, 0.00000000e+00, 0.00000000e+00, 0.00000000e+00, -3.76398454e-02, -9.62769524e-04, 6.46569977e-02, 0.00000000e+00, 1.44354055e+02, -6.36587272e+00, -6.21170603e+00, -6.54806123e+00, -5.76660670e+00, 0.00000000e+00, 2.0000000000, 10.0000000000, 0.0107286652
        3308, 6.46282392e-02, 4.46361628e-04, 0.00000000e+00, 0.00000000e+00, 0.00000000e+00, -3.76501610e-02, -9.63602202e-04, 6.46225967e-02, 0.00000000e+00, 1.44788967e+02, -6.38081604e+00, -6.23808387e+00, -6.57456777e+00, -5.78459620e+00, 0.00000000e+00, 2.0000000000, 10.0000000000, 0.0110067844
        3309, 6.45945347e-02, 4.44997873e-04, 0.00000000e+00, 0.00000000e+00, 0.00000000e+00, -3.76594081e-02, -9.64230372e-04, 6.45888705e-02, 0.00000000e+00, 1.45156951e+02, -6.38844190e+00, -6.25793462e+00, -6.59067064e+00, -5.79424897e+00, 0.00000000e+00, 2.0000000000, 10.0000000000, 0.0113090515
        3310, 6.45619619e-02, 4.43617277e-04, 0.00000000e+00, 0.00000000e+00, 0.00000000e+00, -3.76673603e-02, -9.64900068e-04, 6.45562753e-02, 0.00000000e+00, 1.45535274e+02, -6.39140966e+00, -6.27312156e+00, -6.59943079e+00, -5.79862881e+00, 0.00000000e+00, 2.0000000000, 10.0000000000, 0.0115800659
        3311, 6.45308249e-02, 4.42356814e-04, 0.00000000e+00, 0.00000000e+00, 0.00000000e+00, -3.76739762e-02, -9.65480980e-04, 6.45251183e-02, 0.00000000e+00, 1.45879577e+02, -6.39358822e+00, -6.28752114e+00, -6.60589380e+00, -5.80223886e+00, 0.00000000e+00, 2.0000000000, 10.0000000000, 0.0118503173
        3312, 6.45013076e-02, 4.41401063e-04, 0.00000000e+00, 0.00000000e+00, 0.00000000e+00, -3.76792678e-02, -9.65792589e-04, 6.44955872e-02, 0.00000000e+00, 1.46128573e+02, -6.39563982e+00, -6.30146847e+00, -6.61116323e+00, -5.80580282e+00, 0.00000000e+00, 2.0000000000, 10.0000000000, 0.0121360501
        3313, 6.44735206e-02, 4.40751140e-04, 0.00000000e+00, 0.00000000e+00, 0.00000000e+00, -3.76833131e-02, -9.65836186e-04, 6.44677925e-02, 0.00000000e+00, 1.46281007e+02, -6.39654675e+00, -6.31347661e+00, -6.61447546e+00, -5.80809434e+00, 0.00000000e+00, 2.0000000000, 10.0000000000, 0.0125172178
        3314, 6.44475755e-02, 4.40346546e-04, 0.00000000e+00, 0.00000000e+00, 0.00000000e+00, -3.76862479e-02, -9.65674694e-04, 6.44418448e-02, 0.00000000e+00, 1.46356491e+02, -6.39621875e+00, -6.32313987e+00, -6.61603558e+00, -5.80893931e+00, 0.00000000e+00, 2.0000000000, 10.0000000000, 0.0128060341
        3315, 6.44235840e-02, 4.40175778e-04, 0.00000000e+00, 0.00000000e+00, 0.00000000e+00, -3.76882204e-02, -9.65322050e-04, 6.44178553e-02, 0.00000000e+00, 1.46358767e+02, -6.39524289e+00, -6.33077491e+00, -6.61649627e+00, -5.80891879e+00, 0.00000000e+00, 2.0000000000, 10.0000000000, 0.0130799333
        3316, 6.44015877e-02, 4.40225089e-04, 0.00000000e+00, 0.00000000e+00, 0.00000000e+00, -3.76893793e-02, -9.64792904e-04, 6.43958653e-02, 0.00000000e+00, 1.46292407e+02, -6.39393633e+00, -6.33649737e+00, -6.61607903e+00, -5.80831940e+00, 0.00000000e+00, 2.0000000000, 10.0000000000, 0.0133500020
        3317, 6.43815106e-02, 4.40442047e-04, 0.00000000e+00, 0.00000000e+00, 0.00000000e+00, -3.76898895e-02, -9.64138018e-04, 6.43757977e-02, 0.00000000e+00, 1.46174760e+02, -6.39251620e+00, -6.34049706e+00, -6.61502433e+00, -5.80735148e+00, 0.00000000e+00, 2.0000000000, 10.0000000000, 0.0136429667
        3318, 6.43631922e-02, 4.40770159e-04, 0.00000000e+00, 0.00000000e+00, 0.00000000e+00, -3.76899218e-02, -9.63410370e-04, 6.43574908e-02, 0.00000000e+00, 1.46024387e+02, -6.39137650e+00, -6.34326922e+00, -6.61388118e+00, -5.80645396e+00, 0.00000000e+00, 2.0000000000, 10.0000000000, 0.0139117320
        3319, 6.43464464e-02, 4.41166278e-04, 0.00000000e+00, 0.00000000e+00, 0.00000000e+00, -3.76896239e-02, -9.62649037e-04, 6.43407576e-02, 0.00000000e+00, 1.45855315e+02, -6.39089948e+00, -6.34532989e+00, -6.61315596e+00, -5.80606461e+00, 0.00000000e+00, 2.0000000000, 10.0000000000, 0.0141890486
        3320, 6.43310834e-02, 4.41590980e-04, 0.00000000e+00, 0.00000000e+00, 0.00000000e+00, -3.76891119e-02, -9.61889297e-04, 6.43254076e-02, 0.00000000e+00, 1.45680248e+02, -6.39134041e+00, -6.34708451e+00, -6.61320040e+00, -5.80648532e+00, 0.00000000e+00, 2.0000000000, 10.0000000000, 0.0144705335
        3321, 6.43169187e-02, 4.42009675e-04, 0.00000000e+00, 0.00000000e+00, 0.00000000e+00, -3.76884748e-02, -9.61161699e-04, 6.43112554e-02, 0.00000000e+00, 1.45510206e+02, -6.39293007e+00, -6.34893037e+00, -6.61437125e+00, -5.80799654e+00, 0.00000000e+00, 2.0000000000, 10.0000000000, 0.0147539020
        3322, 6.43037826e-02, 4.42399550e-04, 0.00000000e+00, 0.00000000e+00, 0.00000000e+00, -3.76877775e-02, -9.60485353e-04, 6.42981309e-02, 0.00000000e+00, 1.45352278e+02, -6.39589806e+00, -6.35127219e+00, -6.61701875e+00, -5.81088265e+00, 0.00000000e+00, 2.0000000000, 10.0000000000, 0.0150227348
        3323, 6.42915276e-02, 4.42748197e-04, 0.00000000e+00, 0.00000000e+00, 0.00000000e+00, -3.76870618e-02, -9.59869448e-04, 6.42858864e-02, 0.00000000e+00, 1.45210140e+02, -6.40042021e+00, -6.35447897e+00, -6.62140514e+00, -5.81537315e+00, 0.00000000e+00, 2.0000000000, 10.0000000000, 0.0152993679
        3324, 6.42800264e-02, 4.43050001e-04, 0.00000000e+00, 0.00000000e+00, 0.00000000e+00, -3.76863513e-02, -9.59316818e-04, 6.42743945e-02, 0.00000000e+00, 1.45085264e+02, -6.40663478e+00, -6.35891108e+00, -6.62774630e+00, -5.82166091e+00, 0.00000000e+00, 2.0000000000, 10.0000000000, 0.0155775507
        3325, 6.42691711e-02, 4.43305703e-04, 0.00000000e+00, 0.00000000e+00, 0.00000000e+00, -3.76856569e-02, -9.58824372e-04, 6.42635475e-02, 0.00000000e+00, 1.44977091e+02, -6.41468025e+00, -6.36495968e+00, -6.63626659e+00, -5.82994501e+00, 0.00000000e+00, 2.0000000000, 10.0000000000, 0.0158611496
        3326, 6.42588743e-02, 4.43521533e-04, 0.00000000e+00, 0.00000000e+00, 0.00000000e+00, -3.76849793e-02, -9.58383968e-04, 6.42532578e-02, 0.00000000e+00, 1.44883325e+02, -6.42468520e+00, -6.37303023e+00, -6.64717801e+00, -5.84041871e+00, 0.00000000e+00, 2.0000000000, 10.0000000000, 0.0161320170
        3327, 6.42490669e-02, 4.43706706e-04, 0.00000000e+00, 0.00000000e+00, 0.00000000e+00, -3.76843119e-02, -9.57984891e-04, 6.42434567e-02, 0.00000000e+00, 1.44800757e+02, -6.43674506e+00, -6.38351192e+00, -6.66066160e+00, -5.85324300e+00, 0.00000000e+00, 2.0000000000, 10.0000000000, 0.0164022843
        3328, 6.42396957e-02, 4.43871615e-04, 0.00000000e+00, 0.00000000e+00, 0.00000000e+00, -3.76836439e-02, -9.57615591e-04, 6.42340914e-02, 0.00000000e+00, 1.44725848e+02, -6.45093120e+00, -6.39678269e+00, -6.67688687e+00, -5.86855614e+00, 0.00000000e+00, 2.0000000000, 10.0000000000, 0.0166735848
        3329, 6.42307213e-02, 4.44027161e-04, 0.00000000e+00, 0.00000000e+00, 0.00000000e+00, -3.76829624e-02, -9.57264306e-04, 6.42251225e-02, 0.00000000e+00, 1.44654938e+02, -6.46730716e+00, -6.41322144e+00, -6.69604163e+00, -5.88649110e+00, 0.00000000e+00, 2.0000000000, 10.0000000000, 0.0169408679
        3330, 6.42221117e-02, 4.44184293e-04, 0.00000000e+00, 0.00000000e+00, 0.00000000e+00, -3.76822533e-02, -9.56919394e-04, 6.42165184e-02, 0.00000000e+00, 1.44584382e+02, -6.48593909e+00, -6.43322315e+00, -6.71835373e+00, -5.90718679e+00, 0.00000000e+00, 2.0000000000, 10.0000000000, 0.0172110836
        3331, 6.42138519e-02, 4.44353496e-04, 0.00000000e+00, 0.00000000e+00, 0.00000000e+00, -3.76815011e-02, -9.56570045e-04, 6.42082643e-02, 0.00000000e+00, 1.44510739e+02, -6.50690702e+00, -6.45722940e+00, -6.74412741e+00, -5.93080238e+00, 0.00000000e+00, 2.0000000000, 10.0000000000, 0.0174793839
        3332, 6.42059278e-02, 4.44545401e-04, 0.00000000e+00, 0.00000000e+00, 0.00000000e+00, -3.76806945e-02, -9.56205321e-04, 6.42003462e-02, 0.00000000e+00, 1.44430530e+02, -6.53035090e+00, -6.48578801e+00, -6.77379906e+00, -5.95756633e+00, 0.00000000e+00, 2.0000000000, 10.0000000000, 0.0177508156
        3333, 6.41983248e-02, 4.44765459e-04, 0.00000000e+00, 0.00000000e+00, 0.00000000e+00, -3.76798233e-02, -9.55819458e-04, 6.41927499e-02, 0.00000000e+00, 1.44341975e+02, -6.55644583e+00, -6.51957713e+00, -6.80792352e+00, -5.98775313e+00, 0.00000000e+00, 2.0000000000, 10.0000000000, 0.0180197517
        3334, 6.41910408e-02, 4.45019793e-04, 0.00000000e+00, 0.00000000e+00, 0.00000000e+00, -3.76788767e-02, -9.55406285e-04, 6.41854731e-02, 0.00000000e+00, 1.44243114e+02, -6.58536652e+00, -6.55939544e+00, -6.84714654e+00, -6.02163408e+00, 0.00000000e+00, 2.0000000000, 10.0000000000, 0.0182941993
        3335, 6.41840767e-02, 4.45314866e-04, 0.00000000e+00, 0.00000000e+00, 0.00000000e+00, -3.76778449e-02, -9.54959361e-04, 6.41785171e-02, 0.00000000e+00, 1.44131898e+02, -6.61737587e+00, -6.60633049e+00, -6.89231750e+00, -6.05957605e+00, 0.00000000e+00, 2.0000000000, 10.0000000000, 0.0185614149
        3336, 6.41774321e-02, 4.45654853e-04, 0.00000000e+00, 0.00000000e+00, 0.00000000e+00, -3.76767235e-02, -9.54474504e-04, 6.41718815e-02, 0.00000000e+00, 1.44007031e+02, -6.65270516e+00, -6.66169264e+00, -6.94429129e+00, -6.10188149e+00, 0.00000000e+00, 2.0000000000, 10.0000000000, 0.0188614170
        3337, 6.41711256e-02, 4.46036885e-04, 0.00000000e+00, 0.00000000e+00, 0.00000000e+00, -3.76755189e-02, -9.53954986e-04, 6.41655848e-02, 0.00000000e+00, 1.43869549e+02, -6.69096363e+00, -6.72616112e+00, -7.00294040e+00, -6.14799686e+00, 0.00000000e+00, 2.0000000000, 10.0000000000, 0.0192616343
        3338, 6.41652336e-02, 4.46446057e-04, 0.00000000e+00, 0.00000000e+00, 0.00000000e+00, -3.76742522e-02, -9.53417379e-04, 6.41597032e-02, 0.00000000e+00, 1.43724494e+02, -6.72978208e+00, -6.79681959e+00, -7.06433054e+00, -6.19460748e+00, 0.00000000e+00, 2.0000000000, 10.0000000000, 0.0196961681
        3339, 6.41599830e-02, 4.46872979e-04, 0.00000000e+00, 0.00000000e+00, 0.00000000e+00, -3.76729292e-02, -9.52876018e-04, 6.41544632e-02, 0.00000000e+00, 1.43575436e+02, -6.76211608e+00, -6.85953334e+00, -7.11468290e+00, -6.23196495e+00, 0.00000000e+00, 2.0000000000, 10.0000000000, 0.0201140324
        3340, 6.41556925e-02, 4.47357647e-04, 0.00000000e+00, 0.00000000e+00, 0.00000000e+00, -3.76714999e-02, -9.52297869e-04, 6.41501842e-02, 0.00000000e+00, 1.43410296e+02, -6.77545352e+00, -6.88569188e+00, -7.12955515e+00, -6.24373500e+00, 0.00000000e+00, 2.0000000000, 10.0000000000, 0.0204109152
        3341, 6.41524280e-02, 4.47913606e-04, 0.00000000e+00, 0.00000000e+00, 0.00000000e+00, -3.76699243e-02, -9.51670826e-04, 6.41469326e-02, 0.00000000e+00, 1.43225004e+02, -6.76644347e+00, -6.87141860e+00, -7.10574915e+00, -6.22797972e+00, 0.00000000e+00, 2.0000000000, 10.0000000000, 0.0207102815
        3342, 6.41500074e-02, 4.48462185e-04, 0.00000000e+00, 0.00000000e+00, 0.00000000e+00, -3.76682494e-02, -9.51069573e-04, 6.41445246e-02, 0.00000000e+00, 1.43044407e+02, -6.75056854e+00, -6.84936468e+00, -7.07430913e+00, -6.20616190e+00, 0.00000000e+00, 2.0000000000, 10.0000000000, 0.0209933519
        3343, 6.41482320e-02, 4.48970630e-04, 0.00000000e+00, 0.00000000e+00, 0.00000000e+00, -3.76665418e-02, -9.50522518e-04, 6.41427607e-02, 0.00000000e+00, 1.42878460e+02, -6.73846857e+00, -6.83344047e+00, -7.05262051e+00, -6.19044058e+00, 0.00000000e+00, 2.0000000000, 10.0000000000, 0.0212615490
        3344, 6.41469282e-02, 4.49449607e-04, 0.00000000e+00, 0.00000000e+00, 0.00000000e+00, -3.76648842e-02, -9.50015215e-04, 6.41414677e-02, 0.00000000e+00, 1.42723294e+02, -6.73245868e+00, -6.82293983e+00, -7.04024487e+00, -6.18222776e+00, 0.00000000e+00, 2.0000000000, 10.0000000000, 0.0215279818
        3345, 6.41459027e-02, 4.49912097e-04, 0.00000000e+00, 0.00000000e+00, 0.00000000e+00, -3.76633537e-02, -9.49530464e-04, 6.41404525e-02, 0.00000000e+00, 1.42574301e+02, -6.73095452e+00, -6.81679279e+00, -7.03303956e+00, -6.17931258e+00, 0.00000000e+00, 2.0000000000, 10.0000000000, 0.0217956185
        3346, 6.41450194e-02, 4.50354918e-04, 0.00000000e+00, 0.00000000e+00, 0.00000000e+00, -3.76619745e-02, -9.49068478e-04, 6.41395791e-02, 0.00000000e+00, 1.42432150e+02, -6.73435225e+00, -6.81804343e+00, -7.03267600e+00, -6.18248852e+00, 0.00000000e+00, 2.0000000000, 10.0000000000, 0.0220676819
        3347, 6.41441706e-02, 4.50761080e-04, 0.00000000e+00, 0.00000000e+00, 0.00000000e+00, -3.76607749e-02, -9.48643897e-04, 6.41387394e-02, 0.00000000e+00, 1.42301928e+02, -6.74332176e+00, -6.82908516e+00, -7.04074368e+00, -6.19270485e+00, 0.00000000e+00, 2.0000000000, 10.0000000000, 0.0223370671
        3348, 6.41433060e-02, 4.51122605e-04, 0.00000000e+00, 0.00000000e+00, 0.00000000e+00, -3.76597569e-02, -9.48263596e-04, 6.41378828e-02, 0.00000000e+00, 1.42185972e+02, -6.75487238e+00, -6.84581939e+00, -7.05329510e+00, -6.20610120e+00, 0.00000000e+00, 2.0000000000, 10.0000000000, 0.0226210833
        3349, 6.41424615e-02, 4.51441845e-04, 0.00000000e+00, 0.00000000e+00, 0.00000000e+00, -3.76588750e-02, -9.47926010e-04, 6.41370455e-02, 0.00000000e+00, 1.42083553e+02, -6.76671851e+00, -6.86433131e+00, -7.06726249e+00, -6.21972886e+00, 0.00000000e+00, 2.0000000000, 10.0000000000, 0.0228975018
        3350, 6.41416875e-02, 4.51720306e-04, 0.00000000e+00, 0.00000000e+00, 0.00000000e+00, -3.76580881e-02, -9.47630730e-04, 6.41362778e-02, 0.00000000e+00, 1.41994253e+02, -6.77742908e+00, -6.88160355e+00, -7.08009104e+00, -6.23178282e+00, 0.00000000e+00, 2.0000000000, 10.0000000000, 0.0231655836
        3351, 6.41410066e-02, 4.51957154e-04, 0.00000000e+00, 0.00000000e+00, 0.00000000e+00, -3.76573761e-02, -9.47379086e-04, 6.41356022e-02, 0.00000000e+00, 1.41918335e+02, -6.78582916e+00, -6.89480583e+00, -7.08949664e+00, -6.24077362e+00, 0.00000000e+00, 2.0000000000, 10.0000000000, 0.0235022982
        3352, 6.41404329e-02, 4.52150688e-04, 0.00000000e+00, 0.00000000e+00, 0.00000000e+00, -3.76567265e-02, -9.47173081e-04, 6.41350328e-02, 0.00000000e+00, 1.41856320e+02, -6.79265826e+00, -6.90501488e+00, -7.09669682e+00, -6.24776957e+00, 0.00000000e+00, 2.0000000000, 10.0000000000, 0.0238586505
        3353, 6.41399590e-02, 4.52296082e-04, 0.00000000e+00, 0.00000000e+00, 0.00000000e+00, -3.76561391e-02, -9.47017385e-04, 6.41345623e-02, 0.00000000e+00, 1.41809672e+02, -6.79904376e+00, -6.91430527e+00, -7.10362135e+00, -6.25427617e+00, 0.00000000e+00, 2.0000000000, 10.0000000000, 0.0241597851
        3354, 6.41395573e-02, 4.52388255e-04, 0.00000000e+00, 0.00000000e+00, 0.00000000e+00, -3.76556231e-02, -9.46916471e-04, 6.41341627e-02, 0.00000000e+00, 1.41779891e+02, -6.80559641e+00, -6.92361340e+00, -7.11116224e+00, -6.26100418e+00, 0.00000000e+00, 2.0000000000, 10.0000000000, 0.0244253675
        3355, 6.41391947e-02, 4.52426203e-04, 0.00000000e+00, 0.00000000e+00, 0.00000000e+00, -3.76551871e-02, -9.46870620e-04, 6.41338009e-02, 0.00000000e+00, 1.41767197e+02, -6.81254971e+00, -6.93311733e+00, -7.11945192e+00, -6.26816098e+00, 0.00000000e+00, 2.0000000000, 10.0000000000, 0.0247021993
        3356, 6.41388445e-02, 4.52414706e-04, 0.00000000e+00, 0.00000000e+00, 0.00000000e+00, -3.76548313e-02, -9.46874475e-04, 6.41334506e-02, 0.00000000e+00, 1.41770026e+02, -6.81997525e+00, -6.94295246e+00, -7.12840055e+00, -6.27580712e+00, 0.00000000e+00, 2.0000000000, 10.0000000000, 0.0249741991
        3357, 6.41384940e-02, 4.52363513e-04, 0.00000000e+00, 0.00000000e+00, 0.00000000e+00, -3.76545468e-02, -9.46918009e-04, 6.41330990e-02, 0.00000000e+00, 1.41785295e+02, -6.82796271e+00, -6.95355985e+00, -7.13806522e+00, -6.28408025e+00, 0.00000000e+00, 2.0000000000, 10.0000000000, 0.0252531171
        3358, 6.41381421e-02, 4.52285331e-04, 0.00000000e+00, 0.00000000e+00, 0.00000000e+00, -3.76543185e-02, -9.46988497e-04, 6.41327455e-02, 0.00000000e+00, 1.41809026e+02, -6.83662728e+00, -6.96549269e+00, -7.14858402e+00, -6.29316066e+00, 0.00000000e+00, 2.0000000000, 10.0000000000, 0.0255216678
        3359, 6.41377964e-02, 4.52193784e-04, 0.00000000e+00, 0.00000000e+00, 0.00000000e+00, -3.76541293e-02, -9.47072481e-04, 6.41323979e-02, 0.00000000e+00, 1.41836970e+02, -6.84610643e+00, -6.97924743e+00, -7.16016145e+00, -6.30323998e+00, 0.00000000e+00, 2.0000000000, 10.0000000000, 0.0257991354
        3360, 6.41374687e-02, 4.52101641e-04, 0.00000000e+00, 0.00000000e+00, 0.00000000e+00, -3.76539632e-02, -9.47157454e-04, 6.41320683e-02, 0.00000000e+00, 1.41865154e+02, -6.85657639e+00, -6.99528544e+00, -7.17307286e+00, -6.31454103e+00, 0.00000000e+00, 2.0000000000, 10.0000000000, 0.0260670503
        3361, 6.41371716e-02, 4.52019583e-04, 0.00000000e+00, 0.00000000e+00, 0.00000000e+00, -3.76538073e-02, -9.47233010e-04, 6.41317694e-02, 0.00000000e+00, 1.41890250e+02, -6.86827486e+00, -7.01412389e+00, -7.18772023e+00, -6.32735081e+00, 0.00000000e+00, 2.0000000000, 10.0000000000, 0.0263729850
        3362, 6.41369163e-02, 4.51955227e-04, 0.00000000e+00, 0.00000000e+00, 0.00000000e+00, -3.76536523e-02, -9.47291782e-04, 6.41315128e-02, 0.00000000e+00, 1.41909890e+02, -6.88142902e+00, -7.03634473e+00, -7.20449220e+00, -6.34193550e+00, 0.00000000e+00, 2.0000000000, 10.0000000000, 0.0266385516
        3363, 6.41367100e-02, 4.51912542e-04, 0.00000000e+00, 0.00000000e+00, 0.00000000e+00, -3.76534928e-02, -9.47329957e-04, 6.41313057e-02, 0.00000000e+00, 1.41922837e+02, -6.89618090e+00, -7.06237762e+00, -7.22364194e+00, -6.35843936e+00, 0.00000000e+00, 2.0000000000, 10.0000000000, 0.0269311984
        3364, 6.41365597e-02, 4.51892196e-04, 0.00000000e+00, 0.00000000e+00, 0.00000000e+00, -3.76533258e-02, -9.47347017e-04, 6.41311549e-02, 0.00000000e+00, 1.41928894e+02, -6.91260722e+00, -7.09257632e+00, -7.24524461e+00, -6.37692011e+00, 0.00000000e+00, 2.0000000000, 10.0000000000, 0.0272119482
        3365, 6.41364685e-02, 4.51892528e-04, 0.00000000e+00, 0.00000000e+00, 0.00000000e+00, -3.76531488e-02, -9.47344698e-04, 6.41310638e-02, 0.00000000e+00, 1.41928588e+02, -6.93068666e+00, -7.12720430e+00, -7.26917411e+00, -6.39731264e+00, 0.00000000e+00, 2.0000000000, 10.0000000000, 0.0274981658
        3366, 6.41364443e-02, 4.51910659e-04, 0.00000000e+00, 0.00000000e+00, 0.00000000e+00, -3.76529580e-02, -9.47326042e-04, 6.41310399e-02, 0.00000000e+00, 1.41922840e+02, -6.95034106e+00, -7.16659057e+00, -7.29519639e+00, -6.41949728e+00, 0.00000000e+00, 2.0000000000, 10.0000000000, 0.0277692000
        3367, 6.41365006e-02, 4.51942681e-04, 0.00000000e+00, 0.00000000e+00, 0.00000000e+00, -3.76527492e-02, -9.47295256e-04, 6.41310969e-02, 0.00000000e+00, 1.41912909e+02, -6.97139721e+00, -7.21105633e+00, -7.32287176e+00, -6.44324926e+00, 0.00000000e+00, 2.0000000000, 10.0000000000, 0.0280392845
        3368, 6.41366465e-02, 4.51983944e-04, 0.00000000e+00, 0.00000000e+00, 0.00000000e+00, -3.76525200e-02, -9.47257186e-04, 6.41312437e-02, 0.00000000e+00, 1.41900276e+02, -6.99361573e+00, -7.26079611e+00, -7.35149684e+00, -6.46826570e+00, 0.00000000e+00, 2.0000000000, 10.0000000000, 0.0283153494
        3369, 6.41368982e-02, 4.52031169e-04, 0.00000000e+00, 0.00000000e+00, 0.00000000e+00, -3.76522655e-02, -9.47215463e-04, 6.41314964e-02, 0.00000000e+00, 1.41886008e+02, -7.01637801e+00, -7.31506855e+00, -7.37970624e+00, -6.49377340e+00, 0.00000000e+00, 2.0000000000, 10.0000000000, 0.0285884341
        3370, 6.41372530e-02, 4.52081289e-04, 0.00000000e+00, 0.00000000e+00, 0.00000000e+00, -3.76519866e-02, -9.47173096e-04, 6.41318522e-02, 0.00000000e+00, 1.41871063e+02, -7.03832815e+00, -7.36989538e+00, -7.40494110e+00, -6.51803973e+00, 0.00000000e+00, 2.0000000000, 10.0000000000, 0.0288623492