# vtk DataFile Version 3.0
vtk output
ASCII
DATASET UNSTRUCTURED_GRID
POINTS 5233 float
9.997500e-01	-3.633243e-05	0.0	9.990000e-01	-1.454727e-04	0.0	9.977600e-01	-3.275112e-04	0.0	9.960200e-01	-5.899479e-04	0.0	9.937800e-01	-9.471698e-04	0.0	9.910500e-01	-1.422304e-03	0.0	9.878400e-01	-2.045993e-03	0.0	9.841300e-01	-2.854614e-03	0.0	9.799500e-01	-3.860523e-03	0.0	9.752800e-01	-5.060890e-03	0.0	9.701500e-01	-6.408855e-03	0.0	9.645400e-01	-7.845872e-03	0.0	9.584700e-01	-9.296509e-03	0.0	9.519400e-01	-1.070533e-02	0.0	9.449600e-01	-1.204435e-02	0.0	9.375400e-01	-1.331796e-02	0.0	9.296900e-01	-1.455348e-02	0.0	9.214000e-01	-1.578922e-02	0.0	9.127000e-01	-1.705246e-02	0.0	9.035800e-01	-1.836423e-02	0.0	8.940600e-01	-1.972817e-02	0.0	8.841500e-01	-2.113966e-02	0.0	8.738500e-01	-2.259048e-02	0.0	8.631800e-01	-2.406851e-02	0.0	8.521600e-01	-2.556309e-02	0.0	8.407700e-01	-2.707106e-02	0.0	8.290500e-01	-2.858319e-02	0.0	8.170100e-01	-3.009564e-02	0.0	8.046400e-01	-3.160757e-02	0.0	7.919700e-01	-3.311336e-02	0.0	7.790100e-01	-3.460972e-02	0.0	7.657800e-01	-3.609205e-02	0.0	7.522800e-01	-3.755779e-02	0.0	7.385200e-01	-3.900309e-02	0.0	7.245300e-01	-4.042206e-02	0.0	7.103200e-01	-4.181110e-02	0.0	6.958900e-01	-4.316762e-02	0.0	6.812700e-01	-4.448643e-02	0.0	6.664700e-01	-4.576453e-02	0.0	6.515000e-01	-4.699915e-02	0.0	6.363800e-01	-4.818698e-02	0.0	6.211300e-01	-4.932511e-02	0.0	6.057600e-01	-5.041170e-02	0.0	5.902800e-01	-5.144510e-02	0.0	5.747100e-01	-5.242328e-02	0.0	5.590600e-01	-5.334509e-02	0.0	5.433600e-01	-5.420844e-02	0.0	5.276100e-01	-5.501315e-02	0.0	5.118400e-01	-5.575760e-02	0.0	4.960500e-01	-5.644172e-02	0.0	4.802700e-01	-5.706421e-02	0.0	4.645100e-01	-5.762467e-02	0.0	4.487800e-01	-5.812265e-02	0.0	4.331100e-01	-5.855708e-02	0.0	4.175000e-01	-5.892774e-02	0.0	4.019700e-01	-5.923376e-02	0.0	3.865400e-01	-5.947425e-02	0.0	3.712300e-01	-5.964834e-02	0.0	3.560400e-01	-5.975523e-02	0.0	3.409900e-01	-5.979377e-02	0.0	3.261100e-01	-5.976288e-02	0.0	3.114000e-01	-5.966139e-02	0.0	2.968700e-01	-5.948795e-02	0.0	2.825500e-01	-5.924145e-02	0.0	2.684500e-01	-5.892061e-02	0.0	2.545700e-01	-5.852373e-02	0.0	2.409400e-01	-5.804996e-02	0.0	2.275700e-01	-5.749798e-02	0.0	2.144700e-01	-5.686651e-02	0.0	2.016600e-01	-5.615485e-02	0.0	1.891400e-01	-5.536129e-02	0.0	1.769300e-01	-5.448541e-02	0.0	1.650400e-01	-5.352634e-02	0.0	1.534900e-01	-5.248429e-02	0.0	1.422900e-01	-5.135895e-02	0.0	1.314400e-01	-5.014905e-02	0.0	1.209500e-01	-4.885431e-02	0.0	1.108500e-01	-4.747749e-02	0.0	1.011300e-01	-4.601640e-02	0.0	9.181000e-02	-4.447312e-02	0.0	8.290000e-02	-4.284876e-02	0.0	7.440000e-02	-4.114263e-02	0.0	6.633000e-02	-3.935827e-02	0.0	5.869000e-02	-3.749535e-02	0.0	5.149000e-02	-3.555586e-02	0.0	4.474000e-02	-3.354231e-02	0.0	3.844000e-02	-3.145437e-02	0.0	3.260000e-02	-2.929487e-02	0.0	2.723000e-02	-2.706749e-02	0.0	2.232000e-02	-2.476720e-02	0.0	1.790000e-02	-2.240798e-02	0.0	1.395000e-02	-1.997902e-02	0.0	1.049000e-02	-1.749160e-02	0.0	7.520000e-03	-1.494667e-02	0.0	5.040000e-03	-1.234443e-02	0.0	3.050000e-03	-9.683432e-03	0.0	1.560000e-03	-6.979041e-03	0.0	5.600000e-04	-4.210276e-03	0.0	6.000000e-05	-1.384916e-03	0.0	0.000000e+00	0.000000e+00	0.0	6.000000e-05	1.264641e-03	0.0	5.600000e-04	3.628980e-03	0.0	1.560000e-03	5.796241e-03	0.0	3.050000e-03	7.817763e-03	0.0	5.040000e-03	9.738418e-03	0.0	7.520000e-03	1.156585e-02	0.0	1.049000e-02	1.331499e-02	0.0	1.395000e-02	1.499634e-02	0.0	1.790000e-02	1.661780e-02	0.0	2.232000e-02	1.817899e-02	0.0	2.723000e-02	1.969307e-02	0.0	3.260000e-02	2.115592e-02	0.0	3.844000e-02	2.257527e-02	0.0	4.474000e-02	2.395250e-02	0.0	5.149000e-02	2.528900e-02	0.0	5.869000e-02	2.658781e-02	0.0	6.633000e-02	2.784970e-02	0.0	7.440000e-02	2.907533e-02	0.0	8.290000e-02	3.026664e-02	0.0	9.181000e-02	3.142256e-02	0.0	1.011300e-01	3.254459e-02	0.0	1.108500e-01	3.363274e-02	0.0	1.209500e-01	3.468586e-02	0.0	1.314400e-01	3.570584e-02	0.0	1.422900e-01	3.669040e-02	0.0	1.534900e-01	3.763927e-02	0.0	1.650400e-01	3.855282e-02	0.0	1.769300e-01	3.943037e-02	0.0	1.891400e-01	4.027046e-02	0.0	2.016600e-01	4.107230e-02	0.0	2.144700e-01	4.183438e-02	0.0	2.275700e-01	4.255630e-02	0.0	2.409400e-01	4.323635e-02	0.0	2.545700e-01	4.387328e-02	0.0	2.684500e-01	4.446569e-02	0.0	2.825500e-01	4.501126e-02	0.0	2.968700e-01	4.550883e-02	0.0	3.114000e-01	4.595661e-02	0.0	3.261100e-01	4.635215e-02	0.0	3.409900e-01	4.669357e-02	0.0	3.560400e-01	4.697901e-02	0.0	3.712300e-01	4.720590e-02	0.0	3.865400e-01	4.737196e-02	0.0	4.019700e-01	4.747502e-02	0.0	4.175000e-01	4.751267e-02	0.0	4.331100e-01	4.748255e-02	0.0	4.487800e-01	4.738245e-02	0.0	4.645100e-01	4.721003e-02	0.0	4.802700e-01	4.696332e-02	0.0	4.960500e-01	4.664032e-02	0.0	5.118400e-01	4.623912e-02	0.0	5.276100e-01	4.575860e-02	0.0	5.433600e-01	4.519707e-02	0.0	5.590600e-01	4.455418e-02	0.0	5.747100e-01	4.382883e-02	0.0	5.902800e-01	4.302167e-02	0.0	6.057600e-01	4.213298e-02	0.0	6.211300e-01	4.116413e-02	0.0	6.363800e-01	4.011655e-02	0.0	6.515000e-01	3.899216e-02	0.0	6.664700e-01	3.779433e-02	0.0	6.812700e-01	3.652728e-02	0.0	6.958900e-01	3.519513e-02	0.0	7.103200e-01	3.380271e-02	0.0	7.245300e-01	3.235757e-02	0.0	7.385200e-01	3.086503e-02	0.0	7.522800e-01	2.933205e-02	0.0	7.657800e-01	2.776849e-02	0.0	7.790100e-01	2.618275e-02	0.0	7.919700e-01	2.458244e-02	0.0	8.046400e-01	2.297810e-02	0.0	8.170100e-01	2.137935e-02	0.0	8.290500e-01	1.979854e-02	0.0	8.407700e-01	1.824247e-02	0.0	8.521600e-01	1.671957e-02	0.0	8.631800e-01	1.524069e-02	0.0	8.738500e-01	1.380630e-02	0.0	8.841500e-01	1.241961e-02	0.0	8.940600e-01	1.108181e-02	0.0	9.035800e-01	9.791187e-03	0.0	9.127000e-01	8.550444e-03	0.0	9.214000e-01	7.370519e-03	0.0	9.296900e-01	6.267993e-03	0.0	9.375400e-01	5.273863e-03	0.0	9.449600e-01	4.417323e-03	0.0	9.519400e-01	3.723322e-03	0.0	9.584700e-01	3.197978e-03	0.0	9.645400e-01	2.821064e-03	0.0	9.701500e-01	2.547627e-03	0.0	9.752800e-01	2.321746e-03	0.0	9.799500e-01	2.091093e-03	0.0	9.841300e-01	1.825891e-03	0.0	9.878400e-01	1.519324e-03	0.0	9.910500e-01	1.189948e-03	0.0	9.937800e-01	8.629302e-04	0.0	9.960200e-01	5.666010e-04	0.0	9.977600e-01	3.231836e-04	0.0	9.990000e-01	1.450779e-04	0.0	9.997500e-01	3.632618e-05	0.0	1.000000e+00	0.000000e+00	0.0	1.984229e+01	2.506660e+00	0.0	1.937166e+01	4.973800e+00	0.0	1.859553e+01	7.362490e+00	0.0	1.752613e+01	9.635070e+00	0.0	1.618034e+01	1.175571e+01	0.0	1.457937e+01	1.369094e+01	0.0	1.274848e+01	1.541027e+01	0.0	1.071654e+01	1.688656e+01	0.0	8.515590e+00	1.809654e+01	0.0	6.180340e+00	1.902113e+01	0.0	3.747630e+00	1.964575e+01	0.0	1.255810e+00	1.996053e+01	0.0	-1.255810e+00	1.996053e+01	0.0	-3.747630e+00	1.964574e+01	0.0	-6.180340e+00	1.902113e+01	0.0	-8.515590e+00	1.809654e+01	0.0	-1.071654e+01	1.688656e+01	0.0	-1.274848e+01	1.541026e+01	0.0	-1.457937e+01	1.369094e+01	0.0	-1.618034e+01	1.175570e+01	0.0	-1.752613e+01	9.635070e+00	0.0	-1.859553e+01	7.362490e+00	0.0	-1.937166e+01	4.973800e+00	0.0	-1.984229e+01	2.506660e+00	0.0	-2.000000e+01	0.000000e+00	0.0	-1.984229e+01	-2.506670e+00	0.0	-1.937166e+01	-4.973800e+00	0.0	-1.859553e+01	-7.362490e+00	0.0	-1.752613e+01	-9.635080e+00	0.0	-1.618034e+01	-1.175571e+01	0.0	-1.457937e+01	-1.369094e+01	0.0	-1.274848e+01	-1.541027e+01	0.0	-1.071653e+01	-1.688656e+01	0.0	-8.515580e+00	-1.809654e+01	0.0	-6.180340e+00	-1.902113e+01	0.0	-3.747620e+00	-1.964575e+01	0.0	-1.255810e+00	-1.996053e+01	0.0	1.255810e+00	-1.996053e+01	0.0	3.747630e+00	-1.964574e+01	0.0	6.180340e+00	-1.902113e+01	0.0	8.515590e+00	-1.809654e+01	0.0	1.071654e+01	-1.688656e+01	0.0	1.274848e+01	-1.541026e+01	0.0	1.457937e+01	-1.369094e+01	0.0	1.618034e+01	-1.175570e+01	0.0	1.752614e+01	-9.635070e+00	0.0	1.859553e+01	-7.362490e+00	0.0	1.937166e+01	-4.973790e+00	0.0	1.984229e+01	-2.506660e+00	0.0	2.000000e+01	0.000000e+00	0.0	6.074134e-02	-4.535826e-02	0.0	6.601884e-01	-6.004299e-02	0.0	4.255546e-01	6.172193e-02	0.0	6.897644e-01	4.908331e-02	0.0	3.791235e-01	-7.362077e-02	0.0	9.994675e-01	-7.275964e-04	0.0	9.985545e-01	-1.331451e-03	0.0	7.738136e-01	-4.742078e-02	0.0	6.898602e-01	-5.716949e-02	0.0	-1.129520e-03	5.522528e-03	0.0	7.467804e-01	-5.082865e-02	0.0	5.833319e-01	5.751683e-02	0.0	9.928161e-01	-3.736511e-03	0.0	9.899361e-01	-4.744696e-03	0.0	5.989079e-01	5.658079e-02	0.0	7.187649e-01	-5.408498e-02	0.0	-1.470112e-03	6.004055e-04	0.0	9.865728e-01	-5.907372e-03	0.0	9.827331e-01	-7.227827e-03	0.0	-1.304473e-03	-6.479140e-03	0.0	6.451052e-01	-6.139335e-02	0.0	8.244825e-01	-4.031697e-02	0.0	7.997427e-01	-4.391421e-02	0.0	3.484822e-01	6.061635e-02	0.0	8.479027e-01	-3.668539e-02	0.0	2.473666e-01	5.611707e-02	0.0	8.699428e-01	-3.304367e-02	0.0	1.046179e-02	1.736456e-02	0.0	8.904965e-01	-2.944798e-02	0.0	7.702083e-02	-4.973614e-02	0.0	9.094917e-01	-2.595315e-02	0.0	-1.768772e-03	-3.209769e-03	0.0	9.424834e-01	-1.917714e-02	0.0	9.268483e-01	-2.256114e-02	0.0	1.794559e-02	-2.752523e-02	0.0	4.257417e-01	-7.305177e-02	0.0	8.591043e-01	-3.486035e-02	0.0	9.563362e-01	-1.567351e-02	0.0	9.784092e-01	-8.727539e-03	0.0	9.683306e-01	-1.208488e-02	0.0	1.582637e-01	-6.360328e-02	0.0	9.001959e-01	-2.768599e-02	0.0	7.604299e-01	-4.914056e-02	0.0	9.971360e-01	-2.087351e-03	0.0	5.990500e-01	-6.506494e-02	0.0	4.414442e-01	-7.270215e-02	0.0	5.363196e-01	-6.899809e-02	0.0	4.730157e-01	-7.177035e-02	0.0	5.046766e-01	-7.053378e-02	0.0	4.888342e-01	-7.118898e-02	0.0	1.249494e-01	-5.909854e-02	0.0	2.784222e-02	-3.300896e-02	0.0	3.945691e-01	-7.351275e-02	0.0	4.621760e-02	-4.065924e-02	0.0	4.101099e-01	-7.332341e-02	0.0	3.187152e-01	-7.323000e-02	0.0	3.486129e-01	-7.359587e-02	0.0	3.350595e-02	-3.562383e-02	0.0	2.895110e-01	-7.252588e-02	0.0	9.348857e-01	-2.087603e-02	0.0	1.468049e-01	-6.219245e-02	0.0	1.946441e-01	-6.725917e-02	0.0	8.579521e-02	-5.179344e-02	0.0	1.045868e-01	-5.563932e-02	0.0	5.678222e-01	-6.717930e-02	0.0	1.700663e-01	-6.492026e-02	0.0	6.145275e-01	-6.390364e-02	0.0	8.804139e-01	-3.123742e-02	0.0	2.266605e-02	-3.030776e-02	0.0	9.952219e-01	-2.870279e-03	0.0	6.733877e-03	-1.884152e-02	0.0	1.849020e-02	2.153762e-02	0.0	9.183784e-01	-2.424768e-02	0.0	9.49641
[...]
POINT_DATA 5233

SCALARS Conservative_1 float 1
LOOKUP_TABLE default
1.199835e+00	1.181618e+00	1.171203e+00	1.164774e+00	1.160213e+00	1.155757e+00	1.148878e+00	1.137961e+00	1.121774e+00	1.100406e+00	1.075096e+00	1.048458e+00	1.024859e+00	1.008298e+00	9.999078e-01	9.978416e-01	9.989479e-01	1.000389e+00	1.000413e+00	9.984203e-01	9.946307e-01	9.896025e-01	9.839219e-01	9.780611e-01	9.722979e-01	9.667430e-01	9.613876e-01	9.561846e-01	9.510692e-01	9.460099e-01	9.409906e-01	9.359674e-01	9.309063e-01	9.258237e-01	9.207713e-01	9.157975e-01	9.109212e-01	9.061470e-01	9.014864e-01	8.969560e-01	8.925557e-01	8.882962e-01	8.841600e-01	8.801639e-01	8.763228e-01	8.726884e-01	8.692500e-01	8.659432e-01	8.626209e-01	8.592734e-01	8.561032e-01	8.534652e-01	8.514756e-01	8.498456e-01	8.479045e-01	8.448975e-01	8.403138e-01	8.342851e-01	8.276806e-01	8.217651e-01	8.174430e-01	8.149195e-01	8.139252e-01	8.140244e-01	8.149039e-01	8.163619e-01	8.183478e-01	8.207768e-01	8.235626e-01	8.265931e-01	8.298890e-01	8.336158e-01	8.380213e-01	8.431724e-01	8.489908e-01	8.553296e-01	8.622549e-01	8.699462e-01	8.784607e-01	8.878377e-01	8.981894e-01	9.095748e-01	9.221459e-01	9.360209e-01	9.513906e-01	9.685327e-01	9.876761e-01	1.009180e+00	1.033531e+00	1.061044e+00	1.092248e+00	1.127609e+00	1.166968e+00	1.209857e+00	1.254559e+00	1.298051e+00	1.331739e+00	1.350892e+00	1.339578e+00	1.308406e+00	1.284485e+00	1.221505e+00	1.100128e+00	1.002746e+00	9.266906e-01	8.708297e-01	8.326781e-01	8.075265e-01	7.905697e-01	7.790661e-01	7.713181e-01	7.661542e-01	7.630125e-01	7.611531e-01	7.601995e-01	7.601471e-01	7.608666e-01	7.621202e-01	7.635856e-01	7.649335e-01	7.661776e-01	7.676417e-01	7.695867e-01	7.718649e-01	7.740760e-01	7.759889e-01	7.776935e-01	7.793366e-01	7.810221e-01	7.828215e-01	7.847909e-01	7.869144e-01	7.891198e-01	7.913069e-01	7.934337e-01	7.954763e-01	7.974259e-01	7.992431e-01	8.009376e-01	8.026317e-01	8.045628e-01	8.069247e-01	8.098001e-01	8.131452e-01	8.168904e-01	8.209638e-01	8.252604e-01	8.296952e-01	8.341869e-01	8.387265e-01	8.432944e-01	8.480036e-01	8.530796e-01	8.587488e-01	8.649792e-01	8.715252e-01	8.781973e-01	8.850303e-01	8.922045e-01	8.997637e-01	9.076499e-01	9.157746e-01	9.240915e-01	9.325895e-01	9.412385e-01	9.500244e-01	9.588972e-01	9.678393e-01	9.767766e-01	9.857117e-01	9.945617e-01	1.003246e+00	1.011701e+00	1.019844e+00	1.027628e+00	1.035031e+00	1.042100e+00	1.049014e+00	1.056035e+00	1.063551e+00	1.071861e+00	1.081060e+00	1.090768e+00	1.100119e+00	1.107863e+00	1.112661e+00	1.113421e+00	1.109780e+00	1.102500e+00	1.093751e+00	1.086618e+00	1.084078e+00	1.087975e+00	1.098199e+00	1.112791e+00	1.129975e+00	1.148455e+00	1.168625e+00	1.192711e+00	1.181129e+00	9.999765e-01	9.999697e-01	9.999532e-01	9.999295e-01	9.999056e-01	9.998777e-01	9.998383e-01	9.997834e-01	9.997211e-01	9.996692e-01	9.996349e-01	9.996463e-01	9.997005e-01	9.998107e-01	9.999054e-01	9.999818e-01	1.000024e+00	1.000049e+00	1.000064e+00	1.000070e+00	1.000073e+00	1.000074e+00	1.000074e+00	1.000076e+00	1.000077e+00	1.000080e+00	1.000085e+00	1.000092e+00	1.000101e+00	1.000114e+00	1.000128e+00	1.000150e+00	1.000168e+00	1.000195e+00	1.000212e+00	1.000223e+00	1.000224e+00	1.000211e+00	1.000200e+00	1.000187e+00	1.000181e+00	1.000166e+00	1.000149e+00	1.000129e+00	1.000105e+00	1.000077e+00	1.000060e+00	1.000046e+00	1.000013e+00	9.999797e-01	9.439307e-01	9.019053e-01	8.225962e-01	9.234766e-01	8.407565e-01	1.183072e+00	1.173587e+00	9.406621e-01	9.111134e-01	1.217313e+00	9.306831e-01	8.723746e-01	1.151760e+00	1.145035e+00	8.789845e-01	9.207358e-01	1.307764e+00	1.136066e+00	1.123696e+00	1.337689e+00	8.974881e-01	9.607719e-01	9.506063e-01	8.070918e-01	9.713486e-01	7.939681e-01	9.824634e-01	8.787891e-01	9.930851e-01	9.167147e-01	1.000525e+00	1.344685e+00	1.006013e+00	1.002915e+00	1.100197e+00	8.522549e-01	9.768622e-01	1.025314e+00	1.107437e+00	1.065596e+00	8.481011e-01	9.973997e-01	9.356925e-01	1.164172e+00	8.849790e-01	8.537730e-01	8.705033e-01	8.575953e-01	8.638545e-01	8.605345e-01	8.679392e-01	1.042725e+00	8.462201e-01	9.771878e-01	8.499784e-01	8.196726e-01	8.278452e-01	1.018408e+00	8.180997e-01	1.003530e+00	8.541094e-01	8.345366e-01	9.049770e-01	8.845883e-01	8.773515e-01	8.428509e-01	8.890296e-01	9.879751e-01	1.069896e+00	1.157684e+00	1.209165e+00	8.236281e-01	1.002267e+00	1.012705e+00	1.087661e+00	1.134325e+00	9.659921e-01	8.223204e-01	8.738471e-01	9.256747e-01	9.456172e-01	8.758301e-01	8.277741e-01	8.810779e-01	9.064553e-01	9.597090e-01	1.248734e+00	1.133708e+00	8.342135e-01	8.384030e-01	1.211162e+00	8.248422e-01	8.943009e-01	8.182296e-01	8.203155e-01	8.553710e-01	9.158753e-01	1.279924e+00	1.318487e+00	8.545748e-01	1.324664e+00	7.950658e-01	7.743051e-01	7.809530e-01	7.752291e-01	8.186091e-01	1.140187e+00	8.497128e-01	8.358543e-01	1.097223e+00	1.105911e+00	1.052380e+00	8.404566e-01	8.268693e-01	8.118530e-01	1.083726e+00	1.067134e+00	7.727135e-01	1.092444e+00	1.106672e+00	1.099136e+00	7.736270e-01	7.728781e-01	8.000533e-01	7.960578e-01	7.832841e-01	8.036598e-01	8.313190e-01	8.150018e-01	7.804084e-01	7.768269e-01	8.925877e-01	7.861862e-01	7.897924e-01	9.075082e-01	8.659172e-01	9.571569e-01	9.400817e-01	9.916454e-01	9.744385e-01	1.024049e+00	1.008360e+00	1.059536e+00	1.038543e+00	1.104298e+00	1.075267e+00	1.102365e+00	1.031437e+00	1.045465e+00	1.000095e+00	1.016352e+00	9.657934e-01	9.830844e-01	9.317041e-01	9.485720e-01	8.998680e-01	9.153974e-01	8.599267e-01	8.856648e-01	7.878882e-01	7.918550e-01	7.819101e-01	7.846792e-01	7.769267e-01	7.786894e-01	8.467340e-01	7.867597e-01	8.310301e-01	9.820157e-01	1.043704e+00	9.556505e-01	8.228259e-01	8.672155e-01	1.053974e+00	8.069361e-01	9.230959e-01	7.731841e-01	7.724641e-01	7.980888e-01	7.741940e-01	1.090246e+00	1.092309e+00	8.019196e-01	1.099307e+00	1.110365e+00	8.053205e-01	8.092149e-01	1.091966e+00	1.206471e+00	1.157936e+00	1.174448e+00	8.931924e-01	9.966649e-01	1.124374e+00	8.450662e-01	1.286685e+00	1.170325e+00	9.296476e-01	8.607455e-01	8.188668e-01	7.847991e-01	1.199868e+00	1.259737e+00	8.237345e-01	9.163593e-01	1.003233e+00	1.199594e+00	8.737654e-01	9.117094e-01	9.455468e-01	1.133393e+00	8.257680e-01	9.761776e-01	9.656497e-01	9.122434e-01	1.317266e+00	8.361463e-01	1.132714e+00	1.041599e+00	8.600352e-01	9.210913e-01	9.027350e-01	8.579526e-01	9.241919e-01	8.472127e-01	9.964537e-01	9.504424e-01	9.569066e-01	8.549749e-01	9.155380e-01	1.020656e+00	7.826896e-01	9.233658e-01	7.879716e-01	1.041956e+00	1.100557e+00	8.101547e-01	8.518903e-01	1.099699e+00	1.048765e+00	1.108308e+00	1.100968e+00	1.094557e+00	7.971450e-01	8.084188e-01	7.952130e-01	7.825655e-01	9.071764e-01	8.399657e-01	9.142888e-01	7.856649e-01	7.937759e-01	1.098103e+00	1.118990e+00	1.055635e+00	8.539044e-01	1.215366e+00	1.145800e+00	1.131584e+00	1.009512e+00	1.133880e+00	1.234077e+00	1.331070e+00	1.315150e+00	1.102109e+00	1.217660e+00	9.516209e-01	1.163066e+00	1.148609e+00	8.248006e-01	8.753997e-01	1.123070e+00	9.868434e-01	8.802569e-01	1.141699e+00	1.332403e+00	8.564337e-01	8.209703e-01	9.708616e-01	8.030402e-01	9.815401e-01	9.918976e-01	9.372695e-01	1.000267e+00	1.005543e+00	1.017376e+00	1.048409e+00	1.027420e+00	1.058811e+00	1.110053e+00	8.743946e-01	9.357748e-01	9.406791e-01	1.155413e+00	8.598644e-01	8.624920e-01	8.656037e-01	1.074147e+00	8.516866e-01	8.546187e-01	8.296434e-01	1.003971e+00	1.007825e+00	1.011260e+00	8.669092e-01	9.013391e-01	8.788059e-01	8.901761e-01	1.077049e+00	1.094540e+00	9.258967e-01	9.308312e-01	8.914849e-01	8.825366e-01	8.824281e-01	8.862163e-01	9.848727e-01	9.674748e-01	1.165272e+00	8.351164e-01	8.413728e-01	8.486785e-01	8.440988e-01	8.327003e-01	8.296511e-01	8.231548e-01	8.237186e-01	8.271092e-01	1.298489e+00	1.267567e+00	7.999903e-01	1.095855e+00	8.566229e-01	8.472447e-01	8.425937e-01	8.379397e-01	1.095732e+00	1.100228e+00	1.077388e+00	8.334022e-01	8.289854e-01	8.175706e-01	1.069983e+00	1.096311e+00	7.865104e-01	7.893692e-01	7.991229e-01	8.010892e-01	7.868127e-01	7.845632e-01	7.834634e-01	9.890934e-01	9.558837e-01	9.476044e-01	9.808686e-01	1.013100e+00	1.062675e+00	1.035048e+00	1.027958e+00	1.005336e+00	9.973077e-01	9.725343e-01	9.641975e-01	9.394165e-01	9.313220e-01	9.079079e-01	9.005319e-01	8.674589e-01	8.617185e-01	8.935147e-01	8.867872e-01	7.933890e-01	7.917760e-01	7.903735e-01	7.891501e-01	8.810212e-01	8.085036e-01	8.199451e-01	9.554257e-01	9.605059e-01	8.688715e-01	8.721039e-01	1.070136e+00	8.350531e-01	7.830140e-01	7.837471e-01	8.067233e-01	8.049279e-01	8.146424e-01	8.121688e-01	1.091107e+00	1.084598e+00	8.942359e-01	8.984350e-01	1.025034e+00	1.297454e+00	8.250920e-01	1.311646e+00	8.535127e-01	8.290654e-01	9.509380e-01	8.775799e-01	1.007365e+00	1.107286e+00	1.101221e+00	1.096640e+00	1.081521e+00	1.115943e+00	1.160552e+00	1.181451e+00	1.153164e+00	1.200929e+00	1.103769e+00	1.283378e+00	9.199236e-01	1.010777e+00	1.131589e+00	8.758553e-01	1.172928e+00	1.220851e+00	9.221229e-01	1.275994e+00	9.267931e-01	1.131252e+00	9.862581e-01	1.190673e+00	8.324845e-01	9.811257e-01	9.175151e-01	1.139482e+00	1.160672e+00	1.095978e+00	8.592891e-01	1.093306e+00	9.165087e-01	1.125942e+00	8.545311e-01	8.062025e-01	8.134403e-01	7.931765e-01	7.995527e-01	1.171566e+00	1.293339e+00	1.185130e+00	9.090788e-01	1.240923e+00	1.055105e+00	9.319693e-01	1.312205e+00	8.662093e-01	8.626602e-01	1.077854e+00	9.822824e-01	1.017855e+00	9.873168e-01	9.240669e-01	1.097496e+00	1.095689e+00	1.051827e+00	1.045206e+00	8.117128e-01	8.081063e-01	8.006212e-01	7.914448e-01	9.085611e-01	9.129886e-01	8.455622e-01	9.424571e-01	7.923194e-01	1.095968e+00	1.136224e+00	1.029315e+00	1.134523e+00	1.249587e+00	1.315054e+00	1.053484e+00	1.186197e+00	1.178460e+00	1.070324e+00	1.122754e+00	8.822238e-01	8.610450e-01	8.273288e-01	9.707601e-01	9.759336e-01	9.912500e-01	9.959432e-01	9.594717e-01	9.451466e-01	1.000196e+00	1.003980e+00	1.029584e+00	1.041136e+00	1.112239e+00	9.413063e-01	9.461350e-01	1.145997e+00	8.649207e-01	8.678806e-01	8.572305e-01	8.594997e-01	1.031379e+00	1.014968e+00	1.020946e+00	8.812017e-01	8.733551e-01	8.809106e-01	8.844213e-01	1.085526e+00	1.099646e+00	9.315741e-01	9.364877e-01	9.088982e-01	8.986861e-01	8.895037e-01	8.881042e-01	8.919644e-01	1.011272e+00	9.925152e-01	9.751894e-01	8.368470e-01	8.425042e-01	8.484083e-01	8.601844e-01	8.548598e-01	8.500282e-01	8.415552e-01	8.379593e-01	8.288065e-01	8.297959e-01	8.348744e-01	8.180069e-01	8.497395e-01	8.449335e-01	1.096496e+00	8.402835e-01	8.357448e-01	8.313898e-01	8.236996e-01	1.071837e+00	8.039752e-01	8.100074e-01	8.042858e-01	8.024293e-01	7.917464e-01	7.915705e-01	7.914075e-01	9.554398e-01	1.065188e+00	1.058446e+00	1.038547e+00	1.031839e+00	1.025015e+00	1.010459e+00	1.002943e+00	9.951960e-01	9.794444e-01	9.714595e-01	9.634480e-01	9.474906e-01	9.395789e-01	9.317809e-01	9.091259e-01	8.696503e-01	8.642684e-01	9.020404e-01	8.952401e-01	8.886599e-01	7.989408e-01	7.974059e-01	7.961242e-01	7.950261e-01	7.940922e-01	8.286723e-01	8.425574e-01	9.557904e-01	9.607486e-01	9.657031e-01	8.710775e-01	8.743032e-01	8.601318e-01	8.818733e-01	7.923355e-01	7.941528e-01	7.964761e-01	8.099638e-01	8.205325e-01	8.177997e-01	8.154060e-01	1.089448e+00	1.084342e+00	1.078357e+00	8.959371e-01	9.000346e-01	9.042370e-01	8.322816e-01	8.303286e-01	1.289987e+00	9.277677e-01	1.129340e+00	1.097662e+00	8.829661e-01	1.262023e+00	1.159472e+00	1.013111e+00	1.018042e+00	1.057235e+00	1.112670e+00	8.578598e-01	1.271301e+00	9.662877e-01	1.206337e+00	1.092445e+00	1.120608e+00	1.172249e+00	9.174893e-01	1.130863e+00	1.185409e+00	1.188070e+00	9.562727e-01	8.736365e-01	1.103985e+00	8.600191e-01	9.399270e-01	8.662024e-01	8.356473e-01	1.101012e+00	8.781901e-01	1.090371e+00	1.087345e+00	9.862993e-01	7.995080e-01	8.099577e-01	1.122143e+00	8.184845e-01	9.864903e-01	1.146680e+00	1.105976e+00	1.144076e+00	1.078635e+00	1.128291e+00	9.232588e-01	1.231582e+00	9.283720e-01	9.324668e-01	1.154333e+00	1.129974e+00	1.180648e+00	1.015259e+00	8.615750e-01	8.154901e-01	1.219586e+00	1.002667e+00	9.255545e-01	1.048500e+00	8.172884e-01	8.136954e-01	8.117977e-01	9.143320e-01	9.193340e-01	1.095696e+00	1.042824e+00	1.086853e+00	1.254740e+00	1.296826e+00	1.079900e+00	1.065693e+00	1.113114e+00	8.852495e-01	9.763790e-01	9.813688e-01	9.913680e-01	9.961065e-01	9.671006e-01	9.529719e-01	1.000532e+00	1.004800e+00	1.008933e+00	1.041479e+00	1.053069e+00	9.466781e-01	9.519079e-01	1.137260e+00	8.681135e-01	8.707947e-01	8.628695e-01	8.646940e-01	1.023973e+00	1.031639e+00	8.887796e-01	8.803056e-01	8.870540e-01	1.091111e+00	1.102762e+00	9.375902e-01	9.428665e-01	9.165733e-01	9.064382e-01	8.974621e-01	8.900282e-01	8.944123e-01	1.037148e+00	1.017695e+00	9.991502e-01	9.822896e-01	8.403370e-01	8.449388e-01	8.503125e-01	8.555360e-01	8.676421e-01	8.620888e-01	8.568696e-01	8.521865e-01	8.479832e-01	8.372333e-01	8.357034e-01	8.443248e-01	8.526137e-01	1.094605e+00	1.093711e+00	8.478371e-01	8.431987e-01	8.387106e-01	8.344702e-01	8.305927e-01	8.266488e-01	8.369742e-01	8.081402e-01	8.065126e-01	7.993050e-01	7.996185e-01	8.003942e-01	8.011586e-01	1.067098e+00	1.060989e+00	1.054817e+00	1.042145e+00	1.035817e+00	1.029467e+00	1.022002e+00	1.009023e+00	1.000966e+00	9.935344e-01	9.783337e-01	9.710848e-01	9.629222e-01	9.557558e-01	9.475065e-01	9.405113e-01	9.323063e-01	8.673438e-01	8.717567e-01	9.110939e-01	9.033983e-01	8.974971e-01	8.902773e-01	8.049300e-01	8.035692e-01	8.022446e-01	8.012258e-01	8.003320e-01	7.997396e-01	8.491588e-01	8.647226e-01	9.614826e-01	9.666505e-01	9.714089e-01	8.739680e-01	8.762985e-01	8.802121e-01	8.842327e-01	9.072595e-01	9.341614e-01	8.022810e-01	8.045914e-01	8.084127e-01	8.128792e-01	8.271546e-01	8.241915e-01	8.215922e-01	8.191544e-01	1.072992e+00	1.083293e+00	1.078527e+00	8.976660e-01	9.022838e-01	9.057790e-01	9.106031e-01	8.411407e-01	8.385696e-01	8.366569e-01	1.147999e+00	1.125328e+00	1.073700e+00	1.177463e+00	1.171229e+00	9.362492e-01	9.359892e-01	1.193485e+00	1.096509e+00	1.235389e+00	1.080932e+00	8.823966e-01	8.073230e-01	1.018928e+00	1.127381e+00	1.235122e+00	1.292413e+00	1.294457e+00	1.281619e+00	1.250885e+00	1.138742e+00	8.216060e-01	1.084571e+00	1.121549e+00	1.026496e+00	9.594572e-01	8.664368e-01	1.115910e+00	1.068688e+00	1.082042e+00	8.773939e-01	8.679018e-01	9.228576e-01	9.814484e-01	8.610818e-01	8.873635e-01	8.227268e-01	1.109657e+00	9.480862e-01	1.165194e+00	1.099787e+00	1.292655e+00	1.182396e+00	1.173239e+00	1.019662e+00	1.061071e+00	1.266819e+00	9.860889e-01	1.215161e+00	1.088055e+00	1.162220e+00	1.177070e+00	1.178084e+00	1.125394e+00	8.422730e-01	8.429661e-01	1.104104e+00	8.875232e-01	1.085422e+00	1.113495e+00	9.274166e-01	1.200346e+00	8.190574e-01	8.179042e-01	8.153565e-01	9.186304e-01	1.053515e+00	1.090229e+00	1.275368e+00	1.103590e+00	9.824632e-01	9.865842e-01	9.919676e-01	9.963993e-01	9.609127e-01	9.751870e-01	1.001531e+00	1.005528e+00	1.010476e+00	1.015552e+00	1.052017e+00	1.062694e+00	9.506747e-01	1.128592e+00	8.712013e-01	8.740596e-01	8.679455e-01	8.702257e-01	1.033937e+00	1.042156e+00	8.961319e-01	8.870611e-01	1.095042e+00	1.104744e+00	9.442307e-01	9.244577e-01	9.135869e-01	9.068885e-01	8.945606e-01	1.042140e+00	1.023522e+00	1.005696e+00	9.901762e-01	8.451433e-01	8.475543e-01	8.527461e-01	8.570720e-01	8.623208e-01	8.746296e-01	8.702048e-01	8.631614e-01	8.596523e-01	8.539609e-01	1.094060e+00	1.092120e+00	1.090234e+00	8.551447e-01	8.511622e-01	8.458020e-01	8.421468e-01	8.372576e-01	8.441299e-01	8.563089e-01	8.143961e-01	8.120732e-01	8.067145e-01	8.095170e-01	8.115178e-01	1.062798e+00	1.057371e+00	1.051301e+00	1.045470e+00	1.039259e+00	1.033320e+00	1.026486e+00	1.016600e+00	1.007202e+00	9.955212e-01	9.667822e-01	9.520079e-01	9.373304e-01	9.088918e-01	8.965271e-01	8.114914e-01	8.094084e-01	8.091958e-01	8.072723e-01	8.076411e-01	8.069205e-01	8.069019e-01	8.706083e-01	8.868212e-01	9.676334e-01	9.721154e-01	9.771654e-01	8.771546e-01	8.809940e-01	9.067905e-01	9.307005e-01	9.566997e-01	8.135208e-01	8.165305e-01	8.214321e-01	8.284836e-01	8.356261e-01	8.343666e-01	8.303457e-01	8.285535e-01	8.256163e-01	1.078251e+00	1.072998e+00	9.021736e-01	9.101975e-01	8.514231e-01	8.469417e-01	8.455649e-01	8.426399e-01	1.166091e+00	1.154364e+00	1.181127e+00	1.255106e+00	1.180686e+00	1.088612e+00	1.106544e+00	1.183564e+00	1.086425e+00	1.141061e+00	1.105952e+00	1.255402e+00	1.081701e+00	1.161499e+00	8.280765e-01	1.177729e+00	1.061171e+00	1.152522e+00	1.141368e+00	1.079419e+00	8.886795e-01	1.101708e+00	8.495504e-01	1.035127e+00	1.024746e+00	9.104725e-01	9.439256e-01	8.862153e-01	1.231259e+00	8.725905e-01	9.699031e-01	9.570383e-01	8.169261e-01	1.094247e+00	1.066086e+00	1.213039e+00	1.031215e+00	1.070047e+00	1.170728e+00	1.097578e+00	1.291444e+00	1.245049e+00	1.113756e+00	9.440182e-01	8.703844e-01	8.607466e-01	1.112119e+00	1.173871e+00	1.129510e+00	1.275333e+00	1.176739e+00	1.064121e+00	1.216990e+00	1.199804e+00	8.880400e-01	1.101452e+00	1.083974e+00	1.080373e+00	8.787125e-01	8.242742e-01	8.207310e-01	9.357363e-01	1.092045e+00	1.122964e+00	1.122109e+00	9.900364e-01	9.994100e-01	9.827664e-01	1.008990e+00	1.017451e+00	1.060602e+00	1.121009e+00	8.759719e-01	1.043332e+00	1.051476e+00	8.993542e-01	1.097464e+00	9.512384e-01	9.586331e-01	9.277462e-01	9.143006e-01	8.953070e-01	1.046494e+00	1.027914e+00	1.011123e+00	9.995529e-01	8.534078e-01	8.612442e-01	8.688034e-01	8.737902e-01	8.634463e-01	1.091464e+00	1.088977e+00	8.512943e-01	8.428299e-01	8.759507e-01	8.178925e-01	8.222175e-01	1.003308e+00	1.056135e+00	1.044916e+00	1.033386e+00	1.022807e+00	1.013422e+00	9.909738e-01	9.773013e-01	9.632188e-01	9.490949e-01	9.349584e-01	9.210216e-01	9.083321e-01	8.977754e-01	8.158350e-01	8.145222e-01	8.147352e-01	8.134724e-01	8.155477e-01	8.921866e-01	9.090745e-01	9.671376e-01	9.752252e-01	9.831644e-01	8.799579e-01	8.836735e-01	9.282545e-01	9.513553e-01	9.765084e-01	1.002628e+00	8.260553e-01	8.296817e-01	8.352668e-01	8.437882e-01	8.546798e-01	8.607029e-01	8.362334e-01	8.324863e-01	1.077839e+00	1.073338e+00	9.027115e-01	9.185884e-01	9.270765e-01	8.555885e-01	8.506305e-01	1.117379e+00	1.166029e+00	1.161190e+00	1.136242e+00	1.025303e+00	1.108363e+00	1.173800e+00	1.135635e+00	1.185608e+00	1.135147e+00	1.147618e+00	1.126789e+00	1.092671e+00	1.193743e+00	1.235693e+00	1.088377e+00	9.514707e-01	8.357768e-01	1.125033e+00	1.017072e+00	1.099375e+00	8.876048e-01	1.066828e+00	1.169557e+00	8.756518e-01	1.043542e+00	9.188641e-01	8.965162e-01	1.083530e+00	1.091452e+00	1.082088e+00	1.066900e+00	1.171388e+00	1.098733e+00	1.103068e+00	1.082853e+00	8.280497e-01	8.986514e-01	9.354601e-01	9.895402e-01	1.150508e+00	1.157251e+00	1.272096e+00	1.075358e+00	1.085468e+00	1.175647e+00	1.099202e+00	1.169181e+00	1.152244e+00	8.907459e-01	1.224959e+00	9.797552e-01	9.644459e-01	1.094850e+00	1.233715e+00	1.067202e+00	1.106572e+00	9.437812e-01	1.254390e+00	1.176121e+00	1.005065e+00	1.213134e+00	1.200174e+00	8.803490e-01	1.117542e+00	1.079378e+00	8.891630e-01	8.316680e-01	9.088380e-01	1.118490e+00	1.143586e+00	9.979544e-01	1.007513e+00	1.025351e+00	1.034268e+00	1.114281e+00	8.793056e-01	1.051224e+00	1.058986e+00	8.698518e-01	9.747706e-01	9.827095e-01	9.587241e-01	9.498018e-01	9.345210e-01	9.197120e-01	1.048922e+00	8.580242e-01	8.627857e-01	9.053041e-01	8.913879e-01	9.270379e-01	1.091456e+00	8.712613e-01	8.617485e-01	8.329287e-01	1.059541e+00	1.049608e+00	1.009906e+00	1.038952e+00	1.028655e+00	1.019237e+00	9.992246e-01	9.868928e-01	9.736871e-01	9.602221e-01	9.466377e-01	9.330170e-01	9.201361e-01	8.251796e-01	8.233539e-01	8.224668e-01	8.225029e-01	8.226957e-01	8.270936e-01	9.123293e-01	9.305889e-01	9.665029e-01	9.899367e-01	8.825220e-01	8.862355e-01	9.485797e-01	9.695113e-01	9.930639e-01	1.016585e+00	1.041164e+00	8.400232e-01	8.458559e-01	8.512349e-01	8.594833e-01	8.716197e-01	8.528400e-01	8.455101e-01	8.401779e-01	1.074595e+00	1.067863e+00	9.034584e-01	9.110098e-01	8.789163e-01	8.688274e-01	8.615558e-01	8.576556e-01	1.152321e+00	1.152993e+00	1.149693e+00	1.121118e+00	1.156201e+00	1.140372e+00	1.113729e+00	1.050462e+00	1.172804e+00	1.120697e+00	1.117942e+00	1.071721e+00	1.166003e+00	1.084799e+00	8.328491e-01	1.137619e+00	1.141609e+00	1.128260e+00	1.169442e+00	1.071085e+00	9.258212e-01	1.026888e+00	1.024900e+00	9.593669e-01	1.132817e+00	1.131988e+00	1.128178e+00	1.171846e+00	1.172203e+00	9.002908e-01	9.