# vtk DataFile Version 3.0
vtk output
ASCII
DATASET UNSTRUCTURED_GRID
POINTS 200 float
9.997500e-01	-3.633243e-05	0.0	9.990000e-01	-1.454727e-04	0.0	9.977600e-01	-3.275112e-04	0.0	9.960200e-01	-5.899479e-04	0.0	9.937800e-01	-9.471698e-04	0.0	9.910500e-01	-1.422304e-03	0.0	9.878400e-01	-2.045993e-03	0.0	9.841300e-01	-2.854614e-03	0.0	9.799500e-01	-3.860523e-03	0.0	9.752800e-01	-5.060890e-03	0.0	9.701500e-01	-6.408855e-03	0.0	9.645400e-01	-7.845872e-03	0.0	9.584700e-01	-9.296509e-03	0.0	9.519400e-01	-1.070533e-02	0.0	9.449600e-01	-1.204435e-02	0.0	9.375400e-01	-1.331796e-02	0.0	9.296900e-01	-1.455348e-02	0.0	9.214000e-01	-1.578922e-02	0.0	9.127000e-01	-1.705246e-02	0.0	9.035800e-01	-1.836423e-02	0.0	8.940600e-01	-1.972817e-02	0.0	8.841500e-01	-2.113966e-02	0.0	8.738500e-01	-2.259048e-02	0.0	8.631800e-01	-2.406851e-02	0.0	8.521600e-01	-2.556309e-02	0.0	8.407700e-01	-2.707106e-02	0.0	8.290500e-01	-2.858319e-02	0.0	8.170100e-01	-3.009564e-02	0.0	8.046400e-01	-3.160757e-02	0.0	7.919700e-01	-3.311336e-02	0.0	7.790100e-01	-3.460972e-02	0.0	7.657800e-01	-3.609205e-02	0.0	7.522800e-01	-3.755779e-02	0.0	7.385200e-01	-3.900309e-02	0.0	7.245300e-01	-4.042206e-02	0.0	7.103200e-01	-4.181110e-02	0.0	6.958900e-01	-4.316762e-02	0.0	6.812700e-01	-4.448643e-02	0.0	6.664700e-01	-4.576453e-02	0.0	6.515000e-01	-4.699915e-02	0.0	6.363800e-01	-4.818698e-02	0.0	6.211300e-01	-4.932511e-02	0.0	6.057600e-01	-5.041170e-02	0.0	5.902800e-01	-5.144510e-02	0.0	5.747100e-01	-5.242328e-02	0.0	5.590600e-01	-5.334509e-02	0.0	5.433600e-01	-5.420844e-02	0.0	5.276100e-01	-5.501315e-02	0.0	5.118400e-01	-5.575760e-02	0.0	4.960500e-01	-5.644172e-02	0.0	4.802700e-01	-5.706421e-02	0.0	4.645100e-01	-5.762467e-02	0.0	4.487800e-01	-5.812265e-02	0.0	4.331100e-01	-5.855708e-02	0.0	4.175000e-01	-5.892774e-02	0.0	4.019700e-01	-5.923376e-02	0.0	3.865400e-01	-5.947425e-02	0.0	3.712300e-01	-5.964834e-02	0.0	3.560400e-01	-5.975523e-02	0.0	3.409900e-01	-5.979377e-02	0.0	3.261100e-01	-5.976288e-02	0.0	3.114000e-01	-5.966139e-02	0.0	2.968700e-01	-5.948795e-02	0.0	2.825500e-01	-5.924145e-02	0.0	2.684500e-01	-5.892061e-02	0.0	2.545700e-01	-5.852373e-02	0.0	2.409400e-01	-5.804996e-02	0.0	2.275700e-01	-5.749798e-02	0.0	2.144700e-01	-5.686651e-02	0.0	2.016600e-01	-5.615485e-02	0.0	1.891400e-01	-5.536129e-02	0.0	1.769300e-01	-5.448541e-02	0.0	1.650400e-01	-5.352634e-02	0.0	1.534900e-01	-5.248429e-02	0.0	1.422900e-01	-5.135895e-02	0.0	1.314400e-01	-5.014905e-02	0.0	1.209500e-01	-4.885431e-02	0.0	1.108500e-01	-4.747749e-02	0.0	1.011300e-01	-4.601640e-02	0.0	9.181000e-02	-4.447312e-02	0.0	8.290000e-02	-4.284876e-02	0.0	7.440000e-02	-4.114263e-02	0.0	6.633000e-02	-3.935827e-02	0.0	5.869000e-02	-3.749535e-02	0.0	5.149000e-02	-3.555586e-02	0.0	4.474000e-02	-3.354231e-02	0.0	3.844000e-02	-3.145437e-02	0.0	3.260000e-02	-2.929487e-02	0.0	2.723000e-02	-2.706749e-02	0.0	2.232000e-02	-2.476720e-02	0.0	1.790000e-02	-2.240798e-02	0.0	1.395000e-02	-1.997902e-02	0.0	1.049000e-02	-1.749160e-02	0.0	7.520000e-03	-1.494667e-02	0.0	5.040000e-03	-1.234443e-02	0.0	3.050000e-03	-9.683432e-03	0.0	1.560000e-03	-6.979041e-03	0.0	5.600000e-04	-4.210276e-03	0.0	6.000000e-05	-1.384916e-03	0.0	0.000000e+00	0.000000e+00	0.0	6.000000e-05	1.264641e-03	0.0	5.600000e-04	3.628980e-03	0.0	1.560000e-03	5.796241e-03	0.0	3.050000e-03	7.817763e-03	0.0	5.040000e-03	9.738418e-03	0.0	7.520000e-03	1.156585e-02	0.0	1.049000e-02	1.331499e-02	0.0	1.395000e-02	1.499634e-02	0.0	1.790000e-02	1.661780e-02	0.0	2.232000e-02	1.817899e-02	0.0	2.723000e-02	1.969307e-02	0.0	3.260000e-02	2.115592e-02	0.0	3.844000e-02	2.257527e-02	0.0	4.474000e-02	2.395250e-02	0.0	5.149000e-02	2.528900e-02	0.0	5.869000e-02	2.658781e-02	0.0	6.633000e-02	2.784970e-02	0.0	7.440000e-02	2.907533e-02	0.0	8.290000e-02	3.026664e-02	0.0	9.181000e-02	3.142256e-02	0.0	1.011300e-01	3.254459e-02	0.0	1.108500e-01	3.363274e-02	0.0	1.209500e-01	3.468586e-02	0.0	1.314400e-01	3.570584e-02	0.0	1.422900e-01	3.669040e-02	0.0	1.534900e-01	3.763927e-02	0.0	1.650400e-01	3.855282e-02	0.0	1.769300e-01	3.943037e-02	0.0	1.891400e-01	4.027046e-02	0.0	2.016600e-01	4.107230e-02	0.0	2.144700e-01	4.183438e-02	0.0	2.275700e-01	4.255630e-02	0.0	2.409400e-01	4.323635e-02	0.0	2.545700e-01	4.387328e-02	0.0	2.684500e-01	4.446569e-02	0.0	2.825500e-01	4.501126e-02	0.0	2.968700e-01	4.550883e-02	0.0	3.114000e-01	4.595661e-02	0.0	3.261100e-01	4.635215e-02	0.0	3.409900e-01	4.669357e-02	0.0	3.560400e-01	4.697901e-02	0.0	3.712300e-01	4.720590e-02	0.0	3.865400e-01	4.737196e-02	0.0	4.019700e-01	4.747502e-02	0.0	4.175000e-01	4.751267e-02	0.0	4.331100e-01	4.748255e-02	0.0	4.487800e-01	4.738245e-02	0.0	4.645100e-01	4.721003e-02	0.0	4.802700e-01	4.696332e-02	0.0	4.960500e-01	4.664032e-02	0.0	5.118400e-01	4.623912e-02	0.0	5.276100e-01	4.575860e-02	0.0	5.433600e-01	4.519707e-02	0.0	5.590600e-01	4.455418e-02	0.0	5.747100e-01	4.382883e-02	0.0	5.902800e-01	4.302167e-02	0.0	6.057600e-01	4.213298e-02	0.0	6.211300e-01	4.116413e-02	0.0	6.363800e-01	4.011655e-02	0.0	6.515000e-01	3.899216e-02	0.0	6.664700e-01	3.779433e-02	0.0	6.812700e-01	3.652728e-02	0.0	6.958900e-01	3.519513e-02	0.0	7.103200e-01	3.380271e-02	0.0	7.245300e-01	3.235757e-02	0.0	7.385200e-01	3.086503e-02	0.0	7.522800e-01	2.933205e-02	0.0	7.657800e-01	2.776849e-02	0.0	7.790100e-01	2.618275e-02	0.0	7.919700e-01	2.458244e-02	0.0	8.046400e-01	2.297810e-02	0.0	8.170100e-01	2.137935e-02	0.0	8.290500e-01	1.979854e-02	0.0	8.407700e-01	1.824247e-02	0.0	8.521600e-01	1.671957e-02	0.0	8.631800e-01	1.524069e-02	0.0	8.738500e-01	1.380630e-02	0.0	8.841500e-01	1.241961e-02	0.0	8.940600e-01	1.108181e-02	0.0	9.035800e-01	9.791187e-03	0.0	9.127000e-01	8.550444e-03	0.0	9.214000e-01	7.370519e-03	0.0	9.296900e-01	6.267993e-03	0.0	9.375400e-01	5.273863e-03	0.0	9.449600e-01	4.417323e-03	0.0	9.519400e-01	3.723322e-03	0.0	9.584700e-01	3.197978e-03	0.0	9.645400e-01	2.821064e-03	0.0	9.701500e-01	2.547627e-03	0.0	9.752800e-01	2.321746e-03	0.0	9.799500e-01	2.091093e-03	0.0	9.841300e-01	1.825891e-03	0.0	9.878400e-01	1.519324e-03	0.0	9.910500e-01	1.189948e-03	0.0	9.937800e-01	8.629302e-04	0.0	9.960200e-01	5.666010e-04	0.0	9.977600e-01	3.231836e-04	0.0	9.990000e-01	1.450779e-04	0.0	9.997500e-01	3.632618e-05	0.0	1.000000e+00	0.000000e+00	0.0	
CELLS 200	600
2	199	0	2	0	1	2	1	2	2	2	3	2	3	4	2	4	5	2	5	6	2	6	7	2	7	8	2	8	9	2	9	10	2	10	11	2	11	12	2	12	13	2	13	14	2	14	15	2	15	16	2	16	17	2	17	18	2	18	19	2	19	20	2	20	21	2	21	22	2	22	23	2	23	24	2	24	25	2	25	26	2	26	27	2	27	28	2	28	29	2	29	30	2	30	31	2	31	32	2	32	33	2	33	34	2	34	35	2	35	36	2	36	37	2	37	38	2	38	39	2	39	40	2	40	41	2	41	42	2	42	43	2	43	44	2	44	45	2	45	46	2	46	47	2	47	48	2	48	49	2	49	50	2	50	51	2	51	52	2	52	53	2	53	54	2	54	55	2	55	56	2	56	57	2	57	58	2	58	59	2	59	60	2	60	61	2	61	62	2	62	63	2	63	64	2	64	65	2	65	66	2	66	67	2	67	68	2	68	69	2	69	70	2	70	71	2	71	72	2	72	73	2	73	74	2	74	75	2	75	76	2	76	77	2	77	78	2	78	79	2	79	80	2	80	81	2	81	82	2	82	83	2	83	84	2	84	85	2	85	86	2	86	87	2	87	88	2	88	89	2	89	90	2	90	91	2	91	92	2	92	93	2	93	94	2	94	95	2	95	96	2	96	97	2	97	98	2	98	99	2	99	100	2	100	101	2	101	102	2	102	103	2	103	104	2	104	105	2	105	106	2	106	107	2	107	108	2	108	109	2	109	110	2	110	111	2	111	112	2	112	113	2	113	114	2	114	115	2	115	116	2	116	117	2	117	118	2	118	119	2	119	120	2	120	121	2	121	122	2	122	123	2	123	124	2	124	125	2	125	126	2	126	127	2	127	128	2	128	129	2	129	130	2	130	131	2	131	132	2	132	133	2	133	134	2	134	135	2	135	136	2	136	137	2	137	138	2	138	139	2	139	140	2	140	141	2	141	142	2	142	143	2	143	144	2	144	145	2	145	146	2	146	147	2	147	148	2	148	149	2	149	150	2	150	151	2	151	152	2	152	153	2	153	154	2	154	155	2	155	156	2	156	157	2	157	158	2	158	159	2	159	160	2	160	161	2	161	162	2	162	163	2	163	164	2	164	165	2	165	166	2	166	167	2	167	168	2	168	169	2	169	170	2	170	171	2	171	172	2	172	173	2	173	174	2	174	175	2	175	176	2	176	177	2	177	178	2	178	179	2	179	180	2	180	181	2	181	182	2	182	183	2	183	184	2	184	185	2	185	186	2	186	187	2	187	188	2	188	189	2	189	190	2	190	191	2	191	192	2	192	193	2	193	194	2	194	195	2	195	196	2	196	197	2	197	198	2	198	199	
CELL_TYPES 200
3	3	3	3	3	3	3	3	3	3	3	3	3	3	3	3	3	3	3	3	3	3	3	3	3	3	3	3	3	3	3	3	3	3	3	3	3	3	3	3	3	3	3	3	3	3	3	3	3	3	3	3	3	3	3	3	3	3	3	3	3	3	3	3	3	3	3	3	3	3	3	3	3	3	3	3	3	3	3	3	3	3	3	3	3	3	3	3	3	3	3	3	3	3	3	3	3	3	3	3	3	3	3	3	3	3	3	3	3	3	3	3	3	3	3	3	3	3	3	3	3	3	3	3	3	3	3	3	3	3	3	3	3	3	3	3	3	3	3	3	3	3	3	3	3	3	3	3	3	3	3	3	3	3	3	3	3	3	3	3	3	3	3	3	3	3	3	3	3	3	3	3	3	3	3	3	3	3	3	3	3	3	3	3	3	3	3	3	3	3	3	3	3	3	3	3	3	3	3	3	
POINT_DATA 200

SCALARS Conservative_1 float 1
LOOKUP_TABLE default
1.199835e+00	1.181618e+00	1.171203e+00	1.164774e+00	1.160213e+00	1.155757e+00	1.148878e+00	1.137961e+00	1.121774e+00	1.100406e+00	1.075096e+00	1.048458e+00	1.024859e+00	1.008298e+00	9.999078e-01	9.978416e-01	9.989479e-01	1.000389e+00	1.000413e+00	9.984203e-01	9.946307e-01	9.896025e-01	9.839219e-01	9.780611e-01	9.722979e-01	9.667430e-01	9.613876e-01	9.561846e-01	9.510692e-01	9.460099e-01	9.409906e-01	9.359674e-01	9.309063e-01	9.258237e-01	9.207713e-01	9.157975e-01	9.109212e-01	9.061470e-01	9.014864e-01	8.969560e-01	8.925557e-01	8.882962e-01	8.841600e-01	8.801639e-01	8.763228e-01	8.726884e-01	8.692500e-01	8.659432e-01	8.626209e-01	8.592734e-01	8.561032e-01	8.534652e-01	8.514756e-01	8.498456e-01	8.479045e-01	8.448975e-01	8.403138e-01	8.342851e-01	8.276806e-01	8.217651e-01	8.174430e-01	8.149195e-01	8.139252e-01	8.140244e-01	8.149039e-01	8.163619e-01	8.183478e-01	8.207768e-01	8.235626e-01	8.265931e-01	8.298890e-01	8.336158e-01	8.380213e-01	8.431724e-01	8.489908e-01	8.553296e-01	8.622549e-01	8.699462e-01	8.784607e-01	8.878377e-01	8.981894e-01	9.095748e-01	9.221459e-01	9.360209e-01	9.513906e-01	9.685327e-01	9.876761e-01	1.009180e+00	1.033531e+00	1.061044e+00	1.092248e+00	1.127609e+00	1.166968e+00	1.209857e+00	1.254559e+00	1.298051e+00	1.331739e+00	1.350892e+00	1.339578e+00	1.308406e+00	1.284485e+00	1.221505e+00	1.100128e+00	1.002746e+00	9.266906e-01	8.708297e-01	8.326781e-01	8.075265e-01	7.905697e-01	7.790661e-01	7.713181e-01	7.661542e-01	7.630125e-01	7.611531e-01	7.601995e-01	7.601471e-01	7.608666e-01	7.621202e-01	7.635856e-01	7.649335e-01	7.661776e-01	7.676417e-01	7.695867e-01	7.718649e-01	7.740760e-01	7.759889e-01	7.776935e-01	7.793366e-01	7.810221e-01	7.828215e-01	7.847909e-01	7.869144e-01	7.891198e-01	7.913069e-01	7.934337e-01	7.954763e-01	7.974259e-01	7.992431e-01	8.009376e-01	8.026317e-01	8.045628e-01	8.069247e-01	8.098001e-01	8.131452e-01	8.168904e-01	8.209638e-01	8.252604e-01	8.296952e-01	8.341869e-01	8.387265e-01	8.432944e-01	8.480036e-01	8.530796e-01	8.587488e-01	8.649792e-01	8.715252e-01	8.781973e-01	8.850303e-01	8.922045e-01	8.997637e-01	9.076499e-01	9.157746e-01	9.240915e-01	9.325895e-01	9.412385e-01	9.500244e-01	9.588972e-01	9.678393e-01	9.767766e-01	9.857117e-01	9.945617e-01	1.003246e+00	1.011701e+00	1.019844e+00	1.027628e+00	1.035031e+00	1.042100e+00	1.049014e+00	1.056035e+00	1.063551e+00	1.071861e+00	1.081060e+00	1.090768e+00	1.100119e+00	1.107863e+00	1.112661e+00	1.113421e+00	1.109780e+00	1.102500e+00	1.093751e+00	1.086618e+00	1.084078e+00	1.087975e+00	1.098199e+00	1.112791e+00	1.129975e+00	1.148455e+00	1.168625e+00	1.192711e+00	1.181129e+00	
SCALARS Conservative_2 float 1
LOOKUP_TABLE default
7.195573e-01	7.459220e-01	7.639990e-01	7.747922e-01	7.806667e-01	7.854242e-01	7.912178e-01	8.008768e-01	8.158888e-01	8.363078e-01	8.604170e-01	8.848861e-01	9.060663e-01	9.215727e-01	9.308144e-01	9.347866e-01	9.355457e-01	9.351880e-01	9.351740e-01	9.361158e-01	9.380671e-01	9.407265e-01	9.437181e-01	9.467513e-01	9.496395e-01	9.523170e-01	9.547791e-01	9.570680e-01	9.591941e-01	9.611900e-01	9.630905e-01	9.648880e-01	9.665967e-01	9.682144e-01	9.697283e-01	9.711263e-01	9.724231e-01	9.735996e-01	9.746661e-01	9.756379e-01	9.764958e-01	9.772750e-01	9.779491e-01	9.785551e-01	9.790605e-01	9.795063e-01	9.798698e-01	9.802031e-01	9.804744e-01	9.807230e-01	9.808897e-01	9.810016e-01	9.810436e-01	9.810722e-01	9.811066e-01	9.811798e-01	9.812200e-01	9.811463e-01	9.808252e-01	9.803287e-01	9.798206e-01	9.794024e-01	9.791486e-01	9.789943e-01	9.789401e-01	9.788951e-01	9.788820e-01	9.788289e-01	9.787495e-01	9.785764e-01	9.783235e-01	9.779371e-01	9.774195e-01	9.766906e-01	9.757378e-01	9.744207e-01	9.727591e-01	9.706586e-01	9.678878e-01	9.642921e-01	9.597811e-01	9.540620e-01	9.468712e-01	9.377903e-01	9.263029e-01	9.116791e-01	8.929846e-01	8.691420e-01	8.385762e-01	7.991343e-01	7.483284e-01	6.831129e-01	5.998319e-01	4.963006e-01	3.725641e-01	2.364148e-01	1.073624e-01	1.084757e-02	-2.150969e-02	5.238190e-03	7.288941e-02	2.100298e-01	4.127862e-01	5.895606e-01	7.147424e-01	7.964941e-01	8.482157e-01	8.812145e-01	9.025362e-01	9.168951e-01	9.269471e-01	9.341178e-01	9.395863e-01	9.438600e-01	9.472870e-01	9.502247e-01	9.527362e-01	9.549075e-01	9.568362e-01	9.585000e-01	9.599839e-01	9.614023e-01	9.627717e-01	9.640042e-01	9.651040e-01	9.660685e-01	9.669539e-01	9.677652e-01	9.685452e-01	9.692907e-01	9.700343e-01	9.707554e-01	9.714578e-01	9.721098e-01	9.727257e-01	9.732900e-01	9.738157e-01	9.742935e-01	9.747386e-01	9.751701e-01	9.756414e-01	9.761336e-01	9.766525e-01	9.771713e-01	9.776713e-01	9.781373e-01	9.785393e-01	9.788927e-01	9.791393e-01	9.793253e-01	9.794289e-01	9.794684e-01	9.794123e-01	9.792349e-01	9.788752e-01	9.783137e-01	9.775875e-01	9.766401e-01	9.754722e-01	9.740252e-01	9.722977e-01	9.702651e-01	9.679317e-01	9.652814e-01	9.623089e-01	9.590084e-01	9.553785e-01	9.514592e-01	9.471844e-01	9.426655e-01	9.379091e-01	9.329338e-01	9.278553e-01	9.227289e-01	9.176094e-01	9.125230e-01	9.074138e-01	9.021589e-01	8.964653e-01	8.900358e-01	8.825342e-01	8.739530e-01	8.647184e-01	8.559150e-01	8.490853e-01	8.457983e-01	8.470659e-01	8.527929e-01	8.615182e-01	8.705712e-01	8.766387e-01	8.770723e-01	8.705625e-01	8.578445e-01	8.396544e-01	8.175445e-01	7.912299e-01	7.596768e-01	7.213386e-01	6.623533e-01	
SCALARS Conservative_3 float 1
LOOKUP_TABLE default
1.010182e-01	1.066648e-01	1.128614e-01	1.197627e-01	1.301870e-01	1.448203e-01	1.633156e-01	1.837576e-01	2.029952e-01	2.171017e-01	2.228905e-01	2.187813e-01	2.057389e-01	1.875602e-01	1.689761e-01	1.536595e-01	1.432511e-01	1.375105e-01	1.350849e-01	1.343408e-01	1.339810e-01	1.332416e-01	1.318373e-01	1.297960e-01	1.272864e-01	1.245083e-01	1.215955e-01	1.186372e-01	1.156590e-01	1.126485e-01	1.095942e-01	1.064755e-01	1.032809e-01	1.000030e-01	9.662768e-02	9.316984e-02	8.962597e-02	8.601462e-02	8.234219e-02	7.862074e-02	7.486352e-02	7.107749e-02	6.728121e-02	6.347626e-02	5.967023e-02	5.585453e-02	5.203299e-02	4.821783e-02	4.443252e-02	4.068156e-02	3.692871e-02	3.311719e-02	2.922452e-02	2.523724e-02	2.118673e-02	1.711667e-02	1.307282e-02	9.044153e-03	4.924460e-03	5.746354e-04	-4.043864e-03	-8.909570e-03	-1.401059e-02	-1.933510e-02	-2.492127e-02	-3.079729e-02	-3.701967e-02	-4.360537e-02	-5.058805e-02	-5.798782e-02	-6.585204e-02	-7.424529e-02	-8.323808e-02	-9.286298e-02	-1.031627e-01	-1.141896e-01	-1.260552e-01	-1.388266e-01	-1.525800e-01	-1.674401e-01	-1.835258e-01	-2.009500e-01	-2.198688e-01	-2.404174e-01	-2.627166e-01	-2.868847e-01	-3.129919e-01	-3.409825e-01	-3.704674e-01	-4.007106e-01	-4.302292e-01	-4.559056e-01	-4.726521e-01	-4.720434e-01	-4.411656e-01	-3.646300e-01	-2.307892e-01	-3.830368e-02	1.853574e-01	3.512506e-01	4.956365e-01	6.604196e-01	7.233953e-01	6.886634e-01	6.117628e-01	5.281702e-01	4.536615e-01	3.918195e-01	3.415418e-01	3.004460e-01	2.667989e-01	2.388147e-01	2.153175e-01	1.953531e-01	1.781837e-01	1.632938e-01	1.502969e-01	1.388403e-01	1.286690e-01	1.195106e-01	1.111653e-01	1.035633e-01	9.665532e-02	9.034895e-02	8.451402e-02	7.900360e-02	7.379142e-02	6.885276e-02	6.417845e-02	5.971824e-02	5.544024e-02	5.131282e-02	4.730459e-02	4.337761e-02	3.950752e-02	3.567479e-02	3.186571e-02	2.805879e-02	2.422407e-02	2.033989e-02	1.640985e-02	1.243810e-02	8.418644e-03	4.324631e-03	1.377122e-04	-4.154705e-03	-8.561879e-03	-1.308601e-02	-1.774172e-02	-2.252461e-02	-2.743378e-02	-3.248550e-02	-3.764075e-02	-4.288414e-02	-4.817228e-02	-5.352407e-02	-5.894814e-02	-6.441930e-02	-6.987962e-02	-7.528787e-02	-8.060548e-02	-8.581956e-02	-9.087104e-02	-9.573077e-02	-1.003290e-01	-1.046420e-01	-1.085990e-01	-1.121654e-01	-1.152856e-01	-1.179158e-01	-1.200150e-01	-1.215491e-01	-1.225193e-01	-1.229509e-01	-1.229166e-01	-1.225622e-01	-1.220628e-01	-1.215965e-01	-1.212352e-01	-1.208148e-01	-1.198026e-01	-1.173012e-01	-1.121917e-01	-1.035883e-01	-9.130073e-02	-7.625210e-02	-6.060839e-02	-4.746090e-02	-4.006028e-02	-4.061502e-02	-4.922163e-02	-6.364159e-02	-8.006017e-02	-9.474081e-02	-1.049572e-01	-1.097877e-01	-1.102818e-01	-1.062004e-01	-1.003427e-01	2.578007e-03	
SCALARS Conservative_4 float 1
LOOKUP_TABLE default
3.446415e+00	3.400824e+00	3.375559e+00	3.360067e+00	3.348945e+00	3.338095e+00	3.321014e+00	3.293827e+00	3.253441e+00	3.200080e+00	3.136762e+00	3.069879e+00	3.010454e+00	2.968731e+00	2.947620e+00	2.942411e+00	2.945150e+00	2.948703e+00	2.948671e+00	2.943529e+00	2.933841e+00	2.921009e+00	2.906507e+00	2.891529e+00	2.876777e+00	2.862536e+00	2.848784e+00	2.835408e+00	2.822237e+00	2.809195e+00	2.796247e+00	2.783273e+00	2.770186e+00	2.757030e+00	2.743936e+00	2.731031e+00	2.718368e+00	2.705954e+00	2.693821e+00	2.682017e+00	2.670536e+00	2.659417e+00	2.648603e+00	2.638151e+00	2.628088e+00	2.618562e+00	2.609539e+00	2.600862e+00	2.592135e+00	2.583345e+00	2.575004e+00	2.568054e+00	2.562793e+00	2.558479e+00	2.553356e+00	2.545451e+00	2.533406e+00	2.517548e+00	2.500120e+00	2.484460e+00	2.472984e+00	2.466254e+00	2.463589e+00	2.463827e+00	2.466150e+00	2.470003e+00	2.475265e+00	2.481694e+00	2.489072e+00	2.497087e+00	2.505804e+00	2.515646e+00	2.527272e+00	2.540842e+00	2.556159e+00	2.572805e+00	2.590980e+00	2.611145e+00	2.633404e+00	2.657846e+00	2.684779e+00	2.714318e+00	2.746849e+00	2.782638e+00	2.822139e+00	2.866011e+00	2.914770e+00	2.969297e+00	3.030744e+00	3.099761e+00	3.177609e+00	3.265327e+00	3.362261e+00	3.467209e+00	3.575843e+00	3.681307e+00	3.762476e+00	3.809703e+00	3.781343e+00	3.703200e+00	3.650180e+00	3.500832e+00	3.192458e+00	2.944844e+00	2.749729e+00	2.605588e+00	2.506909e+00	2.441772e+00	2.397692e+00	2.367689e+00	2.347452e+00	2.333902e+00	2.325676e+00	2.320829e+00	2.318372e+00	2.318328e+00	2.320324e+00	2.323727e+00	2.327706e+00	2.331370e+00	2.334767e+00	2.338767e+00	2.344045e+00	2.350178e+00	2.356121e+00	2.361265e+00	2.365861e+00	2.370289e+00	2.374833e+00	2.379674e+00	2.384968e+00	2.390667e+00	2.396582e+00	2.402441e+00	2.408138e+00	2.413606e+00	2.418824e+00	2.423688e+00	2.428226e+00	2.432764e+00	2.437941e+00	2.444257e+00	2.451930e+00	2.460840e+00	2.470800e+00	2.481620e+00	2.493015e+00	2.504771e+00	2.516657e+00	2.528664e+00	2.540736e+00	2.553177e+00	2.566571e+00	2.581509e+00	2.597891e+00	2.615068e+00	2.632556e+00	2.650431e+00	2.669171e+00	2.688878e+00	2.709402e+00	2.730504e+00	2.752065e+00	2.774052e+00	2.796385e+00	2.819027e+00	2.841844e+00	2.864801e+00	2.887682e+00	2.910523e+00	2.933103e+00	2.955208e+00	2.976698e+00	2.997360e+00	3.017080e+00	3.035807e+00	3.053656e+00	3.071087e+00	3.088738e+00	3.107595e+00	3.128383e+00	3.151357e+00	3.175561e+00	3.198878e+00	3.218230e+00	3.230316e+00	3.232398e+00	3.223503e+00	3.205448e+00	3.183600e+00	3.165631e+00	3.159020e+00	3.168462e+00	3.193835e+00	3.230011e+00	3.272572e+00	3.318047e+00	3.367466e+00	3.426993e+00	3.383864e+00	
SCALARS Pressure float 1
LOOKUP_TABLE default
1.290559e+00	1.264228e+00	1.248374e+00	1.238488e+00	1.231600e+00	1.224858e+00	1.214782e+00	1.198868e+00	1.175347e+00	1.144347e+00	1.107742e+00	1.069454e+00	1.035713e+00	1.012053e+00	1.000038e+00	9.970888e-01	9.987180e-01	1.000854e+00	1.000983e+00	9.982564e-01	9.929827e-01	9.859628e-01	9.780383e-01	9.698777e-01	9.618762e-01	9.541861e-01	9.467946e-01	9.396290e-01	9.326042e-01	9.256725e-01	9.188041e-01	9.119463e-01	9.050517e-01	8.981424e-01	8.912888e-01	8.845572e-01	8.779682e-01	8.715339e-01	8.652668e-01	8.591843e-01	8.532927e-01	8.475959e-01	8.420799e-01	8.367557e-01	8.316539e-01	8.268303e-01	8.222791e-01	8.179001e-01	8.135105e-01	8.090851e-01	8.049100e-01	8.014453e-01	7.988510e-01	7.967295e-01	7.941895e-01	7.902223e-01	7.841710e-01	7.762276e-01	7.675809e-01	7.598863e-01	7.542989e-01	7.510654e-01	7.498051e-01	7.499594e-01	7.511084e-01	7.530114e-01	7.555895e-01	7.587509e-01	7.623714e-01	7.663203e-01	7.706153e-01	7.754870e-01	7.812542e-01	7.880209e-01	7.956750e-01	8.040545e-01	8.132212e-01	8.234212e-01	8.347776e-01	8.473567e-01	8.612923e-01	8.767031e-01	8.938030e-01	9.127925e-01	9.339711e-01	9.577767e-01	9.845966e-01	1.014969e+00	1.049660e+00	1.089263e+00	1.134611e+00	1.186498e+00	1.244953e+00	1.309331e+00	1.377182e+00	1.443426e+00	1.495260e+00	1.523647e+00	1.507338e+00	1.462417e+00	1.420995e+00	1.321698e+00	1.150872e+00	1.014020e+00	9.088655e-01	8.324661e-01	7.805220e-01	7.463604e-01	7.234941e-01	7.080806e-01	6.977283e-01	6.908918e-01	6.867138e-01	6.842193e-01	6.829123e-01	6.827491e-01	6.835938e-01	6.851397e-01	6.869469e-01	6.886040e-01	6.901184e-01	6.918986e-01	6.943000e-01	6.971615e-01	6.999481e-01	7.023558e-01	7.044895e-01	7.065485e-01	7.086598e-01	7.109229e-01	7.134033e-01	7.160883e-01	7.188800e-01	7.216560e-01	7.243554e-01	7.269522e-01	7.294304e-01	7.317414e-01	7.338930e-01	7.360430e-01	7.384900e-01	7.414994e-01	7.451779e-01	7.494746e-01	7.543007e-01	7.595634e-01	7.651308e-01	7.708834e-01	7.767313e-01	7.826461e-01	7.886081e-01	7.947592e-01	8.014055e-01	8.088501e-01	8.170660e-01	8.257323e-01	8.345858e-01	8.436880e-01	8.532716e-01	8.634082e-01	8.740192e-01	8.849937e-01	8.962684e-01	9.078316e-01	9.196449e-01	9.316901e-01	9.439031e-01	9.562493e-01	9.686535e-01	9.810882e-01	9.934480e-01	1.005628e+00	1.017520e+00	1.029007e+00	1.040017e+00	1.050517e+00	1.060576e+00	1.070444e+00	1.080510e+00	1.091327e+00	1.103345e+00	1.116692e+00	1.130813e+00	1.144417e+00	1.155636e+00	1.162493e+00	1.163414e+00	1.157932e+00	1.147246e+00	1.134552e+00	1.124359e+00	1.120942e+00	1.126887e+00	1.141880e+00	1.163313e+00	1.188596e+00	1.216077e+00	1.246289e+00	1.281857e+00	1.279258e+00	
SCALARS Temperature float 1
LOOKUP_TABLE default
1.075614e+00	1.069913e+00	1.065891e+00	1.063285e+00	1.061529e+00	1.059788e+00	1.057364e+00	1.053523e+00	1.047758e+00	1.039931e+00	1.030365e+00	1.020026e+00	1.010590e+00	1.003724e+00	1.000130e+00	9.992456e-01	9.997698e-01	1.000465e+00	1.000569e+00	9.998358e-01	9.983431e-01	9.963221e-01	9.940202e-01	9.916331e-01	9.892814e-01	9.870111e-01	9.848210e-01	9.826858e-01	9.805851e-01	9.785019e-01	9.764222e-01	9.743356e-01	9.722265e-01	9.701008e-01	9.679806e-01	9.658873e-01	9.638246e-01	9.618020e-01	9.598224e-01	9.578890e-01	9.560106e-01	9.541816e-01	9.524066e-01	9.506816e-01	9.490268e-01	9.474519e-01	9.459639e-01	9.445193e-01	9.430684e-01	9.415921e-01	9.402020e-01	9.390486e-01	9.381961e-01	9.374991e-01	9.366498e-01	9.352877e-01	9.331883e-01	9.304105e-01	9.273878e-01	9.247002e-01	9.227541e-01	9.216437e-01	9.212211e-01	9.212984e-01	9.217140e-01	9.223989e-01	9.233110e-01	9.244302e-01	9.256994e-01	9.270829e-01	9.285763e-01	9.302692e-01	9.322605e-01	9.345905e-01	9.372010e-01	9.400522e-01	9.431332e-01	9.465197e-01	9.502732e-01	9.544049e-01	9.589206e-01	9.638603e-01	9.692642e-01	9.751838e-01	9.816905e-01	9.888945e-01	9.968820e-01	1.005736e+00	1.015605e+00	1.026596e+00	1.038785e+00	1.052225e+00	1.066827e+00	1.082220e+00	1.097742e+00	1.111995e+00	1.122787e+00	1.127882e+00	1.125234e+00	1.117708e+00	1.106276e+00	1.082024e+00	1.046125e+00	1.011243e+00	9.807648e-01	9.559459e-01	9.373635e-01	9.242550e-01	9.151555e-01	9.088839e-01	9.045921e-01	9.017660e-01	9.000033e-01	8.989248e-01	8.983330e-01	8.981803e-01	8.984411e-01	8.989917e-01	8.996331e-01	9.002141e-01	9.007290e-01	9.013302e-01	9.021725e-01	9.032170e-01	9.042368e-01	9.051105e-01	9.058704e-01	9.066026e-01	9.073492e-01	9.081545e-01	9.090362e-01	9.099952e-01	9.109898e-01	9.119799e-01	9.129375e-01	9.138577e-01	9.147313e-01	9.155430e-01	9.162924e-01	9.170370e-01	9.178775e-01	9.189201e-01	9.201999e-01	9.216984e-01	9.233805e-01	9.252093e-01	9.271387e-01	9.291163e-01	9.311238e-01	9.331362e-01	9.351516e-01	9.372121e-01	9.394265e-01	9.418937e-01	9.446077e-01	9.474567e-01	9.503398e-01	9.532871e-01	9.563633e-01	9.595944e-01	9.629475e-01	9.663881e-01	9.698914e-01	9.734525e-01	9.770583e-01	9.807012e-01	9.843632e-01	9.880249e-01	9.916838e-01	9.953095e-01	9.988802e-01	1.002375e+00	1.005752e+00	1.008985e+00	1.012056e+00	1.014962e+00	1.017730e+00	1.020428e+00	1.023177e+00	1.026117e+00	1.029374e+00	1.032960e+00	1.036713e+00	1.040266e+00	1.043122e+00	1.044787e+00	1.044900e+00	1.043389e+00	1.040586e+00	1.037304e+00	1.034733e+00	1.034005e+00	1.035766e+00	1.039775e+00	1.045401e+00	1.051877e+00	1.058881e+00	1.066458e+00	1.074742e+00	1.083081e+00	
SCALARS Pressure_Coefficient float 1
LOOKUP_TABLE default
6.485703e-01	5.897942e-01	5.544069e-01	5.323388e-01	5.169633e-01	5.019148e-01	4.794242e-01	4.439012e-01	3.913999e-01	3.222024e-01	2.404951e-01	1.550323e-01	7.971607e-02	2.690443e-02	8.438170e-05	-6.498219e-03	-2.861648e-03	1.905598e-03	2.193171e-03	-3.892063e-03	-1.566366e-02	-3.133294e-02	-4.902171e-02	-6.723728e-02	-8.509767e-02	-1.022631e-01	-1.187620e-01	-1.347568e-01	-1.504370e-01	-1.659096e-01	-1.812408e-01	-1.965484e-01	-2.119381e-01	-2.273608e-01	-2.426590e-01	-2.576849e-01	-2.723923e-01	-2.867546e-01	-3.007437e-01	-3.143209e-01	-3.274717e-01	-3.401878e-01	-3.525003e-01	-3.643847e-01	-3.757726e-01	-3.865396e-01	-3.966984e-01	-4.064730e-01	-4.162712e-01	-4.261494e-01	-4.354688e-01	-4.432024e-01	-4.489932e-01	-4.537289e-01	-4.593984e-01	-4.682538e-01	-4.817612e-01	-4.994919e-01	-5.187926e-01	-5.359680e-01	-5.484400e-01	-5.556576e-01	-5.584709e-01	-5.581262e-01	-5.555617e-01	-5.513139e-01	-5.455591e-01	-5.385024e-01	-5.304209e-01	-5.216065e-01	-5.120194e-01	-5.011450e-01	-4.882719e-01	-4.731677e-01	-4.560825e-01	-4.373784e-01	-4.169170e-01	-3.941492e-01	-3.688000e-01	-3.407217e-01	-3.096153e-01	-2.752164e-01	-2.370469e-01	-1.946596e-01	-1.473860e-01	-9.424853e-02	-3.438269e-02	3.341321e-02	1.108476e-01	1.992487e-01	3.004708e-01	4.162910e-01	5.467709e-01	6.904706e-01	8.419248e-01	9.897895e-01	1.105492e+00	1.168854e+00	1.132452e+00	1.032180e+00	9.397209e-01	7.180748e-01	3.367674e-01	3.129411e-02	-2.034251e-01	-3.739595e-01	-4.899062e-01	-5.661598e-01	-6.172006e-01	-6.516057e-01	-6.747135e-01	-6.899736e-01	-6.992996e-01	-7.048676e-01	-7.077850e-01	-7.081492e-01	-7.062639e-01	-7.028132e-01	-6.987792e-01	-6.950804e-01	-6.917000e-01	-6.877263e-01	-6.823661e-01	-6.759788e-01	-6.697588e-01	-6.643845e-01	-6.596216e-01	-6.550256e-01	-6.503130e-01	-6.452614e-01	-6.397247e-01	-6.337314e-01	-6.275000e-01	-6.213036e-01	-6.152782e-01	-6.094818e-01	-6.039500e-01	-5.987914e-01	-5.939889e-01	-5.891898e-01	-5.837276e-01	-5.770104e-01	-5.687993e-01	-5.592085e-01	-5.484360e-01	-5.366889e-01	-5.242615e-01	-5.114210e-01	-4.983677e-01	-4.851649e-01	-4.718570e-01	-4.581267e-01	-4.432912e-01	-4.266739e-01	-4.083349e-01	-3.889904e-01	-3.692281e-01	-3.489106e-01	-3.275187e-01	-3.048924e-01	-2.812072e-01	-2.567105e-01	-2.315437e-01	-2.057330e-01	-1.793641e-01	-1.524774e-01	-1.252163e-01	-9.765777e-02	-6.996983e-02	-4.221378e-02	-1.462500e-02	1.256262e-02	3.910776e-02	6.474837e-02	8.932460e-02	1.127611e-01	1.352138e-01	1.572400e-01	1.797103e-01	2.038557e-01	2.306816e-01	2.604742e-01	2.919938e-01	3.223584e-01	3.474028e-01	3.627079e-01	3.647625e-01	3.525269e-01	3.286746e-01	3.003400e-01	2.775871e-01	2.699594e-01	2.832309e-01	3.166973e-01	3.645372e-01	4.209722e-01	4.823144e-01	5.497524e-01	6.291458e-01	6.233429e-01	
SCALARS Mach float 1
LOOKUP_TABLE default
4.935029e-01	5.210432e-01	5.397940e-01	5.516730e-01	5.595702e-01	5.673146e-01	5.779707e-01	5.945569e-01	6.188331e-01	6.507413e-01	6.883446e-01	7.275298e-01	7.621863e-01	7.868330e-01	7.995610e-01	8.026760e-01	8.008304e-01	7.983808e-01	7.980125e-01	8.005980e-01	8.058482e-01	8.129274e-01	8.209507e-01	8.292279e-01	8.373404e-01	8.451346e-01	8.526199e-01	8.598862e-01	8.670062e-01	8.740393e-01	8.810343e-01	8.880269e-01	8.950694e-01	9.021422e-01	9.091726e-01	9.160910e-01	9.228864e-01	9.295296e-01	9.360123e-01	9.423266e-01	9.484453e-01	9.543882e-01	9.601421e-01	9.657216e-01	9.710626e-01	9.761360e-01	9.809205e-01	9.855577e-01	9.902074e-01	9.949308e-01	9.993716e-01	1.003051e+00	1.005768e+00	1.007987e+00	1.010690e+00	1.015019e+00	1.021680e+00	1.030473e+00	1.040015e+00	1.048479e+00	1.054595e+00	1.058081e+00	1.059406e+00	1.059164e+00	1.057860e+00	1.055710e+00	1.052846e+00	1.049328e+00	1.045334e+00	1.040976e+00	1.036266e+00	1.030919e+00	1.024619e+00	1.017232e+00	1.008936e+00	9.998498e-01	9.900001e-01	9.791345e-01	9.670408e-01	9.536634e-01	9.389596e-01	9.227688e-01	9.049193e-01	8.851873e-01	8.632630e-01	8.386714e-01	8.109695e-01	7.796559e-01	7.438878e-01	7.027912e-01	6.553253e-01	6.000838e-01	5.354737e-01	4.599337e-01	3.712768e-01	2.683169e-01	1.524485e-01	2.345182e-02	1.109842e-01	2.146320e-01	3.133897e-01	4.609602e-01	6.255825e-01	7.598198e-01	8.663981e-01	9.486557e-01	1.008419e+00	1.049879e+00	1.078388e+00	1.097928e+00	1.111255e+00	1.120013e+00	1.125468e+00	1.128803e+00	1.130632e+00	1.131105e+00	1.130298e+00	1.128596e+00	1.126613e+00	1.124816e+00	1.123223e+00	1.121362e+00	1.118754e+00	1.115518e+00	1.112357e+00	1.109647e+00	1.107290e+00	1.105017e+00	1.102698e+00	1.100196e+00	1.097455e+00	1.094472e+00	1.091376e+00	1.088293e+00	1.085308e+00	1.082438e+00	1.079712e+00	1.077178e+00	1.074837e+00	1.072509e+00	1.069881e+00	1.066617e+00	1.062609e+00	1.057909e+00	1.052627e+00	1.046877e+00	1.040801e+00	1.034561e+00	1.028217e+00	1.021845e+00	1.015451e+00	1.008901e+00	1.001846e+00	9.939667e-01	9.852743e-01	9.761206e-01	9.668257e-01	9.572893e-01	9.472978e-01	9.367580e-01	9.257695e-01	9.144379e-01	9.028377e-01	8.909787e-01	8.788974e-01	8.666133e-01	8.541803e-01	8.416586e-01	8.290524e-01	8.164620e-01	8.039611e-01	7.916250e-01	7.796005e-01	7.679899e-01	7.568633e-01	7.462493e-01	7.360546e-01	7.260323e-01	7.157336e-01	7.046144e-01	6.921620e-01	6.782806e-01	6.635506e-01	6.493999e-01	6.378668e-01	6.310794e-01	6.306163e-01	6.367825e-01	6.481146e-01	6.612122e-01	6.713504e-01	6.742019e-01	6.672905e-01	6.513677e-01	6.285621e-01	6.015572e-01	5.713198e-01	5.371811e-01	4.977937e-01	4.554088e-01	