# vtk DataFile Version 3.0
vtk output
ASCII
DATASET UNSTRUCTURED_GRID
POINTS 5233 float
9.997500e-01	-3.633564e-05	0.0	9.990000e-01	-1.456749e-04	0.0	9.977600e-01	-3.297223e-04	0.0	9.960200e-01	-6.018231e-04	0.0	9.937800e-01	-9.897246e-04	0.0	9.910500e-01	-1.538506e-03	0.0	9.878400e-01	-2.305640e-03	0.0	9.841300e-01	-3.351706e-03	0.0	9.799500e-01	-4.692333e-03	0.0	9.752800e-01	-6.301027e-03	0.0	9.701500e-01	-8.070318e-03	0.0	9.645400e-01	-9.864149e-03	0.0	9.584700e-01	-1.152931e-02	0.0	9.519400e-01	-1.296319e-02	0.0	9.449600e-01	-1.413621e-02	0.0	9.375400e-01	-1.509726e-02	0.0	9.296900e-01	-1.594801e-02	0.0	9.214000e-01	-1.680637e-02	0.0	9.127000e-01	-1.776567e-02	0.0	9.035800e-01	-1.888252e-02	0.0	8.940600e-01	-2.016482e-02	0.0	8.841500e-01	-2.158424e-02	0.0	8.738500e-01	-2.309083e-02	0.0	8.631800e-01	-2.462307e-02	0.0	8.521600e-01	-2.612270e-02	0.0	8.407700e-01	-2.754722e-02	0.0	8.290500e-01	-2.886039e-02	0.0	8.170100e-01	-3.004475e-02	0.0	8.046400e-01	-3.109725e-02	0.0	7.919700e-01	-3.202115e-02	0.0	7.790100e-01	-3.282853e-02	0.0	7.657800e-01	-3.353456e-02	0.0	7.522800e-01	-3.415640e-02	0.0	7.385200e-01	-3.470949e-02	0.0	7.245300e-01	-3.520620e-02	0.0	7.103200e-01	-3.565683e-02	0.0	6.958900e-01	-3.606887e-02	0.0	6.812700e-01	-3.644638e-02	0.0	6.664700e-01	-3.679212e-02	0.0	6.515000e-01	-3.710769e-02	0.0	6.363800e-01	-3.739422e-02	0.0	6.211300e-01	-3.765319e-02	0.0	6.057600e-01	-3.788710e-02	0.0	5.902800e-01	-3.809949e-02	0.0	5.747100e-01	-3.829488e-02	0.0	5.590600e-01	-3.847887e-02	0.0	5.433600e-01	-3.865752e-02	0.0	5.276100e-01	-3.883750e-02	0.0	5.118400e-01	-3.902496e-02	0.0	4.960500e-01	-3.922579e-02	0.0	4.802700e-01	-3.944451e-02	0.0	4.645100e-01	-3.968457e-02	0.0	4.487800e-01	-3.994790e-02	0.0	4.331100e-01	-4.023438e-02	0.0	4.175000e-01	-4.054275e-02	0.0	4.019700e-01	-4.086974e-02	0.0	3.865400e-01	-4.121055e-02	0.0	3.712300e-01	-4.155905e-02	0.0	3.560400e-01	-4.190851e-02	0.0	3.409900e-01	-4.225093e-02	0.0	3.261100e-01	-4.257753e-02	0.0	3.114000e-01	-4.287989e-02	0.0	2.968700e-01	-4.314928e-02	0.0	2.825500e-01	-4.337671e-02	0.0	2.684500e-01	-4.355393e-02	0.0	2.545700e-01	-4.367311e-02	0.0	2.409400e-01	-4.372663e-02	0.0	2.275700e-01	-4.370772e-02	0.0	2.144700e-01	-4.361016e-02	0.0	2.016600e-01	-4.342846e-02	0.0	1.891400e-01	-4.315751e-02	0.0	1.769300e-01	-4.279312e-02	0.0	1.650400e-01	-4.233157e-02	0.0	1.534900e-01	-4.177028e-02	0.0	1.422900e-01	-4.110702e-02	0.0	1.314400e-01	-4.033947e-02	0.0	1.209500e-01	-3.946640e-02	0.0	1.108500e-01	-3.848932e-02	0.0	1.011300e-01	-3.740694e-02	0.0	9.181000e-02	-3.622171e-02	0.0	8.290000e-02	-3.493610e-02	0.0	7.440000e-02	-3.355196e-02	0.0	6.633000e-02	-3.207528e-02	0.0	5.869000e-02	-3.050978e-02	0.0	5.149000e-02	-2.886192e-02	0.0	4.474000e-02	-2.713940e-02	0.0	3.844000e-02	-2.534828e-02	0.0	3.260000e-02	-2.349797e-02	0.0	2.723000e-02	-2.159908e-02	0.0	2.232000e-02	-1.965512e-02	0.0	1.790000e-02	-1.768560e-02	0.0	1.395000e-02	-1.568874e-02	0.0	1.049000e-02	-1.368000e-02	0.0	7.520000e-03	-1.166418e-02	0.0	5.040000e-03	-9.642271e-03	0.0	3.050000e-03	-7.608639e-03	0.0	1.560000e-03	-5.561203e-03	0.0	5.600000e-04	-3.452592e-03	0.0	6.000000e-05	-1.210802e-03	0.0	0.000000e+00	0.000000e+00	0.0	6.000000e-05	1.166806e-03	0.0	5.600000e-04	3.220876e-03	0.0	1.560000e-03	5.051876e-03	0.0	3.050000e-03	6.749551e-03	0.0	5.040000e-03	8.369795e-03	0.0	7.520000e-03	9.927072e-03	0.0	1.049000e-02	1.143704e-02	0.0	1.395000e-02	1.290897e-02	0.0	1.790000e-02	1.434844e-02	0.0	2.232000e-02	1.575282e-02	0.0	2.723000e-02	1.713126e-02	0.0	3.260000e-02	1.847717e-02	0.0	3.844000e-02	1.979486e-02	0.0	4.474000e-02	2.108302e-02	0.0	5.149000e-02	2.234064e-02	0.0	5.869000e-02	2.356857e-02	0.0	6.633000e-02	2.476587e-02	0.0	7.440000e-02	2.593188e-02	0.0	8.290000e-02	2.706749e-02	0.0	9.181000e-02	2.817103e-02	0.0	1.011300e-01	2.924366e-02	0.0	1.108500e-01	3.028532e-02	0.0	1.209500e-01	3.129520e-02	0.0	1.314400e-01	3.227553e-02	0.0	1.422900e-01	3.322480e-02	0.0	1.534900e-01	3.414357e-02	0.0	1.650400e-01	3.503312e-02	0.0	1.769300e-01	3.589385e-02	0.0	1.891400e-01	3.672540e-02	0.0	2.016600e-01	3.752806e-02	0.0	2.144700e-01	3.830140e-02	0.0	2.275700e-01	3.904594e-02	0.0	2.409400e-01	3.976080e-02	0.0	2.545700e-01	4.044535e-02	0.0	2.684500e-01	4.109857e-02	0.0	2.825500e-01	4.171819e-02	0.0	2.968700e-01	4.230288e-02	0.0	3.114000e-01	4.285032e-02	0.0	3.261100e-01	4.335706e-02	0.0	3.409900e-01	4.381998e-02	0.0	3.560400e-01	4.423574e-02	0.0	3.712300e-01	4.459976e-02	0.0	3.865400e-01	4.490755e-02	0.0	4.019700e-01	4.515474e-02	0.0	4.175000e-01	4.533632e-02	0.0	4.331100e-01	4.544732e-02	0.0	4.487800e-01	4.548282e-02	0.0	4.645100e-01	4.543797e-02	0.0	4.802700e-01	4.530809e-02	0.0	4.960500e-01	4.508864e-02	0.0	5.118400e-01	4.477524e-02	0.0	5.276100e-01	4.436426e-02	0.0	5.433600e-01	4.385176e-02	0.0	5.590600e-01	4.323515e-02	0.0	5.747100e-01	4.251138e-02	0.0	5.902800e-01	4.167952e-02	0.0	6.057600e-01	4.073886e-02	0.0	6.211300e-01	3.969065e-02	0.0	6.363800e-01	3.853726e-02	0.0	6.515000e-01	3.728299e-02	0.0	6.664700e-01	3.593529e-02	0.0	6.812700e-01	3.450426e-02	0.0	6.958900e-01	3.300154e-02	0.0	7.103200e-01	3.144080e-02	0.0	7.245300e-01	2.983947e-02	0.0	7.385200e-01	2.821231e-02	0.0	7.522800e-01	2.657465e-02	0.0	7.657800e-01	2.494261e-02	0.0	7.790100e-01	2.332721e-02	0.0	7.919700e-01	2.173470e-02	0.0	8.046400e-01	2.016988e-02	0.0	8.170100e-01	1.863257e-02	0.0	8.290500e-01	1.712205e-02	0.0	8.407700e-01	1.563036e-02	0.0	8.521600e-01	1.415071e-02	0.0	8.631800e-01	1.267967e-02	0.0	8.738500e-01	1.120583e-02	0.0	8.841500e-01	9.723741e-03	0.0	8.940600e-01	8.231004e-03	0.0	9.035800e-01	6.729209e-03	0.0	9.127000e-01	5.234859e-03	0.0	9.214000e-01	3.786975e-03	0.0	9.296900e-01	2.444805e-03	0.0	9.375400e-01	1.295388e-03	0.0	9.449600e-01	4.250426e-04	0.0	9.519400e-01	-9.760582e-05	0.0	9.584700e-01	-2.545595e-04	0.0	9.645400e-01	-9.660604e-05	0.0	9.701500e-01	2.632042e-04	0.0	9.752800e-01	6.788084e-04	0.0	9.799500e-01	1.019082e-03	0.0	9.841300e-01	1.198089e-03	0.0	9.878400e-01	1.196218e-03	0.0	9.910500e-01	1.046867e-03	0.0	9.937800e-01	8.109205e-04	0.0	9.960200e-01	5.521607e-04	0.0	9.977600e-01	3.205037e-04	0.0	9.990000e-01	1.448332e-04	0.0	9.997500e-01	3.632230e-05	0.0	1.000000e+00	0.000000e+00	0.0	1.984229e+01	2.506660e+00	0.0	1.937166e+01	4.973800e+00	0.0	1.859553e+01	7.362490e+00	0.0	1.752613e+01	9.635070e+00	0.0	1.618034e+01	1.175571e+01	0.0	1.457937e+01	1.369094e+01	0.0	1.274848e+01	1.541027e+01	0.0	1.071654e+01	1.688656e+01	0.0	8.515590e+00	1.809654e+01	0.0	6.180340e+00	1.902113e+01	0.0	3.747630e+00	1.964575e+01	0.0	1.255810e+00	1.996053e+01	0.0	-1.255810e+00	1.996053e+01	0.0	-3.747630e+00	1.964574e+01	0.0	-6.180340e+00	1.902113e+01	0.0	-8.515590e+00	1.809654e+01	0.0	-1.071654e+01	1.688656e+01	0.0	-1.274848e+01	1.541026e+01	0.0	-1.457937e+01	1.369094e+01	0.0	-1.618034e+01	1.175570e+01	0.0	-1.752613e+01	9.635070e+00	0.0	-1.859553e+01	7.362490e+00	0.0	-1.937166e+01	4.973800e+00	0.0	-1.984229e+01	2.506660e+00	0.0	-2.000000e+01	0.000000e+00	0.0	-1.984229e+01	-2.506670e+00	0.0	-1.937166e+01	-4.973800e+00	0.0	-1.859553e+01	-7.362490e+00	0.0	-1.752613e+01	-9.635080e+00	0.0	-1.618034e+01	-1.175571e+01	0.0	-1.457937e+01	-1.369094e+01	0.0	-1.274848e+01	-1.541027e+01	0.0	-1.071653e+01	-1.688656e+01	0.0	-8.515580e+00	-1.809654e+01	0.0	-6.180340e+00	-1.902113e+01	0.0	-3.747620e+00	-1.964575e+01	0.0	-1.255810e+00	-1.996053e+01	0.0	1.255810e+00	-1.996053e+01	0.0	3.747630e+00	-1.964574e+01	0.0	6.180340e+00	-1.902113e+01	0.0	8.515590e+00	-1.809654e+01	0.0	1.071654e+01	-1.688656e+01	0.0	1.274848e+01	-1.541026e+01	0.0	1.457937e+01	-1.369094e+01	0.0	1.618034e+01	-1.175570e+01	0.0	1.752614e+01	-9.635070e+00	0.0	1.859553e+01	-7.362490e+00	0.0	1.937166e+01	-4.973790e+00	0.0	1.984229e+01	-2.506660e+00	0.0	2.000000e+01	0.000000e+00	0.0	6.108531e-02	-3.817618e-02	0.0	6.596183e-01	-5.070489e-02	0.0	4.254803e-01	5.957544e-02	0.0	6.898002e-01	4.695001e-02	0.0	3.791911e-01	-5.565996e-02	0.0	9.994689e-01	-7.249191e-04	0.0	9.985588e-01	-1.332296e-03	0.0	7.734198e-01	-4.511109e-02	0.0	6.892996e-01	-4.966524e-02	0.0	-8.308532e-04	4.947676e-03	0.0	7.463116e-01	-4.692529e-02	0.0	5.833269e-01	5.609770e-02	0.0	9.928465e-01	-3.841818e-03	0.0	9.899842e-01	-4.959112e-03	0.0	5.989125e-01	5.512472e-02	0.0	7.182393e-01	-4.841689e-02	0.0	-1.260489e-03	5.825144e-04	0.0	9.866437e-01	-6.295298e-03	0.0	9.828295e-01	-7.858608e-03	0.0	-9.298789e-04	-5.362245e-03	0.0	6.445396e-01	-5.115596e-02	0.0	8.242649e-01	-4.019137e-02	0.0	7.994368e-01	-4.289966e-02	0.0	3.484128e-01	5.779887e-02	0.0	8.477570e-01	-3.701689e-02	0.0	2.473354e-01	5.266790e-02	0.0	8.698469e-01	-3.351113e-02	0.0	1.069236e-02	1.539439e-02	0.0	8.904313e-01	-2.996524e-02	0.0	7.735929e-02	-4.191642e-02	0.0	9.094526e-01	-2.669102e-02	0.0	-1.479993e-03	-2.678678e-03	0.0	9.425475e-01	-2.091439e-02	0.0	9.268505e-01	-2.377765e-02	0.0	1.834828e-02	-2.267690e-02	0.0	4.256813e-01	-5.495249e-02	0.0	8.589864e-01	-3.528766e-02	0.0	9.564606e-01	-1.758945e-02	0.0	9.785302e-01	-9.661357e-03	0.0	9.684777e-01	-1.365629e-02	0.0	1.586196e-01	-5.259196e-02	0.0	9.001430e-01	-2.828040e-02	0.0	7.599965e-01	-4.606326e-02	0.0	9.971456e-01	-2.100928e-03	0.0	5.985338e-01	-5.226612e-02	0.0	4.413395e-01	-5.471223e-02	0.0	5.359434e-01	-5.332875e-02	0.0	4.728210e-01	-5.424261e-02	0.0	5.043903e-01	-5.378663e-02	0.0	4.885940e-01	-5.401242e-02	0.0	1.252955e-01	-4.942441e-02	0.0	2.822614e-02	-2.741204e-02	0.0	3.945952e-01	-5.543120e-02	0.0	4.657387e-02	-3.409206e-02	0.0	4.100932e-01	-5.519449e-02	0.0	3.189287e-01	-5.637761e-02	0.0	3.487586e-01	-5.607660e-02	0.0	3.387904e-02	-2.968952e-02	0.0	2.897800e-01	-5.651225e-02	0.0	9.349171e-01	-2.237166e-02	0.0	1.471577e-01	-5.164507e-02	0.0	1.950012e-01	-5.476700e-02	0.0	8.613309e-02	-4.363729e-02	0.0	1.049274e-01	-4.676127e-02	0.0	5.673665e-01	-5.284465e-02	0.0	1.704243e-01	-5.342852e-02	0.0	6.139892e-01	-5.193087e-02	0.0	8.803351e-01	-3.172297e-02	0.0	2.305963e-02	-2.507008e-02	0.0	9.952398e-01	-2.914244e-03	0.0	7.153386e-03	-1.537783e-02	0.0	1.868997e-02	1.918960e-02	0.0	9.183571e-01	-2.519878e-02	0.0	9.49
[...]
POINT_DATA 5233

SCALARS Conservative_1 float 1
LOOKUP_TABLE default
1.194898e+00	1.179106e+00	1.172095e+00	1.169443e+00	1.168100e+00	1.165218e+00	1.156908e+00	1.140341e+00	1.113002e+00	1.074386e+00	1.024850e+00	9.632798e-01	9.076790e-01	8.856669e-01	8.963857e-01	9.239137e-01	9.537521e-01	9.756201e-01	9.863202e-01	9.866628e-01	9.783477e-01	9.635300e-01	9.445928e-01	9.233643e-01	8.997478e-01	8.738265e-01	8.506124e-01	8.366353e-01	8.335820e-01	8.387432e-01	8.482926e-01	8.592163e-01	8.698272e-01	8.792176e-01	8.872433e-01	8.939878e-01	8.996858e-01	9.046191e-01	9.090036e-01	9.130986e-01	9.170397e-01	9.209637e-01	9.248877e-01	9.288193e-01	9.326759e-01	9.363821e-01	9.398143e-01	9.428778e-01	9.454561e-01	9.474665e-01	9.488154e-01	9.494528e-01	9.493278e-01	9.484235e-01	9.467247e-01	9.442407e-01	9.409830e-01	9.369832e-01	9.322836e-01	9.269312e-01	9.209998e-01	9.145041e-01	9.074409e-01	8.997763e-01	8.917285e-01	8.836608e-01	8.757410e-01	8.672388e-01	8.568094e-01	8.437640e-01	8.301922e-01	8.197453e-01	8.145695e-01	8.142383e-01	8.173108e-01	8.224869e-01	8.292805e-01	8.375730e-01	8.472088e-01	8.580929e-01	8.702421e-01	8.836223e-01	8.982967e-01	9.142639e-01	9.315859e-01	9.503739e-01	9.706619e-01	9.925822e-01	1.016361e+00	1.042083e+00	1.070124e+00	1.100993e+00	1.135058e+00	1.173194e+00	1.215810e+00	1.262166e+00	1.307574e+00	1.348017e+00	1.347962e+00	1.321488e+00	1.296515e+00	1.222627e+00	1.088379e+00	9.921238e-01	9.277444e-01	8.878311e-01	8.637899e-01	8.485903e-01	8.381682e-01	8.307216e-01	8.252764e-01	8.211623e-01	8.181285e-01	8.158345e-01	8.142015e-01	8.132881e-01	8.129675e-01	8.131085e-01	8.137193e-01	8.149468e-01	8.170963e-01	8.203244e-01	8.244320e-01	8.289124e-01	8.332698e-01	8.372244e-01	8.406456e-01	8.434540e-01	8.456634e-01	8.473976e-01	8.487746e-01	8.498317e-01	8.505253e-01	8.507938e-01	8.506105e-01	8.499643e-01	8.488708e-01	8.473383e-01	8.453693e-01	8.429692e-01	8.401251e-01	8.368342e-01	8.331625e-01	8.292390e-01	8.251625e-01	8.209603e-01	8.165991e-01	8.123083e-01	8.088406e-01	8.078993e-01	8.116842e-01	8.215807e-01	8.359572e-01	8.502300e-01	8.607908e-01	8.681879e-01	8.748852e-01	8.828409e-01	8.926198e-01	9.035984e-01	9.149834e-01	9.264497e-01	9.379395e-01	9.493498e-01	9.604220e-01	9.709599e-01	9.807716e-01	9.897694e-01	9.978591e-01	1.005118e+00	1.011617e+00	1.017530e+00	1.023096e+00	1.028578e+00	1.034278e+00	1.040523e+00	1.047688e+00	1.056255e+00	1.066727e+00	1.079607e+00	1.094994e+00	1.112360e+00	1.130246e+00	1.146650e+00	1.159225e+00	1.165664e+00	1.163950e+00	1.152778e+00	1.132006e+00	1.103985e+00	1.074921e+00	1.052593e+00	1.044446e+00	1.053586e+00	1.075670e+00	1.102775e+00	1.129757e+00	1.156156e+00	1.184445e+00	1.174571e+00	9.999828e-01	9.999865e-01	9.999803e-01	9.999682e-01	9.999566e-01	9.999430e-01	9.999209e-01	9.998877e-01	9.998486e-01	9.998137e-01	9.997891e-01	9.997935e-01	9.998276e-01	9.998985e-01	9.999599e-01	1.000009e+00	1.000035e+00	1.000050e+00	1.000058e+00	1.000061e+00	1.000061e+00	1.000061e+00	1.000060e+00	1.000061e+00	1.000061e+00	1.000063e+00	1.000067e+00	1.000071e+00	1.000077e+00	1.000086e+00	1.000096e+00	1.000109e+00	1.000120e+00	1.000134e+00	1.000139e+00	1.000135e+00	1.000119e+00	1.000097e+00	1.000081e+00	1.000073e+00	1.000072e+00	1.000070e+00	1.000065e+00	1.000059e+00	1.000049e+00	1.000036e+00	1.000029e+00	1.000023e+00	1.000001e+00	9.999789e-01	9.210173e-01	9.127513e-01	8.270179e-01	9.357103e-01	9.390400e-01	1.178988e+00	1.171939e+00	8.597771e-01	9.042215e-01	1.217901e+00	8.786618e-01	8.706736e-01	1.156798e+00	1.149661e+00	8.770619e-01	8.934046e-01	1.316448e+00	1.137582e+00	1.118417e+00	1.326945e+00	9.166342e-01	8.508561e-01	8.434175e-01	8.446836e-01	8.944218e-01	8.535991e-01	9.376326e-01	9.031292e-01	9.692883e-01	8.903016e-01	9.822184e-01	1.344729e+00	9.237291e-01	9.652273e-01	1.076553e+00	9.471067e-01	9.178722e-01	9.195194e-01	1.091095e+00	1.010089e+00	8.215682e-01	9.790030e-01	8.695714e-01	1.165213e+00	9.279207e-01	9.483364e-01	9.414875e-01	9.486271e-01	9.461946e-01	9.477331e-01	8.357852e-01	1.023001e+00	9.424461e-01	9.571029e-01	9.451401e-01	9.191251e-01	9.302380e-01	9.993002e-01	9.057971e-01	9.455424e-01	8.240323e-01	8.420027e-01	8.768612e-01	8.536590e-01	9.351495e-01	8.231489e-01	9.241842e-01	9.548780e-01	1.048666e+00	1.161260e+00	1.176706e+00	8.647906e-01	9.777619e-01	9.107351e-01	1.055737e+00	1.129480e+00	8.697235e-01	8.833927e-01	9.384796e-01	8.866000e-01	8.503340e-01	8.440012e-01	8.672340e-01	9.316046e-01	9.086764e-01	9.383607e-01	1.215998e+00	1.106962e+00	9.349541e-01	8.301605e-01	1.205250e+00	8.760494e-01	8.646519e-01	9.127560e-01	8.907106e-01	9.488403e-01	8.992179e-01	1.286244e+00	1.296584e+00	8.329199e-01	1.331536e+00	8.444375e-01	8.259045e-01	8.327355e-01	8.280688e-01	8.309357e-01	1.121158e+00	8.201615e-01	8.149239e-01	1.112691e+00	1.143619e+00	1.063343e+00	8.124855e-01	8.229707e-01	8.384049e-01	1.116632e+00	1.087394e+00	8.220843e-01	1.091871e+00	1.149452e+00	1.141739e+00	8.229488e-01	8.239190e-01	8.522645e-01	8.535844e-01	8.461183e-01	8.492824e-01	8.188128e-01	8.347553e-01	8.398916e-01	8.319510e-01	8.924259e-01	8.500529e-01	8.524440e-01	9.136913e-01	8.618059e-01	9.772862e-01	9.573314e-01	1.008839e+00	9.945092e-01	1.032699e+00	1.021054e+00	1.074478e+00	1.045931e+00	1.148521e+00	1.101762e+00	1.130967e+00	1.038968e+00	1.053938e+00	1.015127e+00	1.026823e+00	9.862753e-01	1.002022e+00	9.466261e-01	9.676015e-01	9.027056e-01	9.247269e-01	8.485551e-01	8.838066e-01	8.513916e-01	8.532034e-01	8.432921e-01	8.483445e-01	8.287976e-01	8.360413e-01	8.806958e-01	8.378470e-01	8.555866e-01	9.834706e-01	9.571119e-01	8.423802e-01	9.249415e-01	9.440914e-01	1.049074e+00	8.531193e-01	9.356474e-01	8.220894e-01	8.226928e-01	8.531366e-01	8.249396e-01	1.073688e+00	1.063628e+00	8.509750e-01	1.065561e+00	1.078694e+00	8.471908e-01	8.417489e-01	1.130541e+00	1.200174e+00	1.144240e+00	1.164823e+00	9.204191e-01	9.773838e-01	1.098793e+00	8.135119e-01	1.257358e+00	1.140327e+00	9.050042e-01	8.290612e-01	8.983076e-01	8.328799e-01	1.196848e+00	1.259675e+00	9.046667e-01	9.039578e-01	9.763221e-01	1.170005e+00	8.718947e-01	9.084535e-01	8.616969e-01	1.132700e+00	9.232400e-01	9.135845e-01	8.711769e-01	8.843577e-01	1.301067e+00	8.666703e-01	1.106732e+00	9.626535e-01	8.326793e-01	8.988235e-01	9.163896e-01	9.479566e-01	8.977014e-01	9.406520e-01	9.713107e-01	8.549176e-01	9.673996e-01	8.894337e-01	9.236616e-01	1.030913e+00	8.334599e-01	9.341428e-01	8.491141e-01	1.051658e+00	1.077787e+00	8.492002e-01	8.227180e-01	1.135368e+00	1.060187e+00	1.083693e+00	1.133511e+00	1.088922e+00	8.565833e-01	8.513956e-01	8.561283e-01	8.315898e-01	9.125681e-01	8.550020e-01	9.338571e-01	8.430822e-01	8.421704e-01	1.115747e+00	1.096542e+00	1.069872e+00	8.313247e-01	1.209363e+00	1.131314e+00	1.112988e+00	1.011833e+00	1.129677e+00	1.204285e+00	1.331145e+00	1.319400e+00	1.078208e+00	1.212043e+00	9.279863e-01	1.161859e+00	1.150264e+00	8.331796e-01	9.401975e-01	1.117796e+00	9.478376e-01	8.793588e-01	1.143158e+00	1.324611e+00	9.471362e-01	8.367819e-01	8.919300e-01	8.557173e-01	9.321056e-01	9.612400e-01	9.122328e-01	9.766220e-01	9.700155e-01	9.349582e-01	1.027271e+00	9.388366e-01	1.000619e+00	1.097024e+00	8.437100e-01	8.784759e-01	8.700924e-01	1.155997e+00	9.481122e-01	9.476310e-01	9.465308e-01	1.051907e+00	9.434849e-01	9.456525e-01	9.284218e-01	9.831734e-01	9.584753e-01	9.446365e-01	8.371873e-01	8.721861e-01	9.372778e-01	9.272475e-01	1.038559e+00	1.070578e+00	8.929729e-01	8.862263e-01	8.613284e-01	8.518006e-01	9.341052e-01	9.307241e-01	9.634681e-01	9.450843e-01	1.137227e+00	9.330692e-01	9.371705e-01	8.347988e-01	8.432522e-01	8.761745e-01	8.836814e-01	9.113780e-01	9.175847e-01	8.905872e-01	1.301870e+00	1.239789e+00	8.475542e-01	1.079634e+00	8.326424e-01	8.186382e-01	8.190659e-01	8.219084e-01	1.102146e+00	1.126769e+00	1.104575e+00	8.256557e-01	8.294674e-01	8.402956e-01	1.092493e+00	1.132552e+00	8.350169e-01	8.380459e-01	8.566844e-01	8.563931e-01	8.463131e-01	8.396739e-01	8.363212e-01	1.005963e+00	9.741524e-01	9.647072e-01	9.989416e-01	1.024841e+00	1.080698e+00	1.044075e+00	1.037238e+00	1.018825e+00	1.012592e+00	9.912829e-01	9.830190e-01	9.547966e-01	9.445498e-01	9.131489e-01	9.028618e-01	8.610739e-01	8.468674e-01	8.935481e-01	8.858708e-01	8.553592e-01	8.543360e-01	8.530348e-01	8.513471e-01	9.087126e-01	8.545300e-01	8.634576e-01	8.523007e-01	8.571613e-01	9.448971e-01	9.427506e-01	1.067481e+00	8.747782e-01	8.309784e-01	8.314854e-01	8.532107e-01	8.546490e-01	8.436214e-01	8.466175e-01	1.125777e+00	1.116054e+00	9.236819e-01	9.200882e-01	1.004364e+00	1.273910e+00	8.975830e-01	1.298299e+00	9.420039e-01	9.104701e-01	8.665816e-01	9.415806e-01	9.726807e-01	1.089513e+00	1.086628e+00	1.120143e+00	1.078641e+00	1.098017e+00	1.149046e+00	1.174306e+00	1.151557e+00	1.194942e+00	1.079793e+00	1.281331e+00	8.926228e-01	9.668367e-01	1.129526e+00	8.731880e-01	1.170163e+00	1.193401e+00	9.040223e-01	1.252845e+00	8.989950e-01	1.105938e+00	9.435037e-01	1.163177e+00	9.269796e-01	9.289063e-01	9.085386e-01	1.138718e+00	1.134028e+00	1.096216e+00	8.345251e-01	1.123052e+00	9.237111e-01	1.110143e+00	8.271971e-01	8.592019e-01	8.536965e-01	8.523647e-01	8.455169e-01	1.162910e+00	1.274739e+00	1.180507e+00	9.310291e-01	1.237006e+00	9.988581e-01	9.058151e-01	1.311947e+00	8.419221e-01	9.475541e-01	1.055057e+00	9.899043e-01	1.029115e+00	1.003524e+00	9.336773e-01	1.089194e+00	1.123355e+00	1.065518e+00	1.056916e+00	8.555856e-01	8.583450e-01	8.596760e-01	8.400566e-01	9.163947e-01	9.126106e-01	8.663201e-01	9.572860e-01	8.496035e-01	1.105153e+00	1.122262e+00	1.030622e+00	1.129811e+00	1.223685e+00	1.308332e+00	1.031510e+00	1.180622e+00	1.173851e+00	1.029668e+00	1.117748e+00	8.821037e-01	9.470848e-01	8.393365e-01	8.917730e-01	9.114030e-01	9.558992e-01	9.658634e-01	9.356062e-01	9.201587e-01	9.723623e-01	9.747367e-01	9.557894e-01	9.713226e-01	1.102164e+00	8.796050e-01	8.725696e-01	1.144909e+00	9.474299e-01	9.467027e-01	9.443228e-01	9.460032e-01	1.009745e+00	9.590149e-01	9.533755e-01	8.523743e-01	8.460119e-01	9.390830e-01	9.363018e-01	1.057652e+00	1.081900e+00	8.932459e-01	8.867680e-01	8.806115e-01	8.696358e-01	8.601523e-01	9.332726e-01	9.300944e-01	9.895612e-01	9.703865e-01	9.523142e-01	9.315057e-01	9.355763e-01	9.390742e-01	8.419871e-01	8.466823e-01	8.556125e-01	8.763208e-01	8.843376e-01	9.164738e-01	9.219437e-01	8.911436e-01	8.613509e-01	8.248771e-01	8.260551e-01	1.113731e+00	8.290556e-01	8.325299e-01	8.359721e-01	8.426161e-01	1.094824e+00	8.495856e-01	8.547957e-01	8.596983e-01	8.598587e-01	8.466850e-01	8.440459e-01	8.417417e-01	9.719869e-01	1.084800e+00	1.074814e+00	1.049093e+00	1.041981e+00	1.035456e+00	1.022885e+00	1.016695e+00	1.010279e+00	9.964312e-01	9.888127e-01	9.806390e-01	9.628692e-01	9.533526e-01	9.436011e-01	9.137520e-01	8.606336e-01	8.467111e-01	9.042517e-01	8.958605e-01	8.888670e-01	8.592021e-01	8.584568e-01	8.574933e-01	8.562541e-01	8.546029e-01	8.697169e-01	8.804163e-01	8.632395e-01	8.654768e-01	8.750347e-01	9.454691e-01	9.437198e-01	8.937523e-01	9.101883e-01	8.395482e-01	8.404776e-01	8.425134e-01	8.571475e-01	8.458248e-01	8.488434e-01	8.514833e-01	1.119409e+00	1.112974e+00	1.104535e+00	9.267961e-01	9.234295e-01	9.199656e-01	8.975714e-01	9.041230e-01	1.273310e+00	9.014373e-01	1.116874e+00	1.094662e+00	9.406642e-01	1.255118e+00	1.156665e+00	9.721671e-01	9.690668e-01	1.035013e+00	1.099162e+00	8.339438e-01	1.251110e+00	9.773458e-01	1.180804e+00	1.112646e+00	1.107208e+00	1.166348e+00	9.238542e-01	1.125942e+00	1.179230e+00	1.181681e+00	8.732544e-01	8.534071e-01	1.080412e+00	9.430773e-01	9.144492e-01	9.468451e-01	9.159449e-01	1.092524e+00	8.731627e-01	1.113481e+00	1.111910e+00	1.001600e+00	8.562275e-01	8.629620e-01	1.116808e+00	8.609087e-01	9.415692e-01	1.135035e+00	1.093878e+00	1.141433e+00	1.048800e+00	1.103929e+00	9.087962e-01	1.206971e+00	9.048585e-01	8.994140e-01	1.129169e+00	1.126598e+00	1.155007e+00	1.027060e+00	8.372639e-01	8.599861e-01	1.213024e+00	1.008104e+00	9.341272e-01	1.061835e+00	8.583938e-01	8.612995e-01	8.622842e-01	9.164896e-01	9.131821e-01	1.099258e+00	1.043529e+00	1.084041e+00	1.231763e+00	1.284747e+00	1.057146e+00	1.025620e+00	1.104256e+00	8.853951e-01	9.122234e-01	9.280229e-01	9.529005e-01	9.622959e-01	9.434258e-01	9.284278e-01	9.691281e-01	9.730960e-01	9.739761e-01	9.820318e-01	1.001908e+00	8.818142e-01	8.783200e-01	1.134743e+00	9.470344e-01	9.466617e-01	9.448821e-01	9.461324e-01	9.671624e-01	9.703722e-01	8.624976e-01	8.559894e-01	9.383371e-01	1.069940e+00	1.088668e+00	8.946916e-01	8.880994e-01	8.894638e-01	8.788812e-01	8.701283e-01	9.355425e-01	9.328401e-01	1.015115e+00	9.956822e-01	9.768100e-01	9.593494e-01	9.303258e-01	9.342806e-01	9.377025e-01	9.406617e-01	8.546793e-01	8.599185e-01	8.680229e-01	8.772164e-01	8.854119e-01	9.259920e-01	9.211413e-01	8.924441e-01	8.322839e-01	1.104689e+00	1.109515e+00	8.339203e-01	8.366160e-01	8.396670e-01	8.427066e-01	8.457070e-01	8.675020e-01	8.756472e-01	8.633249e-01	8.634126e-01	8.537699e-01	8.515282e-01	8.499577e-01	8.489020e-01	1.086878e+00	1.078390e+00	1.070032e+00	1.054120e+00	1.046993e+00	1.040385e+00	1.033232e+00	1.021636e+00	1.014589e+00	1.008243e+00	9.943017e-01	9.869516e-01	9.787424e-01	9.706598e-01	9.614971e-01	9.528727e-01	9.429977e-01	8.481282e-01	8.596264e-01	9.153177e-01	9.057315e-01	8.992466e-01	8.915942e-01	8.632008e-01	8.627373e-01	8.619901e-01	8.610342e-01	8.598342e-01	8.582245e-01	8.850980e-01	8.969899e-01	8.759244e-01	8.824587e-01	8.953063e-01	9.457567e-01	9.445481e-01	9.427995e-01	9.120379e-01	9.299308e-01	9.511899e-01	8.486423e-01	8.496495e-01	8.523686e-01	8.561360e-01	8.486266e-01	8.514821e-01	8.542380e-01	8.564745e-01	1.094938e+00	1.107957e+00	1.102281e+00	9.296350e-01	9.267659e-01	9.232960e-01	9.202869e-01	8.985014e-01	9.045031e-01	9.102845e-01	1.124195e+00	1.113691e+00	1.044132e+00	1.170000e+00	1.147148e+00	9.037832e-01	9.109293e-01	1.169526e+00	1.096551e+00	1.213049e+00	1.058639e+00	8.663858e-01	8.607946e-01	1.022401e+00	1.121914e+00	1.225942e+00	1.288007e+00	1.289551e+00	1.274400e+00	1.230291e+00	1.135607e+00	8.634489e-01	1.061939e+00	1.115922e+00	9.781139e-01	8.851649e-01	9.439957e-01	1.105060e+00	1.087727e+00	1.102179e+00	8.657338e-01	8.474081e-01	9.293914e-01	9.960482e-01	8.412721e-01	9.410789e-01	8.611889e-01	1.099714e+00	9.236653e-01	1.156148e+00	1.095368e+00	1.284209e+00	1.176870e+00	1.168898e+00	9.755926e-01	1.039033e+00	1.248388e+00	9.940409e-01	1.191783e+00	1.105084e+00	1.155369e+00	1.170673e+00	1.171493e+00	1.102034e+00	9.250841e-01	9.207056e-01	1.096300e+00	8.859292e-01	1.104603e+00	1.105366e+00	9.118515e-01	1.192196e+00	8.642515e-01	8.658921e-01	8.661357e-01	9.188875e-01	1.053245e+00	1.086946e+00	1.259639e+00	1.080732e+00	9.300504e-01	9.407118e-01	9.517565e-01	9.604778e-01	9.371563e-01	9.521746e-01	9.677772e-01	9.724598e-01	9.752681e-01	9.765078e-01	1.007183e+00	1.025466e+00	8.889959e-01	1.124392e+00	9.466129e-01	9.465336e-01	9.452479e-01	9.460471e-01	9.823818e-01	9.919177e-01	8.728489e-01	8.658419e-01	1.078428e+00	1.093002e+00	8.963786e-01	8.989492e-01	8.877234e-01	8.819216e-01	9.364838e-01	1.020281e+00	1.001618e+00	9.835732e-01	9.676971e-01	9.293922e-01	9.331282e-01	9.365295e-01	9.394830e-01	9.418907e-01	8.660777e-01	8.720872e-01	8.779481e-01	8.862337e-01	8.930486e-01	1.099033e+00	1.101838e+00	1.104068e+00	8.394014e-01	8.423040e-01	8.436705e-01	8.472150e-01	8.490294e-01	8.807822e-01	8.902154e-01	8.672560e-01	8.669852e-01	8.580710e-01	8.580956e-01	8.579212e-01	1.079907e+00	1.073166e+00	1.065397e+00	1.058387e+00	1.051216e+00	1.044696e+00	1.037752e+00	1.028302e+00	1.019721e+00	1.009232e+00	9.812761e-01	9.650926e-01	9.476211e-01	9.125510e-01	8.989138e-01	8.675996e-01	8.667826e-01	8.669235e-01	8.655428e-01	8.654472e-01	8.642058e-01	8.626654e-01	9.012394e-01	9.137894e-01	8.907684e-01	8.986805e-01	9.144145e-01	9.458788e-01	9.442881e-01	9.293514e-01	9.483818e-01	9.694904e-01	8.583864e-01	8.599281e-01	8.630695e-01	8.683640e-01	8.741408e-01	8.523861e-01	8.541550e-01	8.572452e-01	8.599380e-01	1.098681e+00	1.092500e+00	9.310813e-01	9.252230e-01	8.998018e-01	9.050847e-01	9.108408e-01	9.155908e-01	1.163058e+00	1.143262e+00	1.158543e+00	1.245433e+00	1.174390e+00	1.070888e+00	1.099418e+00	1.174403e+00	1.098170e+00	1.137526e+00	1.095766e+00	1.237670e+00	1.060138e+00	1.138873e+00	8.657332e-01	1.171068e+00	1.059943e+00	1.144925e+00	1.118902e+00	1.056866e+00	9.429713e-01	1.096813e+00	9.265888e-01	9.915997e-01	9.835399e-01	9.297729e-01	9.205450e-01	8.775732e-01	1.210590e+00	9.449847e-01	9.473859e-01	9.341373e-01	8.656567e-01	1.095849e+00	1.082398e+00	1.202343e+00	1.033089e+00	1.042179e+00	1.162685e+00	1.095672e+00	1.285253e+00	1.225735e+00	1.106179e+00	9.048217e-01	8.522251e-01	8.478792e-01	1.103583e+00	1.167204e+00	1.118786e+00	1.262375e+00	1.171665e+00	1.042669e+00	1.195325e+00	1.177534e+00	8.827386e-01	1.079617e+00	1.098071e+00	1.095792e+00	8.641279e-01	8.684854e-01	8.703306e-01	9.114521e-01	1.088204e+00	1.117013e+00	1.099876e+00	9.471448e-01	9.634253e-01	9.607418e-01	9.749992e-01	9.805082e-01	1.027142e+00	1.115179e+00	9.461887e-01	1.000734e+00	1.012757e+00	8.806111e-01	1.083901e+00	8.989126e-01	8.955095e-01	9.040519e-01	8.920982e-01	9.395242e-01	1.025150e+00	1.006601e+00	9.895816e-01	9.778460e-01	9.338276e-01	9.395665e-01	9.431045e-01	8.842264e-01	8.967871e-01	1.096731e+00	1.097705e+00	8.503743e-01	8.546927e-01	9.048954e-01	8.713141e-01	8.669758e-01	1.015636e+00	1.070683e+00	1.057566e+00	1.044903e+00	1.034109e+00	1.025064e+00	1.004070e+00	9.907211e-01	9.760878e-01	9.602638e-01	9.432041e-01	9.263978e-01	9.122855e-01	8.994556e-01	8.714206e-01	8.707422e-01	8.702482e-01	8.682075e-01	8.677096e-01	9.176000e-01	9.308624e-01	8.985923e-01	9.106686e-01	9.312935e-01	9.461246e-01	9.450548e-01	9.461106e-01	9.648681e-01	9.858096e-01	1.008083e+00	8.686552e-01	8.707496e-01	8.743259e-01	8.802706e-01	8.886534e-01	8.933092e-01	8.589124e-01	8.631179e-01	1.094896e+00	1.090148e+00	9.349530e-01	9.241971e-01	9.181377e-01	9.086765e-01	9.182650e-01	1.108214e+00	1.161959e+00	1.157717e+00	1.125497e+00	1.004662e+00	1.101542e+00	1.167335e+00	1.131586e+00	1.164383e+00	1.113940e+00	1.144349e+00	1.121899e+00	1.088193e+00	1.182320e+00	1.216973e+00	1.093286e+00	9.076510e-01	8.691292e-01	1.114935e+00	9.827259e-01	1.078587e+00	9.136177e-01	1.064644e+00	1.148203e+00	9.442100e-01	1.007049e+00	9.289122e-01	9.418315e-01	1.065775e+00	1.077019e+00	1.061506e+00	1.046448e+00	1.163905e+00	1.095728e+00	1.097986e+00	1.092559e+00	8.739023e-01	8.982743e-01	9.180652e-01	9.685898e-01	1.140041e+00	1.147744e+00	1.261472e+00	1.053847e+00	1.092949e+00	1.168924e+00	1.087695e+00	1.159309e+00	1.130933e+00	9.442699e-01	1.205399e+00	9.587607e-01	9.432251e-01	1.094336e+00	1.221856e+00	1.041669e+00	1.097489e+00	9.124482e-01	1.238791e+00	1.170522e+00	9.844766e-01	1.192778e+00	1.179284e+00	8.662430e-01	1.096532e+00	1.090831e+00	8.812510e-01	8.717063e-01	9.125096e-01	1.111998e+00	1.135363e+00	9.610020e-01	9.735675e-01	9.887298e-01	9.964747e-01	1.107134e+00	9.456160e-01	1.017835e+00	1.029408e+00	9.417522e-01	9.158297e-01	9.314067e-01	9.050031e-01	9.282866e-01	9.135543e-01	9.008546e-01	1.028545e+00	9.317617e-01	9.375651e-01	8.918771e-01	8.900898e-01	9.236644e-01	1.093620e+00	8.577491e-01	8.562450e-01	8.760590e-01	1.073156e+00	1.062127e+00	1.021208e+00	1.050480e+00	1.039703e+00	1.030254e+00	1.011030e+00	9.990900e-01	9.858139e-01	9.715227e-01	9.560426e-01	9.399058e-01	9.252528e-01	8.754108e-01	8.762599e-01	8.764973e-01	8.761379e-01	8.743336e-01	8.744892e-01	9.329078e-01	9.475859e-01	9.069199e-01	9.472148e-01	9.461629e-01	9.456646e-01	9.622109e-01	9.795358e-01	9.995417e-01	1.019913e+00	1.041595e+00	8.796596e-01	8.833649e-01	8.868560e-01	8.924938e-01	9.013423e-01	8.588337e-01	8.623865e-01	8.660159e-01	1.088168e+00	1.081910e+00	9.382453e-01	9.338071e-01	8.964433e-01	9.070252e-01	9.169420e-01	9.249117e-01	1.142844e+00	1.150068e+00	1.147447e+00	1.110594e+00	1.145907e+00	1.128948e+00	1.106788e+00	1.021436e+00	1.166459e+00	1.114802e+00	1.111587e+00	1.051613e+00	1.157926e+00	1.089103e+00	8.795843e-01	1.133327e+00	1.137473e+00	1.108289e+00	1.162597e+00	1.067945e+00	9.109644e-01	1.007531e+00	9.916406e-01	9.140244e-01	1.128884e+00	1.122277e+00	1.118579e+00	1.166694e+00	1.151985e+00	8.979117e-01	9.