# vtk DataFile Version 3.0
vtk output
ASCII
DATASET UNSTRUCTURED_GRID
POINTS 200 float
9.997500e-01	-3.633564e-05	0.0	9.990000e-01	-1.456749e-04	0.0	9.977600e-01	-3.297223e-04	0.0	9.960200e-01	-6.018231e-04	0.0	9.937800e-01	-9.897246e-04	0.0	9.910500e-01	-1.538506e-03	0.0	9.878400e-01	-2.305640e-03	0.0	9.841300e-01	-3.351706e-03	0.0	9.799500e-01	-4.692333e-03	0.0	9.752800e-01	-6.301027e-03	0.0	9.701500e-01	-8.070318e-03	0.0	9.645400e-01	-9.864149e-03	0.0	9.584700e-01	-1.152931e-02	0.0	9.519400e-01	-1.296319e-02	0.0	9.449600e-01	-1.413621e-02	0.0	9.375400e-01	-1.509726e-02	0.0	9.296900e-01	-1.594801e-02	0.0	9.214000e-01	-1.680637e-02	0.0	9.127000e-01	-1.776567e-02	0.0	9.035800e-01	-1.888252e-02	0.0	8.940600e-01	-2.016482e-02	0.0	8.841500e-01	-2.158424e-02	0.0	8.738500e-01	-2.309083e-02	0.0	8.631800e-01	-2.462307e-02	0.0	8.521600e-01	-2.612270e-02	0.0	8.407700e-01	-2.754722e-02	0.0	8.290500e-01	-2.886039e-02	0.0	8.170100e-01	-3.004475e-02	0.0	8.046400e-01	-3.109725e-02	0.0	7.919700e-01	-3.202115e-02	0.0	7.790100e-01	-3.282853e-02	0.0	7.657800e-01	-3.353456e-02	0.0	7.522800e-01	-3.415640e-02	0.0	7.385200e-01	-3.470949e-02	0.0	7.245300e-01	-3.520620e-02	0.0	7.103200e-01	-3.565683e-02	0.0	6.958900e-01	-3.606887e-02	0.0	6.812700e-01	-3.644638e-02	0.0	6.664700e-01	-3.679212e-02	0.0	6.515000e-01	-3.710769e-02	0.0	6.363800e-01	-3.739422e-02	0.0	6.211300e-01	-3.765319e-02	0.0	6.057600e-01	-3.788710e-02	0.0	5.902800e-01	-3.809949e-02	0.0	5.747100e-01	-3.829488e-02	0.0	5.590600e-01	-3.847887e-02	0.0	5.433600e-01	-3.865752e-02	0.0	5.276100e-01	-3.883750e-02	0.0	5.118400e-01	-3.902496e-02	0.0	4.960500e-01	-3.922579e-02	0.0	4.802700e-01	-3.944451e-02	0.0	4.645100e-01	-3.968457e-02	0.0	4.487800e-01	-3.994790e-02	0.0	4.331100e-01	-4.023438e-02	0.0	4.175000e-01	-4.054275e-02	0.0	4.019700e-01	-4.086974e-02	0.0	3.865400e-01	-4.121055e-02	0.0	3.712300e-01	-4.155905e-02	0.0	3.560400e-01	-4.190851e-02	0.0	3.409900e-01	-4.225093e-02	0.0	3.261100e-01	-4.257753e-02	0.0	3.114000e-01	-4.287989e-02	0.0	2.968700e-01	-4.314928e-02	0.0	2.825500e-01	-4.337671e-02	0.0	2.684500e-01	-4.355393e-02	0.0	2.545700e-01	-4.367311e-02	0.0	2.409400e-01	-4.372663e-02	0.0	2.275700e-01	-4.370772e-02	0.0	2.144700e-01	-4.361016e-02	0.0	2.016600e-01	-4.342846e-02	0.0	1.891400e-01	-4.315751e-02	0.0	1.769300e-01	-4.279312e-02	0.0	1.650400e-01	-4.233157e-02	0.0	1.534900e-01	-4.177028e-02	0.0	1.422900e-01	-4.110702e-02	0.0	1.314400e-01	-4.033947e-02	0.0	1.209500e-01	-3.946640e-02	0.0	1.108500e-01	-3.848932e-02	0.0	1.011300e-01	-3.740694e-02	0.0	9.181000e-02	-3.622171e-02	0.0	8.290000e-02	-3.493610e-02	0.0	7.440000e-02	-3.355196e-02	0.0	6.633000e-02	-3.207528e-02	0.0	5.869000e-02	-3.050978e-02	0.0	5.149000e-02	-2.886192e-02	0.0	4.474000e-02	-2.713940e-02	0.0	3.844000e-02	-2.534828e-02	0.0	3.260000e-02	-2.349797e-02	0.0	2.723000e-02	-2.159908e-02	0.0	2.232000e-02	-1.965512e-02	0.0	1.790000e-02	-1.768560e-02	0.0	1.395000e-02	-1.568874e-02	0.0	1.049000e-02	-1.368000e-02	0.0	7.520000e-03	-1.166418e-02	0.0	5.040000e-03	-9.642271e-03	0.0	3.050000e-03	-7.608639e-03	0.0	1.560000e-03	-5.561203e-03	0.0	5.600000e-04	-3.452592e-03	0.0	6.000000e-05	-1.210802e-03	0.0	0.000000e+00	0.000000e+00	0.0	6.000000e-05	1.166806e-03	0.0	5.600000e-04	3.220876e-03	0.0	1.560000e-03	5.051876e-03	0.0	3.050000e-03	6.749551e-03	0.0	5.040000e-03	8.369795e-03	0.0	7.520000e-03	9.927072e-03	0.0	1.049000e-02	1.143704e-02	0.0	1.395000e-02	1.290897e-02	0.0	1.790000e-02	1.434844e-02	0.0	2.232000e-02	1.575282e-02	0.0	2.723000e-02	1.713126e-02	0.0	3.260000e-02	1.847717e-02	0.0	3.844000e-02	1.979486e-02	0.0	4.474000e-02	2.108302e-02	0.0	5.149000e-02	2.234064e-02	0.0	5.869000e-02	2.356857e-02	0.0	6.633000e-02	2.476587e-02	0.0	7.440000e-02	2.593188e-02	0.0	8.290000e-02	2.706749e-02	0.0	9.181000e-02	2.817103e-02	0.0	1.011300e-01	2.924366e-02	0.0	1.108500e-01	3.028532e-02	0.0	1.209500e-01	3.129520e-02	0.0	1.314400e-01	3.227553e-02	0.0	1.422900e-01	3.322480e-02	0.0	1.534900e-01	3.414357e-02	0.0	1.650400e-01	3.503312e-02	0.0	1.769300e-01	3.589385e-02	0.0	1.891400e-01	3.672540e-02	0.0	2.016600e-01	3.752806e-02	0.0	2.144700e-01	3.830140e-02	0.0	2.275700e-01	3.904594e-02	0.0	2.409400e-01	3.976080e-02	0.0	2.545700e-01	4.044535e-02	0.0	2.684500e-01	4.109857e-02	0.0	2.825500e-01	4.171819e-02	0.0	2.968700e-01	4.230288e-02	0.0	3.114000e-01	4.285032e-02	0.0	3.261100e-01	4.335706e-02	0.0	3.409900e-01	4.381998e-02	0.0	3.560400e-01	4.423574e-02	0.0	3.712300e-01	4.459976e-02	0.0	3.865400e-01	4.490755e-02	0.0	4.019700e-01	4.515474e-02	0.0	4.175000e-01	4.533632e-02	0.0	4.331100e-01	4.544732e-02	0.0	4.487800e-01	4.548282e-02	0.0	4.645100e-01	4.543797e-02	0.0	4.802700e-01	4.530809e-02	0.0	4.960500e-01	4.508864e-02	0.0	5.118400e-01	4.477524e-02	0.0	5.276100e-01	4.436426e-02	0.0	5.433600e-01	4.385176e-02	0.0	5.590600e-01	4.323515e-02	0.0	5.747100e-01	4.251138e-02	0.0	5.902800e-01	4.167952e-02	0.0	6.057600e-01	4.073886e-02	0.0	6.211300e-01	3.969065e-02	0.0	6.363800e-01	3.853726e-02	0.0	6.515000e-01	3.728299e-02	0.0	6.664700e-01	3.593529e-02	0.0	6.812700e-01	3.450426e-02	0.0	6.958900e-01	3.300154e-02	0.0	7.103200e-01	3.144080e-02	0.0	7.245300e-01	2.983947e-02	0.0	7.385200e-01	2.821231e-02	0.0	7.522800e-01	2.657465e-02	0.0	7.657800e-01	2.494261e-02	0.0	7.790100e-01	2.332721e-02	0.0	7.919700e-01	2.173470e-02	0.0	8.046400e-01	2.016988e-02	0.0	8.170100e-01	1.863257e-02	0.0	8.290500e-01	1.712205e-02	0.0	8.407700e-01	1.563036e-02	0.0	8.521600e-01	1.415071e-02	0.0	8.631800e-01	1.267967e-02	0.0	8.738500e-01	1.120583e-02	0.0	8.841500e-01	9.723741e-03	0.0	8.940600e-01	8.231004e-03	0.0	9.035800e-01	6.729209e-03	0.0	9.127000e-01	5.234859e-03	0.0	9.214000e-01	3.786975e-03	0.0	9.296900e-01	2.444805e-03	0.0	9.375400e-01	1.295388e-03	0.0	9.449600e-01	4.250426e-04	0.0	9.519400e-01	-9.760582e-05	0.0	9.584700e-01	-2.545595e-04	0.0	9.645400e-01	-9.660604e-05	0.0	9.701500e-01	2.632042e-04	0.0	9.752800e-01	6.788084e-04	0.0	9.799500e-01	1.019082e-03	0.0	9.841300e-01	1.198089e-03	0.0	9.878400e-01	1.196218e-03	0.0	9.910500e-01	1.046867e-03	0.0	9.937800e-01	8.109205e-04	0.0	9.960200e-01	5.521607e-04	0.0	9.977600e-01	3.205037e-04	0.0	9.990000e-01	1.448332e-04	0.0	9.997500e-01	3.632230e-05	0.0	1.000000e+00	0.000000e+00	0.0	
CELLS 200	600
2	199	0	2	0	1	2	1	2	2	2	3	2	3	4	2	4	5	2	5	6	2	6	7	2	7	8	2	8	9	2	9	10	2	10	11	2	11	12	2	12	13	2	13	14	2	14	15	2	15	16	2	16	17	2	17	18	2	18	19	2	19	20	2	20	21	2	21	22	2	22	23	2	23	24	2	24	25	2	25	26	2	26	27	2	27	28	2	28	29	2	29	30	2	30	31	2	31	32	2	32	33	2	33	34	2	34	35	2	35	36	2	36	37	2	37	38	2	38	39	2	39	40	2	40	41	2	41	42	2	42	43	2	43	44	2	44	45	2	45	46	2	46	47	2	47	48	2	48	49	2	49	50	2	50	51	2	51	52	2	52	53	2	53	54	2	54	55	2	55	56	2	56	57	2	57	58	2	58	59	2	59	60	2	60	61	2	61	62	2	62	63	2	63	64	2	64	65	2	65	66	2	66	67	2	67	68	2	68	69	2	69	70	2	70	71	2	71	72	2	72	73	2	73	74	2	74	75	2	75	76	2	76	77	2	77	78	2	78	79	2	79	80	2	80	81	2	81	82	2	82	83	2	83	84	2	84	85	2	85	86	2	86	87	2	87	88	2	88	89	2	89	90	2	90	91	2	91	92	2	92	93	2	93	94	2	94	95	2	95	96	2	96	97	2	97	98	2	98	99	2	99	100	2	100	101	2	101	102	2	102	103	2	103	104	2	104	105	2	105	106	2	106	107	2	107	108	2	108	109	2	109	110	2	110	111	2	111	112	2	112	113	2	113	114	2	114	115	2	115	116	2	116	117	2	117	118	2	118	119	2	119	120	2	120	121	2	121	122	2	122	123	2	123	124	2	124	125	2	125	126	2	126	127	2	127	128	2	128	129	2	129	130	2	130	131	2	131	132	2	132	133	2	133	134	2	134	135	2	135	136	2	136	137	2	137	138	2	138	139	2	139	140	2	140	141	2	141	142	2	142	143	2	143	144	2	144	145	2	145	146	2	146	147	2	147	148	2	148	149	2	149	150	2	150	151	2	151	152	2	152	153	2	153	154	2	154	155	2	155	156	2	156	157	2	157	158	2	158	159	2	159	160	2	160	161	2	161	162	2	162	163	2	163	164	2	164	165	2	165	166	2	166	167	2	167	168	2	168	169	2	169	170	2	170	171	2	171	172	2	172	173	2	173	174	2	174	175	2	175	176	2	176	177	2	177	178	2	178	179	2	179	180	2	180	181	2	181	182	2	182	183	2	183	184	2	184	185	2	185	186	2	186	187	2	187	188	2	188	189	2	189	190	2	190	191	2	191	192	2	192	193	2	193	194	2	194	195	2	195	196	2	196	197	2	197	198	2	198	199	
CELL_TYPES 200
3	3	3	3	3	3	3	3	3	3	3	3	3	3	3	3	3	3	3	3	3	3	3	3	3	3	3	3	3	3	3	3	3	3	3	3	3	3	3	3	3	3	3	3	3	3	3	3	3	3	3	3	3	3	3	3	3	3	3	3	3	3	3	3	3	3	3	3	3	3	3	3	3	3	3	3	3	3	3	3	3	3	3	3	3	3	3	3	3	3	3	3	3	3	3	3	3	3	3	3	3	3	3	3	3	3	3	3	3	3	3	3	3	3	3	3	3	3	3	3	3	3	3	3	3	3	3	3	3	3	3	3	3	3	3	3	3	3	3	3	3	3	3	3	3	3	3	3	3	3	3	3	3	3	3	3	3	3	3	3	3	3	3	3	3	3	3	3	3	3	3	3	3	3	3	3	3	3	3	3	3	3	3	3	3	3	3	3	3	3	3	3	3	3	3	3	3	3	3	3	
POINT_DATA 200

SCALARS Conservative_1 float 1
LOOKUP_TABLE default
1.194898e+00	1.179106e+00	1.172095e+00	1.169443e+00	1.168100e+00	1.165218e+00	1.156908e+00	1.140341e+00	1.113002e+00	1.074386e+00	1.024850e+00	9.632798e-01	9.076790e-01	8.856669e-01	8.963857e-01	9.239137e-01	9.537521e-01	9.756201e-01	9.863202e-01	9.866628e-01	9.783477e-01	9.635300e-01	9.445928e-01	9.233643e-01	8.997478e-01	8.738265e-01	8.506124e-01	8.366353e-01	8.335820e-01	8.387432e-01	8.482926e-01	8.592163e-01	8.698272e-01	8.792176e-01	8.872433e-01	8.939878e-01	8.996858e-01	9.046191e-01	9.090036e-01	9.130986e-01	9.170397e-01	9.209637e-01	9.248877e-01	9.288193e-01	9.326759e-01	9.363821e-01	9.398143e-01	9.428778e-01	9.454561e-01	9.474665e-01	9.488154e-01	9.494528e-01	9.493278e-01	9.484235e-01	9.467247e-01	9.442407e-01	9.409830e-01	9.369832e-01	9.322836e-01	9.269312e-01	9.209998e-01	9.145041e-01	9.074409e-01	8.997763e-01	8.917285e-01	8.836608e-01	8.757410e-01	8.672388e-01	8.568094e-01	8.437640e-01	8.301922e-01	8.197453e-01	8.145695e-01	8.142383e-01	8.173108e-01	8.224869e-01	8.292805e-01	8.375730e-01	8.472088e-01	8.580929e-01	8.702421e-01	8.836223e-01	8.982967e-01	9.142639e-01	9.315859e-01	9.503739e-01	9.706619e-01	9.925822e-01	1.016361e+00	1.042083e+00	1.070124e+00	1.100993e+00	1.135058e+00	1.173194e+00	1.215810e+00	1.262166e+00	1.307574e+00	1.348017e+00	1.347962e+00	1.321488e+00	1.296515e+00	1.222627e+00	1.088379e+00	9.921238e-01	9.277444e-01	8.878311e-01	8.637899e-01	8.485903e-01	8.381682e-01	8.307216e-01	8.252764e-01	8.211623e-01	8.181285e-01	8.158345e-01	8.142015e-01	8.132881e-01	8.129675e-01	8.131085e-01	8.137193e-01	8.149468e-01	8.170963e-01	8.203244e-01	8.244320e-01	8.289124e-01	8.332698e-01	8.372244e-01	8.406456e-01	8.434540e-01	8.456634e-01	8.473976e-01	8.487746e-01	8.498317e-01	8.505253e-01	8.507938e-01	8.506105e-01	8.499643e-01	8.488708e-01	8.473383e-01	8.453693e-01	8.429692e-01	8.401251e-01	8.368342e-01	8.331625e-01	8.292390e-01	8.251625e-01	8.209603e-01	8.165991e-01	8.123083e-01	8.088406e-01	8.078993e-01	8.116842e-01	8.215807e-01	8.359572e-01	8.502300e-01	8.607908e-01	8.681879e-01	8.748852e-01	8.828409e-01	8.926198e-01	9.035984e-01	9.149834e-01	9.264497e-01	9.379395e-01	9.493498e-01	9.604220e-01	9.709599e-01	9.807716e-01	9.897694e-01	9.978591e-01	1.005118e+00	1.011617e+00	1.017530e+00	1.023096e+00	1.028578e+00	1.034278e+00	1.040523e+00	1.047688e+00	1.056255e+00	1.066727e+00	1.079607e+00	1.094994e+00	1.112360e+00	1.130246e+00	1.146650e+00	1.159225e+00	1.165664e+00	1.163950e+00	1.152778e+00	1.132006e+00	1.103985e+00	1.074921e+00	1.052593e+00	1.044446e+00	1.053586e+00	1.075670e+00	1.102775e+00	1.129757e+00	1.156156e+00	1.184445e+00	1.174571e+00	
SCALARS Conservative_2 float 1
LOOKUP_TABLE default
7.160152e-01	7.380601e-01	7.508438e-01	7.554744e-01	7.551817e-01	7.553042e-01	7.593424e-01	7.716279e-01	7.946875e-01	8.283772e-01	8.693358e-01	9.104877e-01	9.416140e-01	9.618736e-01	9.710921e-01	9.688657e-01	9.606269e-01	9.516185e-01	9.448753e-01	9.425303e-01	9.446100e-01	9.499328e-01	9.567686e-01	9.637616e-01	9.700384e-01	9.746522e-01	9.768873e-01	9.778141e-01	9.784240e-01	9.789963e-01	9.794414e-01	9.795609e-01	9.794503e-01	9.789919e-01	9.783841e-01	9.776576e-01	9.769182e-01	9.762142e-01	9.754623e-01	9.747229e-01	9.739109e-01	9.730661e-01	9.721307e-01	9.711549e-01	9.701176e-01	9.690868e-01	9.680673e-01	9.671370e-01	9.663122e-01	9.656603e-01	9.651938e-01	9.649757e-01	9.650003e-01	9.652925e-01	9.658389e-01	9.666399e-01	9.676591e-01	9.688717e-01	9.702284e-01	9.716717e-01	9.731773e-01	9.746707e-01	9.761609e-01	9.775477e-01	9.787829e-01	9.796960e-01	9.803694e-01	9.808710e-01	9.813705e-01	9.814987e-01	9.809049e-01	9.797370e-01	9.787090e-01	9.779482e-01	9.774968e-01	9.769971e-01	9.764251e-01	9.755771e-01	9.741446e-01	9.719626e-01	9.689210e-01	9.647027e-01	9.590882e-01	9.517038e-01	9.421469e-01	9.298811e-01	9.142666e-01	8.946354e-01	8.699540e-01	8.387760e-01	7.993693e-01	7.492086e-01	6.844237e-01	6.005994e-01	4.916564e-01	3.537414e-01	1.971863e-01	5.366014e-02	-1.074306e-02	6.903271e-03	7.778504e-02	2.413862e-01	4.700196e-01	6.455500e-01	7.589196e-01	8.296149e-01	8.731587e-01	9.009866e-01	9.192058e-01	9.317481e-01	9.407394e-01	9.473015e-01	9.523340e-01	9.562740e-01	9.594168e-01	9.620258e-01	9.641739e-01	9.659752e-01	9.675934e-01	9.690590e-01	9.704378e-01	9.717317e-01	9.728868e-01	9.738342e-01	9.746152e-01	9.752723e-01	9.758317e-01	9.763016e-01	9.767039e-01	9.770563e-01	9.773717e-01	9.776474e-01	9.778973e-01	9.781175e-01	9.783265e-01	9.785148e-01	9.786916e-01	9.788450e-01	9.789625e-01	9.790522e-01	9.791006e-01	9.790895e-01	9.790096e-01	9.788660e-01	9.786343e-01	9.783325e-01	9.779450e-01	9.775923e-01	9.773499e-01	9.775084e-01	9.782662e-01	9.794658e-01	9.801955e-01	9.799971e-01	9.793175e-01	9.786701e-01	9.780267e-01	9.770490e-01	9.755198e-01	9.733611e-01	9.706299e-01	9.674017e-01	9.637038e-01	9.596014e-01	9.551964e-01	9.506366e-01	9.460588e-01	9.416204e-01	9.373288e-01	9.333210e-01	9.295313e-01	9.258613e-01	9.222093e-01	9.183829e-01	9.141438e-01	9.092084e-01	9.031642e-01	8.955151e-01	8.855363e-01	8.726157e-01	8.563211e-01	8.370835e-01	8.164824e-01	7.975275e-01	7.838793e-01	7.790233e-01	7.853665e-01	8.034198e-01	8.309205e-01	8.629872e-01	8.919749e-01	9.096799e-01	9.119262e-01	9.001703e-01	8.774576e-01	8.479178e-01	8.139975e-01	7.759272e-01	7.325718e-01	6.651681e-01	
SCALARS Conservative_3 float 1
LOOKUP_TABLE default
1.015551e-01	1.065666e-01	1.139662e-01	1.243913e-01	1.415814e-01	1.665991e-01	1.982392e-01	2.326820e-01	2.640412e-01	2.843748e-01	2.869647e-01	2.703541e-01	2.326832e-01	1.855431e-01	1.435812e-01	1.141591e-01	1.006981e-01	1.011167e-01	1.096238e-01	1.209461e-01	1.310537e-01	1.373416e-01	1.384626e-01	1.343459e-01	1.263439e-01	1.160792e-01	1.039319e-01	9.080074e-02	7.801948e-02	6.648046e-02	5.663119e-02	4.849421e-02	4.198359e-02	3.682888e-02	3.270271e-02	2.932984e-02	2.647269e-02	2.394980e-02	2.164485e-02	1.949352e-02	1.748596e-02	1.565306e-02	1.404493e-02	1.272302e-02	1.174546e-02	1.115536e-02	1.097590e-02	1.120318e-02	1.181491e-02	1.275684e-02	1.396597e-02	1.535301e-02	1.682992e-02	1.829461e-02	1.964960e-02	2.079934e-02	2.165621e-02	2.213725e-02	2.217641e-02	2.170730e-02	2.067617e-02	1.904551e-02	1.680561e-02	1.396291e-02	1.048779e-02	6.270903e-03	1.212553e-03	-4.606021e-03	-1.087154e-02	-1.736204e-02	-2.448634e-02	-3.267460e-02	-4.193178e-02	-5.206199e-02	-6.300043e-02	-7.475697e-02	-8.745713e-02	-1.011348e-01	-1.158262e-01	-1.316062e-01	-1.485128e-01	-1.665650e-01	-1.858140e-01	-2.062620e-01	-2.279046e-01	-2.507438e-01	-2.747740e-01	-2.999461e-01	-3.260885e-01	-3.530200e-01	-3.803487e-01	-4.069869e-01	-4.310645e-01	-4.483594e-01	-4.496592e-01	-4.181434e-01	-3.274323e-01	-1.507696e-01	9.154511e-02	2.870234e-01	4.677663e-01	6.548304e-01	6.967882e-01	6.350012e-01	5.479403e-01	4.684233e-01	4.039281e-01	3.523763e-01	3.108679e-01	2.767009e-01	2.483166e-01	2.242992e-01	2.037480e-01	1.859662e-01	1.704248e-01	1.567502e-01	1.446436e-01	1.338229e-01	1.241076e-01	1.153315e-01	1.073984e-01	1.002515e-01	9.379878e-02	8.792141e-02	8.251032e-02	7.749323e-02	7.285313e-02	6.854342e-02	6.452626e-02	6.076095e-02	5.722370e-02	5.387607e-02	5.067460e-02	4.756622e-02	4.451444e-02	4.147704e-02	3.842132e-02	3.530869e-02	3.210285e-02	2.877115e-02	2.527846e-02	2.159676e-02	1.769238e-02	1.355706e-02	9.187911e-03	4.574122e-03	-3.195927e-04	-5.551043e-03	-1.115596e-02	-1.714857e-02	-2.335757e-02	-2.953710e-02	-3.540915e-02	-4.143419e-02	-4.826222e-02	-5.571495e-02	-6.326471e-02	-7.059019e-02	-7.760952e-02	-8.432515e-02	-9.068364e-02	-9.655441e-02	-1.017031e-01	-1.060110e-01	-1.093859e-01	-1.118644e-01	-1.134795e-01	-1.143919e-01	-1.148011e-01	-1.149661e-01	-1.151523e-01	-1.156078e-01	-1.165440e-01	-1.181087e-01	-1.203969e-01	-1.234739e-01	-1.273228e-01	-1.317873e-01	-1.363918e-01	-1.400954e-01	-1.411269e-01	-1.371153e-01	-1.256143e-01	-1.050836e-01	-7.551628e-02	-3.901551e-02	8.087266e-05	3.551110e-02	5.985076e-02	6.638525e-02	5.198554e-02	2.019513e-02	-2.014785e-02	-5.862641e-02	-8.720522e-02	-1.032696e-01	-1.092878e-01	-1.071136e-01	-1.008325e-01	4.126680e-03	
SCALARS Conservative_4 float 1
LOOKUP_TABLE default
3.432153e+00	3.392468e+00	3.375618e+00	3.369453e+00	3.366255e+00	3.359273e+00	3.338548e+00	3.297150e+00	3.228686e+00	3.131778e+00	3.006915e+00	2.850242e+00	2.707733e+00	2.652378e+00	2.681393e+00	2.752607e+00	2.829333e+00	2.885359e+00	2.912486e+00	2.913144e+00	2.891751e+00	2.853753e+00	2.805106e+00	2.750395e+00	2.689237e+00	2.621706e+00	2.560824e+00	2.523989e+00	2.515817e+00	2.529262e+00	2.554288e+00	2.582929e+00	2.610768e+00	2.635352e+00	2.656336e+00	2.673931e+00	2.688776e+00	2.701624e+00	2.713015e+00	2.723652e+00	2.733869e+00	2.744041e+00	2.754195e+00	2.764367e+00	2.774330e+00	2.783904e+00	2.792759e+00	2.800663e+00	2.807309e+00	2.812492e+00	2.815966e+00	2.817612e+00	2.817292e+00	2.814968e+00	2.810596e+00	2.804203e+00	2.795811e+00	2.785500e+00	2.773372e+00	2.759540e+00	2.744199e+00	2.727369e+00	2.709051e+00	2.689131e+00	2.668179e+00	2.647107e+00	2.626386e+00	2.604112e+00	2.576810e+00	2.542578e+00	2.506824e+00	2.479157e+00	2.465393e+00	2.464434e+00	2.472531e+00	2.486184e+00	2.504139e+00	2.526042e+00	2.551415e+00	2.579993e+00	2.611827e+00	2.646772e+00	2.684983e+00	2.726408e+00	2.771167e+00	2.819493e+00	2.871412e+00	2.927236e+00	2.987473e+00	3.052220e+00	3.122377e+00	3.199138e+00	3.283222e+00	3.376823e+00	3.480759e+00	3.593275e+00	3.703335e+00	3.804139e+00	3.802170e+00	3.735523e+00	3.680965e+00	3.504735e+00	3.161965e+00	2.915869e+00	2.751170e+00	2.649746e+00	2.588972e+00	2.550598e+00	2.524127e+00	2.505106e+00	2.491157e+00	2.480557e+00	2.472746e+00	2.466846e+00	2.462659e+00	2.460365e+00	2.459612e+00	2.460063e+00	2.461769e+00	2.465108e+00	2.470889e+00	2.479516e+00	2.490444e+00	2.502317e+00	2.513846e+00	2.524305e+00	2.533355e+00	2.540785e+00	2.546634e+00	2.551230e+00	2.554885e+00	2.557693e+00	2.559544e+00	2.560271e+00	2.559810e+00	2.558129e+00	2.555270e+00	2.551252e+00	2.546078e+00	2.539767e+00	2.532281e+00	2.523609e+00	2.513923e+00	2.503566e+00	2.492790e+00	2.481675e+00	2.470130e+00	2.458797e+00	2.449672e+00	2.447299e+00	2.457489e+00	2.483833e+00	2.521813e+00	2.559315e+00	2.586994e+00	2.606413e+00	2.624030e+00	2.644901e+00	2.670466e+00	2.699070e+00	2.728643e+00	2.758346e+00	2.788030e+00	2.817435e+00	2.845896e+00	2.872923e+00	2.898031e+00	2.921024e+00	2.941643e+00	2.960132e+00	2.976661e+00	2.991673e+00	3.005794e+00	3.019682e+00	3.034102e+00	3.049876e+00	3.067929e+00	3.089465e+00	3.115692e+00	3.147862e+00	3.186161e+00	3.229274e+00	3.273562e+00	3.314187e+00	3.345455e+00	3.361749e+00	3.358057e+00	3.330997e+00	3.279855e+00	3.210192e+00	3.137386e+00	3.080691e+00	3.059153e+00	3.081462e+00	3.136666e+00	3.204358e+00	3.271222e+00	3.336185e+00	3.406103e+00	3.366118e+00	
SCALARS Pressure float 1
LOOKUP_TABLE default
1.285324e+00	1.262663e+00	1.251833e+00	1.247526e+00	1.245424e+00	1.241026e+00	1.228946e+00	1.204938e+00	1.165465e+00	1.109918e+00	1.039212e+00	9.528034e-01	8.757998e-01	8.442498e-01	8.575528e-01	8.950206e-01	9.360966e-01	9.664060e-01	9.815232e-01	9.822180e-01	9.707823e-01	9.502802e-01	9.241627e-01	8.950634e-01	8.629826e-01	8.281761e-01	7.974083e-01	7.790615e-01	7.751795e-01	7.821105e-01	7.947858e-01	8.092719e-01	8.233243e-01	8.358145e-01	8.465158e-01	8.555483e-01	8.631987e-01	8.698276e-01	8.757469e-01	8.812765e-01	8.866192e-01	8.919399e-01	8.972779e-01	9.026278e-01	9.078901e-01	9.129483e-01	9.176440e-01	9.218346e-01	9.253683e-01	9.281218e-01	9.299741e-01	9.308445e-01	9.306707e-01	9.294243e-01	9.270892e-01	9.236755e-01	9.192064e-01	9.137261e-01	9.072997e-01	9.000001e-01	8.919245e-01	8.831090e-01	8.735412e-01	8.632010e-01	8.523799e-01	8.416005e-01	8.310545e-01	8.197616e-01	8.058883e-01	7.886164e-01	7.707894e-01	7.572114e-01	7.505410e-01	7.501931e-01	7.542257e-01	7.610081e-01	7.698751e-01	7.807106e-01	7.933794e-01	8.077719e-01	8.239040e-01	8.417845e-01	8.615074e-01	8.831213e-01	9.067503e-01	9.325999e-01	9.607785e-01	9.914956e-01	1.025138e+00	1.061943e+00	1.102490e+00	1.147601e+00	1.198008e+00	1.254966e+00	1.319279e+00	1.389776e+00	1.458988e+00	1.517856e+00	1.519607e+00	1.481734e+00	1.437700e+00	1.322218e+00	1.134972e+00	1.001053e+00	9.115804e-01	8.554266e-01	8.212856e-01	7.996508e-01	7.849756e-01	7.745972e-01	7.670484e-01	7.614060e-01	7.572392e-01	7.540825e-01	7.518227e-01	7.505106e-01	7.499972e-01	7.501039e-01	7.508088e-01	7.523159e-01	7.550211e-01	7.591391e-01	7.644283e-01	7.702431e-01	7.759171e-01	7.810711e-01	7.855280e-01	7.891854e-01	7.920591e-01	7.943099e-01	7.960919e-01	7.974569e-01	7.983448e-01	7.986775e-01	7.984145e-01	7.975451e-01	7.960868e-01	7.940542e-01	7.914540e-01	7.882898e-01	7.845472e-01	7.802268e-01	7.754166e-01	7.702838e-01	7.649655e-01	7.594904e-01	7.538178e-01	7.482099e-01	7.436448e-01	7.423017e-01	7.470540e-01	7.597823e-01	7.785609e-01	7.974080e-01	8.114233e-01	8.212077e-01	8.300316e-01	8.405696e-01	8.536128e-01	8.683521e-01	8.837275e-01	8.992931e-01	9.149713e-01	9.306138e-01	9.458668e-01	9.604438e-01	9.740716e-01	9.866027e-01	9.979217e-01	1.008092e+00	1.017222e+00	1.025552e+00	1.033408e+00	1.041162e+00	1.049245e+00	1.058127e+00	1.068362e+00	1.080650e+00	1.095765e+00	1.114447e+00	1.136892e+00	1.162343e+00	1.188669e+00	1.212808e+00	1.231185e+00	1.240313e+00	1.237239e+00	1.220192e+00	1.189326e+00	1.148359e+00	1.106419e+00	1.074965e+00	1.064339e+00	1.078113e+00	1.110098e+00	1.149417e+00	1.189076e+00	1.228340e+00	1.270106e+00	1.271106e+00	
SCALARS Temperature float 1
LOOKUP_TABLE default
1.075677e+00	1.070865e+00	1.068030e+00	1.066770e+00	1.066196e+00	1.065060e+00	1.062267e+00	1.056647e+00	1.047136e+00	1.033071e+00	1.014013e+00	9.891243e-01	9.648783e-01	9.532362e-01	9.566783e-01	9.687274e-01	9.814884e-01	9.905557e-01	9.951364e-01	9.954951e-01	9.922672e-01	9.862487e-01	9.783716e-01	9.693501e-01	9.591383e-01	9.477580e-01	9.374520e-01	9.311841e-01	9.299379e-01	9.324791e-01	9.369241e-01	9.418721e-01	9.465377e-01	9.506343e-01	9.540966e-01	9.570022e-01	9.594446e-01	9.615402e-01	9.634141e-01	9.651493e-01	9.668275e-01	9.684853e-01	9.701479e-01	9.718013e-01	9.734251e-01	9.749742e-01	9.764099e-01	9.776819e-01	9.787533e-01	9.795827e-01	9.801423e-01	9.804010e-01	9.803470e-01	9.799676e-01	9.792595e-01	9.782204e-01	9.768575e-01	9.751788e-01	9.732014e-01	9.709459e-01	9.684307e-01	9.656699e-01	9.626425e-01	9.593506e-01	9.558738e-01	9.524022e-01	9.489729e-01	9.452547e-01	9.405690e-01	9.346410e-01	9.284470e-01	9.237155e-01	9.213959e-01	9.213434e-01	9.228138e-01	9.252526e-01	9.283651e-01	9.321105e-01	9.364626e-01	9.413572e-01	9.467526e-01	9.526519e-01	9.590455e-01	9.659369e-01	9.733405e-01	9.812979e-01	9.898178e-01	9.989053e-01	1.008635e+00	1.019058e+00	1.030245e+00	1.042333e+00	1.055459e+00	1.069700e+00	1.085103e+00	1.101105e+00	1.115798e+00	1.125991e+00	1.127337e+00	1.121262e+00	1.108895e+00	1.081456e+00	1.042810e+00	1.009000e+00	9.825771e-01	9.635016e-01	9.507933e-01	9.423286e-01	9.365370e-01	9.324390e-01	9.294442e-01	9.272296e-01	9.255749e-01	9.243082e-01	9.233865e-01	9.228102e-01	9.225427e-01	9.225138e-01	9.226877e-01	9.231472e-01	9.240295e-01	9.254133e-01	9.272181e-01	9.292214e-01	9.311716e-01	9.329292e-01	9.344341e-01	9.356591e-01	9.366127e-01	9.373522e-01	9.379309e-01	9.383703e-01	9.386491e-01	9.387439e-01	9.386370e-01	9.383278e-01	9.378186e-01	9.371159e-01	9.362229e-01	9.351347e-01	9.338457e-01	9.323552e-01	9.306907e-01	9.289044e-01	9.270483e-01	9.251245e-01	9.231185e-01	9.210910e-01	9.193960e-01	9.188047e-01	9.203753e-01	9.247810e-01	9.313406e-01	9.378733e-01	9.426486e-01	9.458871e-01	9.487320e-01	9.521190e-01	9.563006e-01	9.609934e-01	9.658399e-01	9.706875e-01	9.755120e-01	9.802644e-01	9.848450e-01	9.891693e-01	9.931687e-01	9.968005e-01	1.000063e+00	1.002959e+00	1.005540e+00	1.007884e+00	1.010079e+00	1.012234e+00	1.014471e+00	1.016918e+00	1.019732e+00	1.023095e+00	1.027221e+00	1.032270e+00	1.038264e+00	1.044934e+00	1.051690e+00	1.057697e+00	1.062076e+00	1.064040e+00	1.062965e+00	1.058480e+00	1.050635e+00	1.040194e+00	1.029303e+00	1.021254e+00	1.019046e+00	1.023280e+00	1.032006e+00	1.042295e+00	1.052507e+00	1.062434e+00	1.072322e+00	1.082188e+00	
SCALARS Pressure_Coefficient float 1
LOOKUP_TABLE default
6.368832e-01	5.863018e-01	5.621269e-01	5.525132e-01	5.478216e-01	5.380051e-01	5.110393e-01	4.574504e-01	3.693407e-01	2.453519e-01	8.752601e-02	-1.053496e-01	-2.772325e-01	-3.476567e-01	-3.179626e-01	-2.343291e-01	-1.426415e-01	-7.498662e-02	-4.124290e-02	-3.969198e-02	-6.521817e-02	-1.109817e-01	-1.692796e-01	-2.342336e-01	-3.058424e-01	-3.835354e-01	-4.522135e-01	-4.931664e-01	-5.018314e-01	-4.863605e-01	-4.580675e-01	-4.257324e-01	-3.943655e-01	-3.664855e-01	-3.425986e-01	-3.224369e-01	-3.053600e-01	-2.905633e-01	-2.773507e-01	-2.650078e-01	-2.530821e-01	-2.412057e-01	-2.292904e-01	-2.173487e-01	-2.056024e-01	-1.943118e-01	-1.838303e-01	-1.744764e-01	-1.665886e-01	-1.604424e-01	-1.563078e-01	-1.543650e-01	-1.547530e-01	-1.575350e-01	-1.627474e-01	-1.703673e-01	-1.803429e-01	-1.925756e-01	-2.069203e-01	-2.232140e-01	-2.412399e-01	-2.609173e-01	-2.822741e-01	-3.053549e-01	-3.295091e-01	-3.535704e-01	-3.771106e-01	-4.023179e-01	-4.332850e-01	-4.718384e-01	-5.116308e-01	-5.419389e-01	-5.568282e-01	-5.576048e-01	-5.486033e-01	-5.334641e-01	-5.136716e-01	-4.894854e-01	-4.612068e-01	-4.290806e-01	-3.930715e-01	-3.531596e-01	-3.091352e-01	-2.608900e-01	-2.081467e-01	-1.504467e-01	-8.754800e-02	-1.898311e-02	5.611052e-02	1.382658e-01	2.287716e-01	3.294676e-01	4.419822e-01	5.691196e-01	7.126766e-01	8.700364e-01	1.024527e+00	1.155928e+00	1.159838e+00	1.075299e+00	9.770087e-01	7.192369e-01	3.012779e-01	2.351055e-03	-1.973651e-01	-3.227084e-01	-3.989161e-01	-4.472079e-01	-4.799652e-01	-5.031313e-01	-5.199813e-01	-5.325759e-01	-5.418767e-01	-5.489230e-01	-5.539671e-01	-5.568960e-01	-5.580419e-01	-5.578039e-01	-5.562304e-01	-5.528664e-01	-5.468280e-01	-5.376359e-01	-5.258297e-01	-5.128502e-01	-5.001850e-01	-4.886806e-01	-4.787322e-01	-4.705683e-01	-4.641538e-01	-4.591296e-01	-4.551520e-01	-4.521052e-01	-4.501232e-01	-4.493807e-01	-4.499676e-01	-4.519082e-01	-4.551634e-01	-4.597004e-01	-4.655044e-01	-4.725675e-01	-4.809214e-01	-4.905653e-01	-5.013021e-01	-5.127595e-01	-5.246305e-01	-5.368517e-01	-5.495138e-01	-5.620316e-01	-5.722214e-01	-5.752195e-01	-5.646116e-01	-5.362002e-01	-4.942837e-01	-4.522143e-01	-4.209302e-01	-3.990899e-01	-3.793937e-01	-3.558714e-01	-3.267570e-01	-2.938568e-01	-2.595369e-01	-2.247922e-01	-1.897963e-01	-1.548799e-01	-1.208331e-01	-8.829515e-02	-5.787581e-02	-2.990475e-02	-4.638994e-03	1.806312e-02	3.844117e-02	5.703612e-02	7.457187e-02	9.187871e-02	1.099220e-01	1.297476e-01	1.525927e-01	1.800223e-01	2.137602e-01	2.554615e-01	3.055632e-01	3.623735e-01	4.211352e-01	4.750180e-01	5.160372e-01	5.364122e-01	5.295510e-01	4.915010e-01	4.226025e-01	3.311574e-01	2.375414e-01	1.673323e-01	1.436146e-01	1.743602e-01	2.457554e-01	3.335207e-01	4.220454e-01	5.096878e-01	6.029154e-01	6.051484e-01	
SCALARS Mach float 1
LOOKUP_TABLE default
4.931869e-01	5.165210e-01	5.298794e-01	5.357351e-01	5.383816e-01	5.436002e-01	5.562567e-01	5.810890e-01	6.214035e-01	6.778445e-01	7.497215e-01	8.378774e-01	9.194139e-01	9.574510e-01	9.462686e-01	9.066953e-01	8.639443e-01	8.329457e-01	8.170613e-01	8.158108e-01	8.270295e-01	8.477402e-01	8.744747e-01	9.046305e-01	9.382451e-01	9.751471e-01	1.008134e+00	1.028023e+00	1.031963e+00	1.023924e+00	1.009814e+00	9.940323e-01	9.790730e-01	9.658708e-01	9.546605e-01	9.452138e-01	9.372441e-01	9.303842e-01	9.242326e-01	9.185209e-01	9.129828e-01	9.074976e-01	9.019822e-01	8.964824e-01	8.910666e-01	8.858859e-01	8.810718e-01	8.767968e-01	8.731883e-01	8.703899e-01	8.684997e-01	8.676250e-01	8.678074e-01	8.690900e-01	8.714810e-01	8.749841e-01	8.795685e-01	8.852006e-01	8.918133e-01	8.993295e-01	9.076786e-01	9.168046e-01	9.267676e-01	9.375512e-01	9.488868e-01	9.601530e-01	9.712331e-01	9.831946e-01	9.981966e-01	1.017069e+00	1.036671e+00	1.051572e+00	1.058855e+00	1.059020e+00	1.054404e+00	1.046737e+00	1.036929e+00	1.025091e+00	1.011282e+00	9.956784e-01	9.783823e-01	9.593443e-01	9.385482e-01	9.159236e-01	8.913492e-01	8.645896e-01	8.354897e-01	8.038691e-01	7.692455e-01	7.311281e-01	6.888023e-01	6.410633e-01	5.862322e-01	5.220416e-01	4.446178e-01	3.495017e-01	2.338804e-01	9.455518e-02	5.442979e-02	1.734052e-01	2.935385e-01	4.639094e-01	6.391290e-01	7.679291e-01	8.602513e-01	9.239450e-01	9.653573e-01	9.925722e-01	1.011045e+00	1.024050e+00	1.033523e+00	1.040511e+00	1.045723e+00	1.049708e+00	1.052605e+00	1.054416e+00	1.055256e+00	1.055346e+00	1.054800e+00	1.053357e+00	1.050584e+00	1.046232e+00	1.040547e+00	1.034226e+00	1.028062e+00	1.022498e+00	1.017725e+00	1.013835e+00	1.010804e+00	1.008452e+00	1.006609e+00	1.005210e+00	1.004321e+00	1.004019e+00	1.004360e+00	1.005345e+00	1.006967e+00	1.009204e+00	1.012044e+00	1.015501e+00	1.019592e+00	1.024316e+00	1.029583e+00	1.035227e+00	1.041082e+00	1.047141e+00	1.053447e+00	1.059811e+00	1.065124e+00	1.066976e+00	1.062056e+00	1.048221e+00	1.027528e+00	1.006793e+00	9.915479e-01	9.811639e-01	9.720096e-01	9.610696e-01	9.474982e-01	9.321761e-01	9.162438e-01	9.001890e-01	8.840839e-01	8.680868e-01	8.525342e-01	8.377223e-01	8.239043e-01	8.112506e-01	7.997942e-01	7.895477e-01	7.803533e-01	7.719495e-01	7.640325e-01	7.562130e-01	7.480451e-01	7.390486e-01	7.286195e-01	7.160354e-01	7.004034e-01	6.809614e-01	6.573951e-01	6.304698e-01	6.023456e-01	5.765112e-01	5.571162e-01	5.482494e-01	5.531136e-01	5.730800e-01	6.067981e-01	6.496826e-01	6.924319e-01	7.229431e-01	7.311703e-01	7.153402e-01	6.819870e-01	6.412165e-01	5.988818e-01	5.555057e-01	5.095469e-01	4.600926e-01	