# vtk DataFile Version 3.0
vtk output
ASCII
DATASET UNSTRUCTURED_GRID
POINTS 5233 float
9.997500e-01	-3.633649e-05	0.0	9.990000e-01	-1.457284e-04	0.0	9.977600e-01	-3.303069e-04	0.0	9.960200e-01	-6.049666e-04	0.0	9.937800e-01	-1.001011e-03	0.0	9.910500e-01	-1.569411e-03	0.0	9.878400e-01	-2.374971e-03	0.0	9.841300e-01	-3.485179e-03	0.0	9.799500e-01	-4.917382e-03	0.0	9.752800e-01	-6.640016e-03	0.0	9.701500e-01	-8.530761e-03	0.0	9.645400e-01	-1.043384e-02	0.0	9.584700e-01	-1.217506e-02	0.0	9.519400e-01	-1.363738e-02	0.0	9.449600e-01	-1.478717e-02	0.0	9.375400e-01	-1.568026e-02	0.0	9.296900e-01	-1.643302e-02	0.0	9.214000e-01	-1.718043e-02	0.0	9.127000e-01	-1.803144e-02	0.0	9.035800e-01	-1.905286e-02	0.0	8.940600e-01	-2.025750e-02	0.0	8.841500e-01	-2.161686e-02	0.0	8.738500e-01	-2.307749e-02	0.0	8.631800e-01	-2.457281e-02	0.0	8.521600e-01	-2.603916e-02	0.0	8.407700e-01	-2.742920e-02	0.0	8.290500e-01	-2.870308e-02	0.0	8.170100e-01	-2.984093e-02	0.0	8.046400e-01	-3.083841e-02	0.0	7.919700e-01	-3.169870e-02	0.0	7.790100e-01	-3.243456e-02	0.0	7.657800e-01	-3.306248e-02	0.0	7.522800e-01	-3.360126e-02	0.0	7.385200e-01	-3.406827e-02	0.0	7.245300e-01	-3.447805e-02	0.0	7.103200e-01	-3.484292e-02	0.0	6.958900e-01	-3.517227e-02	0.0	6.812700e-01	-3.547204e-02	0.0	6.664700e-01	-3.574659e-02	0.0	6.515000e-01	-3.599894e-02	0.0	6.363800e-01	-3.623137e-02	0.0	6.211300e-01	-3.644632e-02	0.0	6.057600e-01	-3.664696e-02	0.0	5.902800e-01	-3.683726e-02	0.0	5.747100e-01	-3.702198e-02	0.0	5.590600e-01	-3.720674e-02	0.0	5.433600e-01	-3.739739e-02	0.0	5.276100e-01	-3.760023e-02	0.0	5.118400e-01	-3.782085e-02	0.0	4.960500e-01	-3.806446e-02	0.0	4.802700e-01	-3.833473e-02	0.0	4.645100e-01	-3.863417e-02	0.0	4.487800e-01	-3.896367e-02	0.0	4.331100e-01	-3.932198e-02	0.0	4.175000e-01	-3.970669e-02	0.0	4.019700e-01	-4.011331e-02	0.0	3.865400e-01	-4.053578e-02	0.0	3.712300e-01	-4.096671e-02	0.0	3.560400e-01	-4.139822e-02	0.0	3.409900e-01	-4.182108e-02	0.0	3.261100e-01	-4.222529e-02	0.0	3.114000e-01	-4.260143e-02	0.0	2.968700e-01	-4.293978e-02	0.0	2.825500e-01	-4.323038e-02	0.0	2.684500e-01	-4.346416e-02	0.0	2.545700e-01	-4.363267e-02	0.0	2.409400e-01	-4.372764e-02	0.0	2.275700e-01	-4.374189e-02	0.0	2.144700e-01	-4.366887e-02	0.0	2.016600e-01	-4.350294e-02	0.0	1.891400e-01	-4.323897e-02	0.0	1.769300e-01	-4.287289e-02	0.0	1.650400e-01	-4.240125e-02	0.0	1.534900e-01	-4.182187e-02	0.0	1.422900e-01	-4.113311e-02	0.0	1.314400e-01	-4.033329e-02	0.0	1.209500e-01	-3.942199e-02	0.0	1.108500e-01	-3.840173e-02	0.0	1.011300e-01	-3.727220e-02	0.0	9.181000e-02	-3.603702e-02	0.0	8.290000e-02	-3.469995e-02	0.0	7.440000e-02	-3.326408e-02	0.0	6.633000e-02	-3.173687e-02	0.0	5.869000e-02	-3.012342e-02	0.0	5.149000e-02	-2.843165e-02	0.0	4.474000e-02	-2.667077e-02	0.0	3.844000e-02	-2.484824e-02	0.0	3.260000e-02	-2.297490e-02	0.0	2.723000e-02	-2.106274e-02	0.0	2.232000e-02	-1.911647e-02	0.0	1.790000e-02	-1.715671e-02	0.0	1.395000e-02	-1.518259e-02	0.0	1.049000e-02	-1.321009e-02	0.0	7.520000e-03	-1.124417e-02	0.0	5.040000e-03	-9.285457e-03	0.0	3.050000e-03	-7.327192e-03	0.0	1.560000e-03	-5.364301e-03	0.0	5.600000e-04	-3.345014e-03	0.0	6.000000e-05	-1.185422e-03	0.0	0.000000e+00	0.000000e+00	0.0	6.000000e-05	1.143830e-03	0.0	5.600000e-04	3.132142e-03	0.0	1.560000e-03	4.904265e-03	0.0	3.050000e-03	6.560811e-03	0.0	5.040000e-03	8.161668e-03	0.0	7.520000e-03	9.723253e-03	0.0	1.049000e-02	1.126154e-02	0.0	1.395000e-02	1.278528e-02	0.0	1.790000e-02	1.429896e-02	0.0	2.232000e-02	1.579794e-02	0.0	2.723000e-02	1.728988e-02	0.0	3.260000e-02	1.876537e-02	0.0	3.844000e-02	2.022659e-02	0.0	4.474000e-02	2.166957e-02	0.0	5.149000e-02	2.309050e-02	0.0	5.869000e-02	2.448771e-02	0.0	6.633000e-02	2.585742e-02	0.0	7.440000e-02	2.719625e-02	0.0	8.290000e-02	2.850257e-02	0.0	9.181000e-02	2.977193e-02	0.0	1.011300e-01	3.100320e-02	0.0	1.108500e-01	3.219400e-02	0.0	1.209500e-01	3.334120e-02	0.0	1.314400e-01	3.444534e-02	0.0	1.422900e-01	3.550292e-02	0.0	1.534900e-01	3.651302e-02	0.0	1.650400e-01	3.747574e-02	0.0	1.769300e-01	3.839045e-02	0.0	1.891400e-01	3.925599e-02	0.0	2.016600e-01	4.007223e-02	0.0	2.144700e-01	4.083854e-02	0.0	2.275700e-01	4.155560e-02	0.0	2.409400e-01	4.222293e-02	0.0	2.545700e-01	4.284059e-02	0.0	2.684500e-01	4.340851e-02	0.0	2.825500e-01	4.392575e-02	0.0	2.968700e-01	4.439237e-02	0.0	3.114000e-01	4.480770e-02	0.0	3.261100e-01	4.517033e-02	0.0	3.409900e-01	4.547916e-02	0.0	3.560400e-01	4.573288e-02	0.0	3.712300e-01	4.592937e-02	0.0	3.865400e-01	4.606652e-02	0.0	4.019700e-01	4.614215e-02	0.0	4.175000e-01	4.615367e-02	0.0	4.331100e-01	4.609839e-02	0.0	4.487800e-01	4.597361e-02	0.0	4.645100e-01	4.577635e-02	0.0	4.802700e-01	4.550388e-02	0.0	4.960500e-01	4.515323e-02	0.0	5.118400e-01	4.472136e-02	0.0	5.276100e-01	4.420583e-02	0.0	5.433600e-01	4.360341e-02	0.0	5.590600e-01	4.291212e-02	0.0	5.747100e-01	4.212905e-02	0.0	5.902800e-01	4.125326e-02	0.0	6.057600e-01	4.028365e-02	0.0	6.211300e-01	3.922085e-02	0.0	6.363800e-01	3.806633e-02	0.0	6.515000e-01	3.682332e-02	0.0	6.664700e-01	3.549801e-02	0.0	6.812700e-01	3.409909e-02	0.0	6.958900e-01	3.263672e-02	0.0	7.103200e-01	3.112303e-02	0.0	7.245300e-01	2.957381e-02	0.0	7.385200e-01	2.800233e-02	0.0	7.522800e-01	2.642244e-02	0.0	7.657800e-01	2.484878e-02	0.0	7.790100e-01	2.329104e-02	0.0	7.919700e-01	2.175427e-02	0.0	8.046400e-01	2.024210e-02	0.0	8.170100e-01	1.875325e-02	0.0	8.290500e-01	1.728585e-02	0.0	8.407700e-01	1.583099e-02	0.0	8.521600e-01	1.438080e-02	0.0	8.631800e-01	1.293076e-02	0.0	8.738500e-01	1.146857e-02	0.0	8.841500e-01	9.988029e-03	0.0	8.940600e-01	8.486366e-03	0.0	9.035800e-01	6.965414e-03	0.0	9.127000e-01	5.442722e-03	0.0	9.214000e-01	3.959356e-03	0.0	9.296900e-01	2.577433e-03	0.0	9.375400e-01	1.387724e-03	0.0	9.449600e-01	4.802697e-04	0.0	9.519400e-01	-7.299517e-05	0.0	9.584700e-01	-2.519717e-04	0.0	9.645400e-01	-1.070039e-04	0.0	9.701500e-01	2.476615e-04	0.0	9.752800e-01	6.636689e-04	0.0	9.799500e-01	1.007282e-03	0.0	9.841300e-01	1.190353e-03	0.0	9.878400e-01	1.191925e-03	0.0	9.910500e-01	1.044868e-03	0.0	9.937800e-01	8.101686e-04	0.0	9.960200e-01	5.519472e-04	0.0	9.977600e-01	3.204635e-04	0.0	9.990000e-01	1.448295e-04	0.0	9.997500e-01	3.632224e-05	0.0	1.000000e+00	0.000000e+00	0.0	1.984229e+01	2.506660e+00	0.0	1.937166e+01	4.973800e+00	0.0	1.859553e+01	7.362490e+00	0.0	1.752613e+01	9.635070e+00	0.0	1.618034e+01	1.175571e+01	0.0	1.457937e+01	1.369094e+01	0.0	1.274848e+01	1.541027e+01	0.0	1.071654e+01	1.688656e+01	0.0	8.515590e+00	1.809654e+01	0.0	6.180340e+00	1.902113e+01	0.0	3.747630e+00	1.964575e+01	0.0	1.255810e+00	1.996053e+01	0.0	-1.255810e+00	1.996053e+01	0.0	-3.747630e+00	1.964574e+01	0.0	-6.180340e+00	1.902113e+01	0.0	-8.515590e+00	1.809654e+01	0.0	-1.071654e+01	1.688656e+01	0.0	-1.274848e+01	1.541026e+01	0.0	-1.457937e+01	1.369094e+01	0.0	-1.618034e+01	1.175570e+01	0.0	-1.752613e+01	9.635070e+00	0.0	-1.859553e+01	7.362490e+00	0.0	-1.937166e+01	4.973800e+00	0.0	-1.984229e+01	2.506660e+00	0.0	-2.000000e+01	0.000000e+00	0.0	-1.984229e+01	-2.506670e+00	0.0	-1.937166e+01	-4.973800e+00	0.0	-1.859553e+01	-7.362490e+00	0.0	-1.752613e+01	-9.635080e+00	0.0	-1.618034e+01	-1.175571e+01	0.0	-1.457937e+01	-1.369094e+01	0.0	-1.274848e+01	-1.541027e+01	0.0	-1.071653e+01	-1.688656e+01	0.0	-8.515580e+00	-1.809654e+01	0.0	-6.180340e+00	-1.902113e+01	0.0	-3.747620e+00	-1.964575e+01	0.0	-1.255810e+00	-1.996053e+01	0.0	1.255810e+00	-1.996053e+01	0.0	3.747630e+00	-1.964574e+01	0.0	6.180340e+00	-1.902113e+01	0.0	8.515590e+00	-1.809654e+01	0.0	1.071654e+01	-1.688656e+01	0.0	1.274848e+01	-1.541026e+01	0.0	1.457937e+01	-1.369094e+01	0.0	1.618034e+01	-1.175570e+01	0.0	1.752614e+01	-9.635070e+00	0.0	1.859553e+01	-7.362490e+00	0.0	1.937166e+01	-4.973790e+00	0.0	1.984229e+01	-2.506660e+00	0.0	2.000000e+01	0.000000e+00	0.0	6.108444e-02	-3.780814e-02	0.0	6.595826e-01	-4.965856e-02	0.0	4.255599e-01	6.033388e-02	0.0	6.897909e-01	4.659311e-02	0.0	3.792272e-01	-5.503009e-02	0.0	9.994687e-01	-7.277590e-04	0.0	9.985580e-01	-1.337575e-03	0.0	7.733756e-01	-4.468076e-02	0.0	6.892570e-01	-4.875497e-02	0.0	-8.010517e-04	4.844706e-03	0.0	7.462651e-01	-4.633692e-02	0.0	5.833611e-01	5.574240e-02	0.0	9.928499e-01	-3.878010e-03	0.0	9.899918e-01	-5.025745e-03	0.0	5.989397e-01	5.473128e-02	0.0	7.181931e-01	-4.766383e-02	0.0	-1.236255e-03	5.736189e-04	0.0	9.866571e-01	-6.410422e-03	0.0	9.828497e-01	-8.042100e-03	0.0	-8.849961e-04	-5.219029e-03	0.0	6.445084e-01	-5.005309e-02	0.0	8.242295e-01	-4.001261e-02	0.0	7.993966e-01	-4.260826e-02	0.0	3.484787e-01	5.936690e-02	0.0	8.477259e-01	-3.692757e-02	0.0	2.473373e-01	5.504460e-02	0.0	8.698193e-01	-3.350529e-02	0.0	1.068138e-02	1.527170e-02	0.0	8.904079e-01	-3.006390e-02	0.0	7.735154e-02	-4.163949e-02	0.0	9.094366e-01	-2.693650e-02	0.0	-1.444544e-03	-2.614466e-03	0.0	9.425627e-01	-2.147678e-02	0.0	9.268477e-01	-2.419951e-02	0.0	1.838181e-02	-2.216986e-02	0.0	4.257142e-01	-5.409434e-02	0.0	8.589571e-01	-3.523927e-02	0.0	9.564914e-01	-1.817216e-02	0.0	9.785571e-01	-9.931434e-03	0.0	9.685129e-01	-1.411643e-02	0.0	1.586102e-01	-5.261942e-02	0.0	9.001227e-01	-2.844684e-02	0.0	7.599509e-01	-4.555560e-02	0.0	9.971450e-01	-2.110912e-03	0.0	5.985188e-01	-5.105131e-02	0.0	4.413704e-01	-5.378393e-02	0.0	5.359517e-01	-5.211512e-02	0.0	4.728464e-01	-5.318943e-02	0.0	5.044082e-01	-5.263592e-02	0.0	4.886159e-01	-5.290662e-02	0.0	1.252818e-01	-4.936888e-02	0.0	2.824969e-02	-2.690149e-02	0.0	3.946307e-01	-5.472338e-02	0.0	4.658193e-02	-3.364693e-02	0.0	4.101277e-01	-5.441022e-02	0.0	3.189610e-01	-5.605065e-02	0.0	3.487940e-01	-5.560224e-02	0.0	3.389728e-02	-2.919243e-02	0.0	2.898072e-01	-5.631644e-02	0.0	9.349230e-01	-2.287398e-02	0.0	1.471463e-01	-5.165118e-02	0.0	1.950015e-01	-5.481310e-02	0.0	8.612276e-02	-4.340787e-02	0.0	1.049139e-01	-4.662445e-02	0.0	5.673635e-01	-5.160863e-02	0.0	1.704177e-01	-5.347011e-02	0.0	6.139684e-01	-5.074307e-02	0.0	8.803094e-01	-3.176504e-02	0.0	2.308831e-02	-2.455592e-02	0.0	9.952405e-01	-2.933181e-03	0.0	7.197836e-03	-1.496265e-02	0.0	1.865775e-02	1.920416e-02	0.0	9.183468e-01	-2.553162e-02	0.0	9.49
[...]
POINT_DATA 5233

SCALARS Conservative_1 float 1
LOOKUP_TABLE default
1.194226e+00	1.179826e+00	1.173709e+00	1.171919e+00	1.171243e+00	1.168727e+00	1.160297e+00	1.142919e+00	1.113687e+00	1.071816e+00	1.017431e+00	9.421690e-01	8.690886e-01	8.445146e-01	8.636336e-01	9.022618e-01	9.418277e-01	9.699256e-01	9.842451e-01	9.865831e-01	9.791075e-01	9.643706e-01	9.451531e-01	9.233183e-01	8.978326e-01	8.679131e-01	8.409147e-01	8.262203e-01	8.251519e-01	8.332841e-01	8.456864e-01	8.589987e-01	8.715249e-01	8.824867e-01	8.918642e-01	8.997826e-01	9.064994e-01	9.122990e-01	9.173896e-01	9.220259e-01	9.263402e-01	9.304734e-01	9.344526e-01	9.382992e-01	9.419505e-01	9.453503e-01	9.483950e-01	9.510038e-01	9.530732e-01	9.545279e-01	9.552846e-01	9.552984e-01	9.545245e-01	9.529473e-01	9.505507e-01	9.473438e-01	9.433313e-01	9.385448e-01	9.330491e-01	9.269260e-01	9.202186e-01	9.127697e-01	9.044642e-01	8.957255e-01	8.877147e-01	8.807818e-01	8.729287e-01	8.598661e-01	8.392526e-01	8.165173e-01	8.009214e-01	7.954268e-01	7.972945e-01	8.028002e-01	8.097933e-01	8.175215e-01	8.261645e-01	8.360161e-01	8.470699e-01	8.592662e-01	8.726206e-01	8.870859e-01	9.027111e-01	9.194804e-01	9.374349e-01	9.566559e-01	9.771502e-01	9.990224e-01	1.022453e+00	1.047481e+00	1.074437e+00	1.103796e+00	1.135927e+00	1.171816e+00	1.212238e+00	1.256986e+00	1.302415e+00	1.346488e+00	1.349529e+00	1.325391e+00	1.301149e+00	1.228865e+00	1.101827e+00	1.016068e+00	9.624056e-01	9.308514e-01	9.117525e-01	8.985953e-01	8.882167e-01	8.794995e-01	8.718608e-01	8.648592e-01	8.583898e-01	8.522660e-01	8.464677e-01	8.410355e-01	8.358633e-01	8.308659e-01	8.260827e-01	8.215745e-01	8.174500e-01	8.137054e-01	8.102106e-01	8.068744e-01	8.037845e-01	8.011254e-01	7.989600e-01	7.971591e-01	7.956420e-01	7.944930e-01	7.938535e-01	7.937622e-01	7.941173e-01	7.947451e-01	7.954766e-01	7.962945e-01	7.976949e-01	8.010576e-01	8.083759e-01	8.204055e-01	8.343445e-01	8.449085e-01	8.491714e-01	8.479322e-01	8.440083e-01	8.401643e-01	8.380176e-01	8.382040e-01	8.406542e-01	8.448868e-01	8.500792e-01	8.555586e-01	8.610856e-01	8.668531e-01	8.730768e-01	8.798292e-01	8.871181e-01	8.950313e-01	9.036745e-01	9.130081e-01	9.228718e-01	9.330847e-01	9.434435e-01	9.537643e-01	9.638197e-01	9.734382e-01	9.824232e-01	9.906694e-01	9.980750e-01	1.004707e+00	1.010632e+00	1.016023e+00	1.021122e+00	1.026203e+00	1.031584e+00	1.037622e+00	1.044720e+00	1.053398e+00	1.064183e+00	1.077583e+00	1.093662e+00	1.111819e+00	1.130496e+00	1.147617e+00	1.160798e+00	1.167721e+00	1.166378e+00	1.155477e+00	1.134874e+00	1.106894e+00	1.077721e+00	1.055174e+00	1.046750e+00	1.055638e+00	1.077566e+00	1.104593e+00	1.131529e+00	1.157840e+00	1.186336e+00	1.175235e+00	9.999807e-01	9.999854e-01	9.999791e-01	9.999664e-01	9.999542e-01	9.999398e-01	9.999169e-01	9.998824e-01	9.998419e-01	9.998057e-01	9.997799e-01	9.997842e-01	9.998190e-01	9.998921e-01	9.999556e-01	1.000006e+00	1.000034e+00	1.000050e+00	1.000058e+00	1.000061e+00	1.000062e+00	1.000062e+00	1.000061e+00	1.000062e+00	1.000063e+00	1.000064e+00	1.000068e+00	1.000072e+00	1.000079e+00	1.000088e+00	1.000098e+00	1.000112e+00	1.000124e+00	1.000139e+00	1.000145e+00	1.000142e+00	1.000127e+00	1.000105e+00	1.000089e+00	1.000080e+00	1.000078e+00	1.000075e+00	1.000070e+00	1.000062e+00	1.000051e+00	1.000038e+00	1.000030e+00	1.000025e+00	1.000001e+00	9.999762e-01	9.255206e-01	9.210348e-01	8.455538e-01	9.413748e-01	9.409739e-01	1.179458e+00	1.173139e+00	8.587117e-01	9.111803e-01	1.224536e+00	8.811758e-01	8.808876e-01	1.159887e+00	1.152830e+00	8.878950e-01	8.984523e-01	1.319638e+00	1.140371e+00	1.120114e+00	1.324616e+00	9.253462e-01	8.406691e-01	8.369486e-01	8.302388e-01	8.908937e-01	7.982228e-01	9.377982e-01	9.451567e-01	9.692852e-01	8.932224e-01	9.801598e-01	1.344447e+00	8.989852e-01	9.563090e-01	1.079944e+00	9.511448e-01	9.173146e-01	8.835491e-01	1.090836e+00	1.001021e+00	8.085653e-01	9.784035e-01	8.704799e-01	1.167219e+00	9.370073e-01	9.530208e-01	9.494650e-01	9.545362e-01	9.532183e-01	9.542157e-01	8.323495e-01	1.028048e+00	9.451143e-01	9.624978e-01	9.485071e-01	9.180754e-01	9.306790e-01	1.004723e+00	9.023014e-01	9.300719e-01	8.156646e-01	8.124453e-01	8.787736e-01	8.531754e-01	9.438523e-01	8.035296e-01	9.332885e-01	9.550181e-01	1.053043e+00	1.163930e+00	1.175566e+00	9.103012e-01	9.730571e-01	8.773353e-01	1.053094e+00	1.141986e+00	8.617767e-01	8.820474e-01	9.468540e-01	8.904711e-01	8.467816e-01	8.421360e-01	8.551977e-01	9.405509e-01	9.163745e-01	9.434057e-01	1.213328e+00	1.109061e+00	9.361303e-01	8.035551e-01	1.204132e+00	8.727008e-01	8.654268e-01	9.105680e-01	8.878754e-01	9.541493e-01	9.052928e-01	1.290149e+00	1.292924e+00	8.625986e-01	1.333564e+00	8.875216e-01	8.558146e-01	8.701658e-01	8.190390e-01	8.500094e-01	1.122971e+00	8.569480e-01	8.426843e-01	1.115251e+00	1.145852e+00	1.061048e+00	8.463040e-01	8.422677e-01	8.519908e-01	1.116563e+00	1.086022e+00	8.378447e-01	1.094461e+00	1.151399e+00	1.142855e+00	8.275869e-01	8.494618e-01	8.002979e-01	7.987944e-01	8.032498e-01	8.068417e-01	8.412423e-01	8.532405e-01	8.082932e-01	8.151820e-01	9.035821e-01	7.996842e-01	7.979355e-01	9.217664e-01	8.743463e-01	9.792177e-01	9.609791e-01	1.008216e+00	9.950451e-01	1.030439e+00	1.019486e+00	1.072570e+00	1.043365e+00	1.150099e+00	1.101026e+00	1.133403e+00	1.036496e+00	1.051425e+00	1.014004e+00	1.024872e+00	9.874759e-01	1.001950e+00	9.512624e-01	9.703436e-01	9.124005e-01	9.314828e-01	8.683028e-01	8.954181e-01	7.985311e-01	7.978767e-01	8.055476e-01	8.013007e-01	8.626714e-01	8.115571e-01	9.254644e-01	8.783924e-01	8.317764e-01	1.012491e+00	9.318749e-01	8.332058e-01	9.246867e-01	9.516157e-01	1.069393e+00	8.979401e-01	9.724012e-01	8.325100e-01	8.434928e-01	7.994536e-01	8.231273e-01	1.076208e+00	1.065999e+00	8.021621e-01	1.067744e+00	1.080704e+00	8.163077e-01	8.439120e-01	1.131102e+00	1.202082e+00	1.145988e+00	1.166440e+00	9.294020e-01	9.829127e-01	1.100684e+00	8.513405e-01	1.253712e+00	1.140870e+00	9.087937e-01	8.236296e-01	8.943249e-01	8.516169e-01	1.203839e+00	1.263379e+00	9.011954e-01	9.101392e-01	9.719545e-01	1.169228e+00	8.825673e-01	9.153947e-01	8.595378e-01	1.135332e+00	9.226921e-01	9.117627e-01	8.628554e-01	8.857637e-01	1.298459e+00	8.495222e-01	1.108452e+00	9.386382e-01	8.228673e-01	9.041077e-01	9.244278e-01	9.527384e-01	9.000391e-01	9.428960e-01	9.700661e-01	8.502112e-01	9.986379e-01	9.295412e-01	9.305813e-01	1.029079e+00	8.294849e-01	9.399649e-01	8.107196e-01	1.049523e+00	1.079971e+00	8.270680e-01	8.588128e-01	1.136887e+00	1.058193e+00	1.085740e+00	1.135329e+00	1.091278e+00	8.026584e-01	8.153257e-01	8.027720e-01	8.342796e-01	9.201309e-01	8.293101e-01	9.698079e-01	8.168745e-01	8.733070e-01	1.117976e+00	1.098465e+00	1.068156e+00	8.161456e-01	1.210099e+00	1.133075e+00	1.114827e+00	1.036691e+00	1.141693e+00	1.202322e+00	1.331585e+00	1.321310e+00	1.080974e+00	1.211585e+00	9.317470e-01	1.163503e+00	1.152986e+00	8.512411e-01	9.479572e-01	1.119708e+00	9.472875e-01	8.893359e-01	1.145996e+00	1.323146e+00	9.513194e-01	8.548565e-01	8.868895e-01	8.039834e-01	9.315170e-01	9.604770e-01	9.153583e-01	9.742578e-01	9.624357e-01	9.087776e-01	1.031432e+00	9.092850e-01	9.881972e-01	1.097448e+00	8.398007e-01	8.801185e-01	8.700443e-01	1.158299e+00	9.534684e-01	9.535399e-01	9.529658e-01	1.055486e+00	9.464041e-01	9.492176e-01	9.285612e-01	9.877923e-01	9.460553e-01	9.256316e-01	8.309622e-01	8.725233e-01	9.453737e-01	9.358551e-01	1.033672e+00	1.068863e+00	8.972268e-01	8.892845e-01	8.604634e-01	8.495652e-01	9.424650e-01	9.392609e-01	9.679861e-01	9.493142e-01	1.137738e+00	9.338910e-01	9.387082e-01	8.129618e-01	8.163902e-01	8.689597e-01	8.813829e-01	9.088365e-01	9.161749e-01	8.884136e-01	1.304395e+00	1.236960e+00	8.818735e-01	1.081934e+00	8.644379e-01	8.534444e-01	8.490396e-01	8.463510e-01	1.104477e+00	1.128825e+00	1.104278e+00	8.459474e-01	8.477705e-01	8.559827e-01	1.091664e+00	1.133705e+00	8.582919e-01	8.654894e-01	8.028897e-01	8.033457e-01	8.135614e-01	8.207693e-01	8.250143e-01	1.005691e+00	9.763539e-01	9.677001e-01	9.991978e-01	1.023303e+00	1.079381e+00	1.041928e+00	1.035201e+00	1.017647e+00	1.011838e+00	9.921284e-01	9.845098e-01	9.586705e-01	9.493739e-01	9.213807e-01	9.125391e-01	8.761322e-01	8.701349e-01	9.042291e-01	8.965050e-01	8.033404e-01	8.044506e-01	8.061071e-01	8.082470e-01	9.475327e-01	8.914802e-01	9.023924e-01	8.449292e-01	8.480828e-01	9.518179e-01	9.501163e-01	1.085505e+00	9.148529e-01	8.395538e-01	8.453430e-01	8.083581e-01	8.052336e-01	8.516767e-01	8.409700e-01	1.126499e+00	1.116285e+00	9.322371e-01	9.284570e-01	1.008872e+00	1.270741e+00	8.942508e-01	1.296510e+00	9.444795e-01	9.077442e-01	8.632950e-01	9.487034e-01	9.659617e-01	1.091517e+00	1.088715e+00	1.121855e+00	1.094366e+00	1.099929e+00	1.150772e+00	1.175983e+00	1.153439e+00	1.195296e+00	1.081995e+00	1.283112e+00	8.936203e-01	9.565634e-01	1.131992e+00	8.849572e-01	1.171094e+00	1.191905e+00	9.093576e-01	1.250326e+00	9.034309e-01	1.107302e+00	9.424228e-01	1.162593e+00	9.268281e-01	9.275626e-01	9.146522e-01	1.141332e+00	1.134428e+00	1.098334e+00	8.668087e-01	1.124231e+00	9.306997e-01	1.111979e+00	8.611634e-01	8.081437e-01	8.248282e-01	8.192465e-01	8.670013e-01	1.164476e+00	1.272447e+00	1.187474e+00	9.647625e-01	1.240635e+00	9.851777e-01	9.076721e-01	1.313085e+00	8.307714e-01	9.523624e-01	1.057936e+00	1.016482e+00	1.027681e+00	1.003561e+00	9.395730e-01	1.091327e+00	1.124826e+00	1.064022e+00	1.055224e+00	8.157610e-01	8.090253e-01	8.077483e-01	8.412645e-01	9.236748e-01	9.193713e-01	8.452048e-01	9.880822e-01	8.225655e-01	1.107193e+00	1.124058e+00	1.051876e+00	1.140772e+00	1.221513e+00	1.307854e+00	1.034906e+00	1.180378e+00	1.174299e+00	1.023102e+00	1.119770e+00	8.915408e-01	9.513471e-01	8.570151e-01	8.856813e-01	9.083541e-01	9.545713e-01	9.640883e-01	9.387338e-01	9.227292e-01	9.697009e-01	9.704966e-01	9.321497e-01	9.497791e-01	1.103220e+00	8.802688e-01	8.714373e-01	1.147150e+00	9.527670e-01	9.525410e-01	9.474212e-01	9.496925e-01	1.013454e+00	9.439478e-01	9.330931e-01	8.479871e-01	8.389190e-01	9.465344e-01	9.440264e-01	1.054738e+00	1.081296e+00	8.966363e-01	8.889041e-01	8.806014e-01	8.684559e-01	8.575872e-01	9.411909e-01	9.381234e-01	9.933820e-01	9.741439e-01	9.558374e-01	9.319976e-01	9.367327e-01	9.408978e-01	8.252394e-01	8.241251e-01	8.305102e-01	8.641353e-01	8.795639e-01	9.146924e-01	9.210745e-01	8.890023e-01	8.929756e-01	8.560428e-01	8.523106e-01	1.115635e+00	8.507031e-01	8.512874e-01	8.537180e-01	8.593344e-01	1.094415e+00	8.749452e-01	8.835748e-01	8.076921e-01	8.075379e-01	8.264088e-01	8.310991e-01	8.361537e-01	9.743949e-01	1.083971e+00	1.073611e+00	1.047316e+00	1.040220e+00	1.033816e+00	1.021727e+00	1.015882e+00	1.009863e+00	9.969747e-01	9.899131e-01	9.823635e-01	9.660445e-01	9.573739e-01	9.485279e-01	9.219855e-01	8.784957e-01	8.726086e-01	9.136793e-01	9.058152e-01	8.984602e-01	8.083962e-01	8.094975e-01	8.111615e-01	8.133966e-01	8.161770e-01	9.034802e-01	9.156173e-01	8.575562e-01	8.577647e-01	8.668960e-01	9.517787e-01	9.504529e-01	9.295569e-01	9.455635e-01	8.467613e-01	8.529411e-01	8.596859e-01	8.110216e-01	8.578925e-01	8.503741e-01	8.377267e-01	1.120248e+00	1.113425e+00	1.104562e+00	9.348220e-01	9.313398e-01	9.276247e-01	8.950716e-01	9.010555e-01	1.271541e+00	9.020489e-01	1.118664e+00	1.096596e+00	9.475005e-01	1.256879e+00	1.158081e+00	9.632162e-01	9.566675e-01	1.037746e+00	1.101015e+00	8.645894e-01	1.249138e+00	1.003322e+00	1.179728e+00	1.114060e+00	1.109014e+00	1.173250e+00	9.309798e-01	1.136047e+00	1.181016e+00	1.181272e+00	8.689887e-01	8.411296e-01	1.082147e+00	9.457095e-01	9.158620e-01	9.511054e-01	9.138801e-01	1.094465e+00	8.875640e-01	1.114657e+00	1.112813e+00	1.001921e+00	8.292711e-01	8.133427e-01	1.118698e+00	8.843133e-01	9.399003e-01	1.136808e+00	1.095784e+00	1.143388e+00	1.044710e+00	1.105021e+00	9.141132e-01	1.205339e+00	9.093126e-01	9.030153e-01	1.129520e+00	1.128814e+00	1.154609e+00	1.025958e+00	8.687746e-01	8.186856e-01	1.216940e+00	1.030444e+00	9.401000e-01	1.060604e+00	8.252227e-01	8.154180e-01	8.139698e-01	9.230308e-01	9.190907e-01	1.101134e+00	1.061694e+00	1.097909e+00	1.229780e+00	1.283742e+00	1.059445e+00	1.018070e+00	1.105402e+00	8.949299e-01	9.082692e-01	9.258732e-01	9.510296e-01	9.599826e-01	9.459731e-01	9.304816e-01	9.660682e-01	9.687667e-01	9.677098e-01	9.644806e-01	9.890010e-01	8.814731e-01	8.761648e-01	1.136990e+00	9.517943e-01	9.519042e-01	9.480831e-01	9.498709e-01	9.510925e-01	9.519044e-01	8.574765e-01	8.479312e-01	9.453644e-01	1.068122e+00	1.088610e+00	8.971792e-01	8.891267e-01	8.891145e-01	8.773886e-01	8.671774e-01	9.428752e-01	9.402134e-01	1.018109e+00	9.987824e-01	9.798812e-01	9.622400e-01	9.304957e-01	9.350764e-01	9.391171e-01	9.426953e-01	8.373884e-01	8.386384e-01	8.467280e-01	8.611118e-01	8.766917e-01	9.255077e-01	9.199037e-01	8.886075e-01	8.597001e-01	1.106456e+00	1.111127e+00	8.569825e-01	8.562584e-01	8.574085e-01	8.597877e-01	8.620661e-01	8.938751e-01	9.044015e-01	8.131749e-01	8.135054e-01	8.331806e-01	8.375987e-01	8.430717e-01	8.488740e-01	1.086453e+00	1.077650e+00	1.069001e+00	1.052742e+00	1.045579e+00	1.038992e+00	1.032017e+00	1.020799e+00	1.014127e+00	1.008105e+00	9.950858e-01	9.882802e-01	9.806590e-01	9.732230e-01	9.648062e-01	9.569581e-01	9.480064e-01	8.754602e-01	8.806223e-01	9.234388e-01	9.147164e-01	9.080256e-01	9.001751e-01	8.142234e-01	8.154522e-01	8.169744e-01	8.191050e-01	8.218442e-01	8.252632e-01	9.155957e-01	9.283278e-01	8.698636e-01	8.752493e-01	8.889927e-01	9.514657e-01	9.506843e-01	9.492192e-01	9.434398e-01	9.605261e-01	9.799819e-01	8.547081e-01	8.609287e-01	8.681528e-01	8.759501e-01	8.623872e-01	8.581920e-01	8.483523e-01	8.356074e-01	1.094864e+00	1.108553e+00	1.102550e+00	9.371467e-01	9.341171e-01	9.305656e-01	9.271625e-01	8.960997e-01	9.019892e-01	9.076803e-01	1.124498e+00	1.115457e+00	1.039538e+00	1.171781e+00	1.146878e+00	9.069802e-01	9.111726e-01	1.168746e+00	1.098278e+00	1.211542e+00	1.060458e+00	8.541720e-01	8.411193e-01	1.041112e+00	1.131076e+00	1.228061e+00	1.288910e+00	1.290157e+00	1.275180e+00	1.228718e+00	1.137672e+00	8.275735e-01	1.059343e+00	1.117680e+00	9.654340e-01	8.813895e-01	9.467545e-01	1.106809e+00	1.087613e+00	1.102893e+00	8.863558e-01	8.752443e-01	9.360839e-01	9.968515e-01	8.680285e-01	9.473405e-01	8.342089e-01	1.101479e+00	9.246590e-01	1.157904e+00	1.097138e+00	1.284258e+00	1.176941e+00	1.169515e+00	9.651654e-01	1.041187e+00	1.246872e+00	1.015792e+00	1.190575e+00	1.106252e+00	1.161906e+00	1.172076e+00	1.171929e+00	1.102884e+00	9.241893e-01	9.192623e-01	1.098077e+00	8.975146e-01	1.105555e+00	1.106533e+00	9.166338e-01	1.196272e+00	8.220833e-01	8.208458e-01	8.188336e-01	9.248203e-01	1.068696e+00	1.099116e+00	1.258516e+00	1.082086e+00	9.272707e-01	9.386462e-01	9.494415e-01	9.578277e-01	9.387365e-01	9.541691e-01	9.643541e-01	9.681239e-01	9.693303e-01	9.684292e-01	9.962015e-01	1.018108e+00	8.882674e-01	1.126422e+00	9.508265e-01	9.511393e-01	9.484952e-01	9.497245e-01	9.679171e-01	9.780186e-01	8.671382e-01	8.570744e-01	1.077453e+00	1.093282e+00	8.977459e-01	8.982399e-01	8.859378e-01	8.786938e-01	9.431992e-01	1.022648e+00	1.004099e+00	9.860377e-01	9.699764e-01	9.291178e-01	9.335173e-01	9.375119e-01	9.411011e-01	9.440378e-01	8.494647e-01	8.539135e-01	8.601994e-01	8.732472e-01	8.857287e-01	1.100675e+00	1.103357e+00	1.105428e+00	8.632619e-01	8.627103e-01	8.618898e-01	8.643549e-01	8.652846e-01	9.047198e-01	9.160661e-01	8.195697e-01	8.189729e-01	8.438028e-01	8.502800e-01	8.569248e-01	1.079550e+00	1.072526e+00	1.064593e+00	1.057376e+00	1.050174e+00	1.043561e+00	1.036738e+00	1.027464e+00	1.019222e+00	1.009240e+00	9.830809e-01	9.681349e-01	9.523171e-01	9.203241e-01	9.068892e-01	8.208785e-01	8.211632e-01	8.240367e-01	8.248945e-01	8.287914e-01	8.321718e-01	8.362884e-01	9.282752e-01	9.413165e-01	8.848026e-01	8.924156e-01	9.098144e-01	9.510091e-01	9.499740e-01	9.565046e-01	9.744389e-01	9.937461e-01	8.634975e-01	8.701715e-01	8.775323e-01	8.864528e-01	8.954440e-01	8.663496e-01	8.638764e-01	8.575674e-01	8.454427e-01	1.099142e+00	1.092686e+00	9.379460e-01	9.318441e-01	8.956723e-01	9.027649e-01	9.088121e-01	9.136461e-01	1.164214e+00	1.144968e+00	1.158012e+00	1.246452e+00	1.174402e+00	1.069379e+00	1.101075e+00	1.178580e+00	1.099324e+00	1.139438e+00	1.096279e+00	1.236653e+00	1.061550e+00	1.138730e+00	8.392118e-01	1.172889e+00	1.073066e+00	1.151072e+00	1.119175e+00	1.053989e+00	9.484580e-01	1.098449e+00	9.257652e-01	9.804469e-01	9.739604e-01	9.359362e-01	9.203653e-01	8.647149e-01	1.209397e+00	9.479971e-01	9.484990e-01	9.347087e-01	8.549976e-01	1.097376e+00	1.082417e+00	1.204845e+00	1.048740e+00	1.037689e+00	1.164400e+00	1.097266e+00	1.285780e+00	1.224543e+00	1.107395e+00	9.067020e-01	8.771174e-01	8.697175e-01	1.105258e+00	1.168239e+00	1.120550e+00	1.261914e+00	1.171993e+00	1.044331e+00	1.194233e+00	1.176679e+00	8.978501e-01	1.080686e+00	1.099062e+00	1.096583e+00	8.868330e-01	8.288380e-01	8.254977e-01	9.149758e-01	1.098809e+00	1.125266e+00	1.100544e+00	9.445991e-01	9.602396e-01	9.622545e-01	9.701404e-01	9.732895e-01	1.020609e+00	1.116838e+00	9.500049e-01	9.898817e-01	1.003826e+00	8.731040e-01	1.083520e+00	8.989025e-01	8.932417e-01	9.025344e-01	8.883689e-01	9.454775e-01	1.026981e+00	1.008532e+00	9.915340e-01	9.796097e-01	9.340265e-01	9.409551e-01	9.453854e-01	8.691141e-01	8.873860e-01	1.098161e+00	1.099012e+00	8.685757e-01	8.701545e-01	9.275380e-01	8.260857e-01	8.650237e-01	1.015546e+00	1.070293e+00	1.056881e+00	1.044109e+00	1.033441e+00	1.024611e+00	1.004556e+00	9.920041e-01	9.783381e-01	9.638274e-01	9.485706e-01	9.331212e-01	9.192744e-01	9.082571e-01	8.291456e-01	8.338359e-01	8.400078e-01	8.425204e-01	8.487317e-01	9.410929e-01	9.545081e-01	8.941072e-01	9.055058e-01	9.277786e-01	9.506001e-01	9.500508e-01	9.691877e-01	9.867382e-01	1.005961e+00	1.026150e+00	8.729577e-01	8.800929e-01	8.876545e-01	8.967863e-01	9.080657e-01	9.149506e-01	8.661776e-01	8.546885e-01	1.095490e+00	1.090527e+00	9.411791e-01	9.299030e-01	9.229619e-01	9.055773e-01	9.169271e-01	1.109903e+00	1.162924e+00	1.158959e+00	1.127267e+00	1.006153e+00	1.103138e+00	1.169146e+00	1.133509e+00	1.163818e+00	1.114191e+00	1.146236e+00	1.123797e+00	1.097409e+00	1.185064e+00	1.216191e+00	1.094537e+00	9.081876e-01	8.513128e-01	1.116677e+00	9.767412e-01	1.079423e+00	9.330533e-01	1.075767e+00	1.147877e+00	9.466283e-01	9.985793e-01	9.342543e-01	9.470618e-01	1.064074e+00	1.076256e+00	1.062579e+00	1.047674e+00	1.165669e+00	1.097221e+00	1.099525e+00	1.093563e+00	8.334580e-01	9.090863e-01	9.216966e-01	9.697035e-01	1.141807e+00	1.149480e+00	1.261695e+00	1.051036e+00	1.094081e+00	1.169112e+00	1.087728e+00	1.163440e+00	1.130892e+00	9.490624e-01	1.204547e+00	9.595031e-01	9.434167e-01	1.095767e+00	1.223139e+00	1.037604e+00	1.098211e+00	9.146700e-01	1.238318e+00	1.170771e+00	9.857966e-01	1.191941e+00	1.178544e+00	8.878539e-01	1.097076e+00	1.091676e+00	8.984284e-01	8.393941e-01	9.196642e-01	1.119373e+00	1.141061e+00	9.579565e-01	9.693207e-01	9.810100e-01	9.877231e-01	1.108428e+00	9.487333e-01	1.010736e+00	1.023907e+00	9.433804e-01	9.114913e-01	9.275235e-01	9.036454e-01	9.276248e-01	9.114623e-01	8.963771e-01	1.029913e+00	9.314125e-01	9.381820e-01	8.836428e-01	8.781442e-01	9.283479e-01	1.094971e+00	8.790612e-01	8.749065e-01	8.728537e-01	1.073128e+00	1.061818e+00	1.021130e+00	1.050013e+00	1.039244e+00	1.029937e+00	1.011351e+00	1.000017e+00	9.875066e-01	9.742027e-01	9.601543e-01	9.455124e-01	9.315428e-01	8.327883e-01	8.354966e-01	8.404350e-01	8.468921e-01	8.533328e-01	8.632381e-01	9.527674e-01	9.674115e-01	9.036899e-01	9.442875e-01	9.499558e-01	9.500034e-01	9.814399e-01	9.976443e-01	1.016153e+00	1.034813e+00	1.054644e+00	8.830806e-01	8.917540e-01	8.989853e-01	9.074713e-01	9.186297e-01	8.749213e-01	8.731299e-01	8.647300e-01	1.088756e+00	1.082204e+00	9.437968e-01	9.394257e-01	8.848144e-01	9.003693e-01	9.146228e-01	9.239736e-01	1.144629e+00	1.151697e+00	1.149324e+00	1.112333e+00	1.149937e+00	1.130722e+00	1.113370e+00	1.015821e+00	1.166552e+00	1.116457e+00	1.113115e+00	1.049025e+00	1.159654e+00	1.090202e+00	8.406843e-01	1.135132e+00	1.139176e+00	1.108543e+00	1.164581e+00	1.077331e+00	9.059564e-01	1.008555e+00	9.853616e-01	9.133097e-01	1.130916e+00	1.124044e+00	1.120332e+00	1.167201e+00	1.151673e+00	9.103506e-01	9.