# vtk DataFile Version 3.0
vtk output
ASCII
DATASET UNSTRUCTURED_GRID
POINTS 200 float
9.997500e-01	-3.633649e-05	0.0	9.990000e-01	-1.457284e-04	0.0	9.977600e-01	-3.303069e-04	0.0	9.960200e-01	-6.049666e-04	0.0	9.937800e-01	-1.001011e-03	0.0	9.910500e-01	-1.569411e-03	0.0	9.878400e-01	-2.374971e-03	0.0	9.841300e-01	-3.485179e-03	0.0	9.799500e-01	-4.917382e-03	0.0	9.752800e-01	-6.640016e-03	0.0	9.701500e-01	-8.530761e-03	0.0	9.645400e-01	-1.043384e-02	0.0	9.584700e-01	-1.217506e-02	0.0	9.519400e-01	-1.363738e-02	0.0	9.449600e-01	-1.478717e-02	0.0	9.375400e-01	-1.568026e-02	0.0	9.296900e-01	-1.643302e-02	0.0	9.214000e-01	-1.718043e-02	0.0	9.127000e-01	-1.803144e-02	0.0	9.035800e-01	-1.905286e-02	0.0	8.940600e-01	-2.025750e-02	0.0	8.841500e-01	-2.161686e-02	0.0	8.738500e-01	-2.307749e-02	0.0	8.631800e-01	-2.457281e-02	0.0	8.521600e-01	-2.603916e-02	0.0	8.407700e-01	-2.742920e-02	0.0	8.290500e-01	-2.870308e-02	0.0	8.170100e-01	-2.984093e-02	0.0	8.046400e-01	-3.083841e-02	0.0	7.919700e-01	-3.169870e-02	0.0	7.790100e-01	-3.243456e-02	0.0	7.657800e-01	-3.306248e-02	0.0	7.522800e-01	-3.360126e-02	0.0	7.385200e-01	-3.406827e-02	0.0	7.245300e-01	-3.447805e-02	0.0	7.103200e-01	-3.484292e-02	0.0	6.958900e-01	-3.517227e-02	0.0	6.812700e-01	-3.547204e-02	0.0	6.664700e-01	-3.574659e-02	0.0	6.515000e-01	-3.599894e-02	0.0	6.363800e-01	-3.623137e-02	0.0	6.211300e-01	-3.644632e-02	0.0	6.057600e-01	-3.664696e-02	0.0	5.902800e-01	-3.683726e-02	0.0	5.747100e-01	-3.702198e-02	0.0	5.590600e-01	-3.720674e-02	0.0	5.433600e-01	-3.739739e-02	0.0	5.276100e-01	-3.760023e-02	0.0	5.118400e-01	-3.782085e-02	0.0	4.960500e-01	-3.806446e-02	0.0	4.802700e-01	-3.833473e-02	0.0	4.645100e-01	-3.863417e-02	0.0	4.487800e-01	-3.896367e-02	0.0	4.331100e-01	-3.932198e-02	0.0	4.175000e-01	-3.970669e-02	0.0	4.019700e-01	-4.011331e-02	0.0	3.865400e-01	-4.053578e-02	0.0	3.712300e-01	-4.096671e-02	0.0	3.560400e-01	-4.139822e-02	0.0	3.409900e-01	-4.182108e-02	0.0	3.261100e-01	-4.222529e-02	0.0	3.114000e-01	-4.260143e-02	0.0	2.968700e-01	-4.293978e-02	0.0	2.825500e-01	-4.323038e-02	0.0	2.684500e-01	-4.346416e-02	0.0	2.545700e-01	-4.363267e-02	0.0	2.409400e-01	-4.372764e-02	0.0	2.275700e-01	-4.374189e-02	0.0	2.144700e-01	-4.366887e-02	0.0	2.016600e-01	-4.350294e-02	0.0	1.891400e-01	-4.323897e-02	0.0	1.769300e-01	-4.287289e-02	0.0	1.650400e-01	-4.240125e-02	0.0	1.534900e-01	-4.182187e-02	0.0	1.422900e-01	-4.113311e-02	0.0	1.314400e-01	-4.033329e-02	0.0	1.209500e-01	-3.942199e-02	0.0	1.108500e-01	-3.840173e-02	0.0	1.011300e-01	-3.727220e-02	0.0	9.181000e-02	-3.603702e-02	0.0	8.290000e-02	-3.469995e-02	0.0	7.440000e-02	-3.326408e-02	0.0	6.633000e-02	-3.173687e-02	0.0	5.869000e-02	-3.012342e-02	0.0	5.149000e-02	-2.843165e-02	0.0	4.474000e-02	-2.667077e-02	0.0	3.844000e-02	-2.484824e-02	0.0	3.260000e-02	-2.297490e-02	0.0	2.723000e-02	-2.106274e-02	0.0	2.232000e-02	-1.911647e-02	0.0	1.790000e-02	-1.715671e-02	0.0	1.395000e-02	-1.518259e-02	0.0	1.049000e-02	-1.321009e-02	0.0	7.520000e-03	-1.124417e-02	0.0	5.040000e-03	-9.285457e-03	0.0	3.050000e-03	-7.327192e-03	0.0	1.560000e-03	-5.364301e-03	0.0	5.600000e-04	-3.345014e-03	0.0	6.000000e-05	-1.185422e-03	0.0	0.000000e+00	0.000000e+00	0.0	6.000000e-05	1.143830e-03	0.0	5.600000e-04	3.132142e-03	0.0	1.560000e-03	4.904265e-03	0.0	3.050000e-03	6.560811e-03	0.0	5.040000e-03	8.161668e-03	0.0	7.520000e-03	9.723253e-03	0.0	1.049000e-02	1.126154e-02	0.0	1.395000e-02	1.278528e-02	0.0	1.790000e-02	1.429896e-02	0.0	2.232000e-02	1.579794e-02	0.0	2.723000e-02	1.728988e-02	0.0	3.260000e-02	1.876537e-02	0.0	3.844000e-02	2.022659e-02	0.0	4.474000e-02	2.166957e-02	0.0	5.149000e-02	2.309050e-02	0.0	5.869000e-02	2.448771e-02	0.0	6.633000e-02	2.585742e-02	0.0	7.440000e-02	2.719625e-02	0.0	8.290000e-02	2.850257e-02	0.0	9.181000e-02	2.977193e-02	0.0	1.011300e-01	3.100320e-02	0.0	1.108500e-01	3.219400e-02	0.0	1.209500e-01	3.334120e-02	0.0	1.314400e-01	3.444534e-02	0.0	1.422900e-01	3.550292e-02	0.0	1.534900e-01	3.651302e-02	0.0	1.650400e-01	3.747574e-02	0.0	1.769300e-01	3.839045e-02	0.0	1.891400e-01	3.925599e-02	0.0	2.016600e-01	4.007223e-02	0.0	2.144700e-01	4.083854e-02	0.0	2.275700e-01	4.155560e-02	0.0	2.409400e-01	4.222293e-02	0.0	2.545700e-01	4.284059e-02	0.0	2.684500e-01	4.340851e-02	0.0	2.825500e-01	4.392575e-02	0.0	2.968700e-01	4.439237e-02	0.0	3.114000e-01	4.480770e-02	0.0	3.261100e-01	4.517033e-02	0.0	3.409900e-01	4.547916e-02	0.0	3.560400e-01	4.573288e-02	0.0	3.712300e-01	4.592937e-02	0.0	3.865400e-01	4.606652e-02	0.0	4.019700e-01	4.614215e-02	0.0	4.175000e-01	4.615367e-02	0.0	4.331100e-01	4.609839e-02	0.0	4.487800e-01	4.597361e-02	0.0	4.645100e-01	4.577635e-02	0.0	4.802700e-01	4.550388e-02	0.0	4.960500e-01	4.515323e-02	0.0	5.118400e-01	4.472136e-02	0.0	5.276100e-01	4.420583e-02	0.0	5.433600e-01	4.360341e-02	0.0	5.590600e-01	4.291212e-02	0.0	5.747100e-01	4.212905e-02	0.0	5.902800e-01	4.125326e-02	0.0	6.057600e-01	4.028365e-02	0.0	6.211300e-01	3.922085e-02	0.0	6.363800e-01	3.806633e-02	0.0	6.515000e-01	3.682332e-02	0.0	6.664700e-01	3.549801e-02	0.0	6.812700e-01	3.409909e-02	0.0	6.958900e-01	3.263672e-02	0.0	7.103200e-01	3.112303e-02	0.0	7.245300e-01	2.957381e-02	0.0	7.385200e-01	2.800233e-02	0.0	7.522800e-01	2.642244e-02	0.0	7.657800e-01	2.484878e-02	0.0	7.790100e-01	2.329104e-02	0.0	7.919700e-01	2.175427e-02	0.0	8.046400e-01	2.024210e-02	0.0	8.170100e-01	1.875325e-02	0.0	8.290500e-01	1.728585e-02	0.0	8.407700e-01	1.583099e-02	0.0	8.521600e-01	1.438080e-02	0.0	8.631800e-01	1.293076e-02	0.0	8.738500e-01	1.146857e-02	0.0	8.841500e-01	9.988029e-03	0.0	8.940600e-01	8.486366e-03	0.0	9.035800e-01	6.965414e-03	0.0	9.127000e-01	5.442722e-03	0.0	9.214000e-01	3.959356e-03	0.0	9.296900e-01	2.577433e-03	0.0	9.375400e-01	1.387724e-03	0.0	9.449600e-01	4.802697e-04	0.0	9.519400e-01	-7.299517e-05	0.0	9.584700e-01	-2.519717e-04	0.0	9.645400e-01	-1.070039e-04	0.0	9.701500e-01	2.476615e-04	0.0	9.752800e-01	6.636689e-04	0.0	9.799500e-01	1.007282e-03	0.0	9.841300e-01	1.190353e-03	0.0	9.878400e-01	1.191925e-03	0.0	9.910500e-01	1.044868e-03	0.0	9.937800e-01	8.101686e-04	0.0	9.960200e-01	5.519472e-04	0.0	9.977600e-01	3.204635e-04	0.0	9.990000e-01	1.448295e-04	0.0	9.997500e-01	3.632224e-05	0.0	1.000000e+00	0.000000e+00	0.0	
CELLS 200	600
2	199	0	2	0	1	2	1	2	2	2	3	2	3	4	2	4	5	2	5	6	2	6	7	2	7	8	2	8	9	2	9	10	2	10	11	2	11	12	2	12	13	2	13	14	2	14	15	2	15	16	2	16	17	2	17	18	2	18	19	2	19	20	2	20	21	2	21	22	2	22	23	2	23	24	2	24	25	2	25	26	2	26	27	2	27	28	2	28	29	2	29	30	2	30	31	2	31	32	2	32	33	2	33	34	2	34	35	2	35	36	2	36	37	2	37	38	2	38	39	2	39	40	2	40	41	2	41	42	2	42	43	2	43	44	2	44	45	2	45	46	2	46	47	2	47	48	2	48	49	2	49	50	2	50	51	2	51	52	2	52	53	2	53	54	2	54	55	2	55	56	2	56	57	2	57	58	2	58	59	2	59	60	2	60	61	2	61	62	2	62	63	2	63	64	2	64	65	2	65	66	2	66	67	2	67	68	2	68	69	2	69	70	2	70	71	2	71	72	2	72	73	2	73	74	2	74	75	2	75	76	2	76	77	2	77	78	2	78	79	2	79	80	2	80	81	2	81	82	2	82	83	2	83	84	2	84	85	2	85	86	2	86	87	2	87	88	2	88	89	2	89	90	2	90	91	2	91	92	2	92	93	2	93	94	2	94	95	2	95	96	2	96	97	2	97	98	2	98	99	2	99	100	2	100	101	2	101	102	2	102	103	2	103	104	2	104	105	2	105	106	2	106	107	2	107	108	2	108	109	2	109	110	2	110	111	2	111	112	2	112	113	2	113	114	2	114	115	2	115	116	2	116	117	2	117	118	2	118	119	2	119	120	2	120	121	2	121	122	2	122	123	2	123	124	2	124	125	2	125	126	2	126	127	2	127	128	2	128	129	2	129	130	2	130	131	2	131	132	2	132	133	2	133	134	2	134	135	2	135	136	2	136	137	2	137	138	2	138	139	2	139	140	2	140	141	2	141	142	2	142	143	2	143	144	2	144	145	2	145	146	2	146	147	2	147	148	2	148	149	2	149	150	2	150	151	2	151	152	2	152	153	2	153	154	2	154	155	2	155	156	2	156	157	2	157	158	2	158	159	2	159	160	2	160	161	2	161	162	2	162	163	2	163	164	2	164	165	2	165	166	2	166	167	2	167	168	2	168	169	2	169	170	2	170	171	2	171	172	2	172	173	2	173	174	2	174	175	2	175	176	2	176	177	2	177	178	2	178	179	2	179	180	2	180	181	2	181	182	2	182	183	2	183	184	2	184	185	2	185	186	2	186	187	2	187	188	2	188	189	2	189	190	2	190	191	2	191	192	2	192	193	2	193	194	2	194	195	2	195	196	2	196	197	2	197	198	2	198	199	
CELL_TYPES 200
3	3	3	3	3	3	3	3	3	3	3	3	3	3	3	3	3	3	3	3	3	3	3	3	3	3	3	3	3	3	3	3	3	3	3	3	3	3	3	3	3	3	3	3	3	3	3	3	3	3	3	3	3	3	3	3	3	3	3	3	3	3	3	3	3	3	3	3	3	3	3	3	3	3	3	3	3	3	3	3	3	3	3	3	3	3	3	3	3	3	3	3	3	3	3	3	3	3	3	3	3	3	3	3	3	3	3	3	3	3	3	3	3	3	3	3	3	3	3	3	3	3	3	3	3	3	3	3	3	3	3	3	3	3	3	3	3	3	3	3	3	3	3	3	3	3	3	3	3	3	3	3	3	3	3	3	3	3	3	3	3	3	3	3	3	3	3	3	3	3	3	3	3	3	3	3	3	3	3	3	3	3	3	3	3	3	3	3	3	3	3	3	3	3	3	3	3	3	3	3	
POINT_DATA 200

SCALARS Conservative_1 float 1
LOOKUP_TABLE default
1.194226e+00	1.179826e+00	1.173709e+00	1.171919e+00	1.171243e+00	1.168727e+00	1.160297e+00	1.142919e+00	1.113687e+00	1.071816e+00	1.017431e+00	9.421690e-01	8.690886e-01	8.445146e-01	8.636336e-01	9.022618e-01	9.418277e-01	9.699256e-01	9.842451e-01	9.865831e-01	9.791075e-01	9.643706e-01	9.451531e-01	9.233183e-01	8.978326e-01	8.679131e-01	8.409147e-01	8.262203e-01	8.251519e-01	8.332841e-01	8.456864e-01	8.589987e-01	8.715249e-01	8.824867e-01	8.918642e-01	8.997826e-01	9.064994e-01	9.122990e-01	9.173896e-01	9.220259e-01	9.263402e-01	9.304734e-01	9.344526e-01	9.382992e-01	9.419505e-01	9.453503e-01	9.483950e-01	9.510038e-01	9.530732e-01	9.545279e-01	9.552846e-01	9.552984e-01	9.545245e-01	9.529473e-01	9.505507e-01	9.473438e-01	9.433313e-01	9.385448e-01	9.330491e-01	9.269260e-01	9.202186e-01	9.127697e-01	9.044642e-01	8.957255e-01	8.877147e-01	8.807818e-01	8.729287e-01	8.598661e-01	8.392526e-01	8.165173e-01	8.009214e-01	7.954268e-01	7.972945e-01	8.028002e-01	8.097933e-01	8.175215e-01	8.261645e-01	8.360161e-01	8.470699e-01	8.592662e-01	8.726206e-01	8.870859e-01	9.027111e-01	9.194804e-01	9.374349e-01	9.566559e-01	9.771502e-01	9.990224e-01	1.022453e+00	1.047481e+00	1.074437e+00	1.103796e+00	1.135927e+00	1.171816e+00	1.212238e+00	1.256986e+00	1.302415e+00	1.346488e+00	1.349529e+00	1.325391e+00	1.301149e+00	1.228865e+00	1.101827e+00	1.016068e+00	9.624056e-01	9.308514e-01	9.117525e-01	8.985953e-01	8.882167e-01	8.794995e-01	8.718608e-01	8.648592e-01	8.583898e-01	8.522660e-01	8.464677e-01	8.410355e-01	8.358633e-01	8.308659e-01	8.260827e-01	8.215745e-01	8.174500e-01	8.137054e-01	8.102106e-01	8.068744e-01	8.037845e-01	8.011254e-01	7.989600e-01	7.971591e-01	7.956420e-01	7.944930e-01	7.938535e-01	7.937622e-01	7.941173e-01	7.947451e-01	7.954766e-01	7.962945e-01	7.976949e-01	8.010576e-01	8.083759e-01	8.204055e-01	8.343445e-01	8.449085e-01	8.491714e-01	8.479322e-01	8.440083e-01	8.401643e-01	8.380176e-01	8.382040e-01	8.406542e-01	8.448868e-01	8.500792e-01	8.555586e-01	8.610856e-01	8.668531e-01	8.730768e-01	8.798292e-01	8.871181e-01	8.950313e-01	9.036745e-01	9.130081e-01	9.228718e-01	9.330847e-01	9.434435e-01	9.537643e-01	9.638197e-01	9.734382e-01	9.824232e-01	9.906694e-01	9.980750e-01	1.004707e+00	1.010632e+00	1.016023e+00	1.021122e+00	1.026203e+00	1.031584e+00	1.037622e+00	1.044720e+00	1.053398e+00	1.064183e+00	1.077583e+00	1.093662e+00	1.111819e+00	1.130496e+00	1.147617e+00	1.160798e+00	1.167721e+00	1.166378e+00	1.155477e+00	1.134874e+00	1.106894e+00	1.077721e+00	1.055174e+00	1.046750e+00	1.055638e+00	1.077566e+00	1.104593e+00	1.131529e+00	1.157840e+00	1.186336e+00	1.175235e+00	
SCALARS Conservative_2 float 1
LOOKUP_TABLE default
7.010622e-01	7.229356e-01	7.346977e-01	7.379909e-01	7.363363e-01	7.354386e-01	7.390609e-01	7.519036e-01	7.767825e-01	8.135424e-01	8.585774e-01	9.048730e-01	9.383957e-01	9.615574e-01	9.747454e-01	9.736445e-01	9.651160e-01	9.548724e-01	9.464781e-01	9.429268e-01	9.443372e-01	9.494274e-01	9.562531e-01	9.633849e-01	9.700126e-01	9.748643e-01	9.766898e-01	9.772109e-01	9.778698e-01	9.786524e-01	9.792562e-01	9.794287e-01	9.792391e-01	9.785613e-01	9.776800e-01	9.766400e-01	9.755793e-01	9.745646e-01	9.735189e-01	9.725142e-01	9.714678e-01	9.704247e-01	9.693287e-01	9.682329e-01	9.671177e-01	9.660510e-01	9.650391e-01	9.641570e-01	9.634216e-01	9.628967e-01	9.625938e-01	9.625686e-01	9.628130e-01	9.633461e-01	9.641473e-01	9.652168e-01	9.665081e-01	9.679909e-01	9.695987e-01	9.712607e-01	9.729724e-01	9.746924e-01	9.764042e-01	9.778372e-01	9.788265e-01	9.793662e-01	9.799781e-01	9.809229e-01	9.815551e-01	9.802855e-01	9.779825e-01	9.764610e-01	9.760530e-01	9.760837e-01	9.762670e-01	9.761833e-01	9.758244e-01	9.750581e-01	9.735842e-01	9.712484e-01	9.679496e-01	9.633754e-01	9.573192e-01	9.494340e-01	9.393538e-01	9.265875e-01	9.105699e-01	8.907277e-01	8.661563e-01	8.355701e-01	7.974402e-01	7.494607e-01	6.879908e-01	6.086456e-01	5.048663e-01	3.710823e-01	2.140233e-01	6.397937e-02	-7.166269e-03	7.437320e-03	7.763752e-02	2.439091e-01	4.719204e-01	6.424388e-01	7.525340e-01	8.216803e-01	8.649290e-01	8.932279e-01	9.123979e-01	9.261059e-01	9.362718e-01	9.439405e-01	9.499326e-01	9.546819e-01	9.584596e-01	9.615039e-01	9.639330e-01	9.658559e-01	9.674379e-01	9.687028e-01	9.697224e-01	9.705544e-01	9.711868e-01	9.716158e-01	9.719580e-01	9.722594e-01	9.725419e-01	9.727583e-01	9.729452e-01	9.731378e-01	9.733861e-01	9.736906e-01	9.740290e-01	9.743761e-01	9.747216e-01	9.751260e-01	9.757174e-01	9.766920e-01	9.781700e-01	9.796565e-01	9.803572e-01	9.803058e-01	9.801266e-01	9.800925e-01	9.802050e-01	9.803659e-01	9.804972e-01	9.806574e-01	9.807730e-01	9.808622e-01	9.808349e-01	9.806983e-01	9.804448e-01	9.800773e-01	9.795224e-01	9.787481e-01	9.777217e-01	9.763578e-01	9.746046e-01	9.724115e-01	9.697539e-01	9.666487e-01	9.631230e-01	9.592499e-01	9.551264e-01	9.508810e-01	9.466387e-01	9.425468e-01	9.386132e-01	9.349603e-01	9.315203e-01	9.281891e-01	9.248542e-01	9.213177e-01	9.173186e-01	9.125556e-01	9.065822e-01	8.988707e-01	8.886572e-01	8.753089e-01	8.583934e-01	8.383765e-01	8.169156e-01	7.971263e-01	7.827586e-01	7.773564e-01	7.833561e-01	8.012850e-01	8.288857e-01	8.612456e-01	8.906579e-01	9.087822e-01	9.113025e-01	8.996327e-01	8.768701e-01	8.471901e-01	8.131139e-01	7.749959e-01	7.321094e-01	6.583734e-01	
SCALARS Conservative_3 float 1
LOOKUP_TABLE default
1.000775e-01	1.045058e-01	1.122357e-01	1.234387e-01	1.420729e-01	1.693048e-01	2.038030e-01	2.414691e-01	2.760483e-01	2.985451e-01	3.005618e-01	2.832778e-01	2.401190e-01	1.850990e-01	1.374861e-01	1.035229e-01	8.819512e-02	8.897593e-02	9.892784e-02	1.122023e-01	1.242984e-01	1.322869e-01	1.345517e-01	1.309249e-01	1.231218e-01	1.131593e-01	1.007737e-01	8.689278e-02	7.337106e-02	6.122894e-02	5.091873e-02	4.248054e-02	3.583131e-02	3.066536e-02	2.665591e-02	2.352336e-02	2.101883e-02	1.894657e-02	1.717706e-02	1.562860e-02	1.427750e-02	1.313730e-02	1.224489e-02	1.164681e-02	1.138976e-02	1.150401e-02	1.200451e-02	1.287746e-02	1.409514e-02	1.559606e-02	1.731321e-02	1.915283e-02	2.102388e-02	2.282090e-02	2.444422e-02	2.579582e-02	2.678896e-02	2.734051e-02	2.737930e-02	2.682179e-02	2.561197e-02	2.376930e-02	2.136012e-02	1.830850e-02	1.433270e-02	9.180429e-03	3.034021e-03	-3.234092e-03	-8.908475e-03	-1.521588e-02	-2.343122e-02	-3.292436e-02	-4.319780e-02	-5.407683e-02	-6.565427e-02	-7.802587e-02	-9.133002e-02	-1.055827e-01	-1.207813e-01	-1.369716e-01	-1.541623e-01	-1.723423e-01	-1.915325e-01	-2.117041e-01	-2.328182e-01	-2.548479e-01	-2.777677e-01	-3.015220e-01	-3.259515e-01	-3.509385e-01	-3.762166e-01	-4.009802e-01	-4.238533e-01	-4.414832e-01	-4.459459e-01	-4.216887e-01	-3.415943e-01	-1.733035e-01	6.785547e-02	2.666894e-01	4.519919e-01	6.395045e-01	6.778789e-01	6.183549e-01	5.387997e-01	4.680717e-01	4.110493e-01	3.651270e-01	3.276189e-01	2.962478e-01	2.697367e-01	2.468764e-01	2.268844e-01	2.091807e-01	1.933255e-01	1.789983e-01	1.659533e-01	1.539642e-01	1.429078e-01	1.326568e-01	1.231286e-01	1.142754e-01	1.060139e-01	9.825145e-02	9.095482e-02	8.410076e-02	7.770021e-02	7.168244e-02	6.600313e-02	6.062188e-02	5.553676e-02	5.074325e-02	4.620425e-02	4.187792e-02	3.770237e-02	3.361433e-02	2.952191e-02	2.541445e-02	2.144116e-02	1.793567e-02	1.491463e-02	1.161264e-02	7.651244e-03	3.236683e-03	-1.357784e-03	-5.922615e-03	-1.044458e-02	-1.501285e-02	-1.969310e-02	-2.452077e-02	-2.954197e-02	-3.483447e-02	-4.039591e-02	-4.620218e-02	-5.218061e-02	-5.830777e-02	-6.455446e-02	-7.085287e-02	-7.708846e-02	-8.313959e-02	-8.885632e-02	-9.411593e-02	-9.874503e-02	-1.026507e-01	-1.057327e-01	-1.080119e-01	-1.095212e-01	-1.104180e-01	-1.108989e-01	-1.112187e-01	-1.116431e-01	-1.124221e-01	-1.137733e-01	-1.158511e-01	-1.187583e-01	-1.225635e-01	-1.272432e-01	-1.326172e-01	-1.381624e-01	-1.427617e-01	-1.445441e-01	-1.410381e-01	-1.297282e-01	-1.090684e-01	-7.908951e-02	-4.196230e-02	-2.099200e-03	3.416606e-02	5.932721e-02	6.657367e-02	5.265248e-02	2.104517e-02	-1.936215e-02	-5.803829e-02	-8.682099e-02	-1.030203e-01	-1.091088e-01	-1.070133e-01	-1.000866e-01	3.328943e-03	
SCALARS Conservative_4 float 1
LOOKUP_TABLE default
3.427725e+00	3.391729e+00	3.377107e+00	3.373074e+00	3.371513e+00	3.365442e+00	3.344417e+00	3.300999e+00	3.227786e+00	3.122628e+00	2.985357e+00	2.793246e+00	2.605065e+00	2.543740e+00	2.595749e+00	2.696183e+00	2.798429e+00	2.870662e+00	2.907027e+00	2.912743e+00	2.893464e+00	2.855660e+00	2.806292e+00	2.750020e+00	2.684025e+00	2.606061e+00	2.535171e+00	2.496370e+00	2.493421e+00	2.514712e+00	2.547273e+00	2.582222e+00	2.615102e+00	2.643789e+00	2.668290e+00	2.688923e+00	2.706398e+00	2.721476e+00	2.734679e+00	2.746701e+00	2.757864e+00	2.768558e+00	2.778835e+00	2.788768e+00	2.798183e+00	2.806949e+00	2.814790e+00	2.821509e+00	2.826834e+00	2.830580e+00	2.832525e+00	2.832565e+00	2.830576e+00	2.826524e+00	2.820360e+00	2.812111e+00	2.801780e+00	2.789445e+00	2.775265e+00	2.759442e+00	2.742094e+00	2.722798e+00	2.701253e+00	2.678507e+00	2.657584e+00	2.639399e+00	2.618836e+00	2.584695e+00	2.530714e+00	2.470758e+00	2.429304e+00	2.414551e+00	2.419413e+00	2.433966e+00	2.452525e+00	2.473004e+00	2.495893e+00	2.521941e+00	2.551064e+00	2.583093e+00	2.618076e+00	2.655837e+00	2.696495e+00	2.739961e+00	2.786306e+00	2.835689e+00	2.888074e+00	2.943710e+00	3.002996e+00	3.065924e+00	3.133297e+00	3.206223e+00	3.285450e+00	3.373459e+00	3.471999e+00	3.580575e+00	3.690649e+00	3.800734e+00	3.806181e+00	3.745292e+00	3.692348e+00	3.519873e+00	3.195621e+00	2.977113e+00	2.841149e+00	2.762253e+00	2.714843e+00	2.682086e+00	2.655936e+00	2.633767e+00	2.614214e+00	2.596160e+00	2.579414e+00	2.563507e+00	2.548395e+00	2.534205e+00	2.520656e+00	2.507525e+00	2.494950e+00	2.483079e+00	2.472206e+00	2.462329e+00	2.453092e+00	2.444247e+00	2.436055e+00	2.429009e+00	2.423276e+00	2.418496e+00	2.414468e+00	2.411420e+00	2.409735e+00	2.409512e+00	2.410476e+00	2.412165e+00	2.414132e+00	2.416352e+00	2.420161e+00	2.429227e+00	2.448801e+00	2.480727e+00	2.517460e+00	2.545161e+00	2.556295e+00	2.553017e+00	2.542740e+00	2.532703e+00	2.527125e+00	2.527687e+00	2.534185e+00	2.545368e+00	2.559053e+00	2.573480e+00	2.588021e+00	2.603187e+00	2.619525e+00	2.637223e+00	2.656295e+00	2.676954e+00	2.699470e+00	2.723730e+00	2.749306e+00	2.775727e+00	2.802458e+00	2.829029e+00	2.854857e+00	2.879513e+00	2.902498e+00	2.923567e+00	2.942444e+00	2.959338e+00	2.974415e+00	2.988111e+00	3.001055e+00	3.013938e+00	3.027564e+00	3.042826e+00	3.060726e+00	3.082555e+00	3.109583e+00	3.143071e+00	3.183117e+00	3.228212e+00	3.274470e+00	3.316873e+00	3.349639e+00	3.367130e+00	3.364361e+00	3.337984e+00	3.287288e+00	3.217759e+00	3.144705e+00	3.087479e+00	3.065239e+00	3.086893e+00	3.141686e+00	3.209164e+00	3.275901e+00	3.340642e+00	3.411232e+00	3.366867e+00	
SCALARS Pressure float 1
LOOKUP_TABLE default
1.287102e+00	1.266245e+00	1.256718e+00	1.253682e+00	1.252575e+00	1.248715e+00	1.236457e+00	1.211264e+00	1.169071e+00	1.108919e+00	1.031480e+00	9.264535e-01	8.261117e-01	7.904180e-01	8.138917e-01	8.659626e-01	9.199237e-01	9.586216e-01	9.787900e-01	9.823045e-01	9.720694e-01	9.516916e-01	9.251891e-01	8.952569e-01	8.606341e-01	8.204748e-01	7.847754e-01	7.655615e-01	7.642931e-01	7.751087e-01	7.915116e-01	8.091200e-01	8.256932e-01	8.402836e-01	8.528059e-01	8.634339e-01	8.724771e-01	8.802959e-01	8.871909e-01	8.934738e-01	8.993430e-01	9.049677e-01	9.104004e-01	9.156539e-01	9.206542e-01	9.253106e-01	9.294904e-01	9.330704e-01	9.359154e-01	9.379132e-01	9.389555e-01	9.389702e-01	9.379032e-01	9.357286e-01	9.324307e-01	9.280187e-01	9.225089e-01	9.159465e-01	9.084293e-01	9.000783e-01	8.909449e-01	8.808323e-01	8.695872e-01	8.578328e-01	8.471293e-01	8.379433e-01	8.275014e-01	8.100712e-01	7.826696e-01	7.528664e-01	7.327473e-01	7.258082e-01	7.283192e-01	7.355037e-01	7.445528e-01	7.545848e-01	7.658189e-01	7.786647e-01	7.931825e-01	8.093054e-01	8.270450e-01	8.463933e-01	8.674242e-01	8.901632e-01	9.147028e-01	9.412048e-01	9.697324e-01	1.000448e+00	1.033666e+00	1.069549e+00	1.108601e+00	1.151582e+00	1.199211e+00	1.252891e+00	1.313937e+00	1.382027e+00	1.451307e+00	1.515225e+00	1.521782e+00	1.487376e+00	1.444610e+00	1.331707e+00	1.154412e+00	1.034342e+00	9.584448e-01	9.127652e-01	8.847721e-01	8.655835e-01	8.507586e-01	8.385128e-01	8.279072e-01	8.183192e-01	8.095242e-01	8.012537e-01	7.934737e-01	7.862173e-01	7.793474e-01	7.727483e-01	7.664392e-01	7.605118e-01	7.551011e-01	7.501943e-01	7.456333e-01	7.413075e-01	7.373000e-01	7.338479e-01	7.310320e-01	7.287016e-01	7.267403e-01	7.252524e-01	7.244127e-01	7.242751e-01	7.247127e-01	7.255030e-01	7.264241e-01	7.274330e-01	7.291521e-01	7.333625e-01	7.426811e-01	7.582483e-01	7.765463e-01	7.905525e-01	7.962487e-01	7.946341e-01	7.894196e-01	7.842801e-01	7.813836e-01	7.815569e-01	7.847325e-01	7.902604e-01	7.970751e-01	8.042800e-01	8.115597e-01	8.191642e-01	8.273972e-01	8.363585e-01	8.460627e-01	8.566451e-01	8.682524e-01	8.808418e-01	8.942079e-01	9.081080e-01	9.222735e-01	9.364488e-01	9.503205e-01	9.636387e-01	9.761259e-01	9.876130e-01	9.979742e-01	1.007262e+00	1.015579e+00	1.023167e+00	1.030354e+00	1.037529e+00	1.045149e+00	1.053722e+00	1.063849e+00	1.076281e+00	1.091829e+00	1.111245e+00	1.134679e+00	1.161270e+00	1.188747e+00	1.213940e+00	1.233211e+00	1.243053e+00	1.240521e+00	1.223859e+00	1.193215e+00	1.152280e+00	1.110155e+00	1.078367e+00	1.067348e+00	1.080783e+00	1.112565e+00	1.151790e+00	1.191396e+00	1.230531e+00	1.272444e+00	1.272980e+00	
SCALARS Temperature float 1
LOOKUP_TABLE default
1.077770e+00	1.073247e+00	1.070723e+00	1.069769e+00	1.069440e+00	1.068439e+00	1.065638e+00	1.059799e+00	1.049730e+00	1.034617e+00	1.013808e+00	9.833198e-01	9.505495e-01	9.359435e-01	9.424039e-01	9.597687e-01	9.767430e-01	9.883455e-01	9.944576e-01	9.956633e-01	9.928117e-01	9.868526e-01	9.788775e-01	9.696081e-01	9.585685e-01	9.453421e-01	9.332402e-01	9.265829e-01	9.262453e-01	9.301854e-01	9.359398e-01	9.419340e-01	9.474120e-01	9.521770e-01	9.562060e-01	9.596028e-01	9.624686e-01	9.649204e-01	9.670819e-01	9.690333e-01	9.708560e-01	9.725884e-01	9.742607e-01	9.758656e-01	9.773912e-01	9.788018e-01	9.800667e-01	9.811427e-01	9.819975e-01	9.825938e-01	9.829065e-01	9.829078e-01	9.825868e-01	9.819311e-01	9.809373e-01	9.796007e-01	9.779267e-01	9.759220e-01	9.736136e-01	9.710358e-01	9.681884e-01	9.650105e-01	9.614390e-01	9.576961e-01	9.542810e-01	9.513631e-01	9.479599e-01	9.420899e-01	9.325793e-01	9.220459e-01	9.148804e-01	9.124765e-01	9.134883e-01	9.161728e-01	9.194356e-01	9.230153e-01	9.269569e-01	9.313992e-01	9.363838e-01	9.418564e-01	9.477715e-01	9.541277e-01	9.609101e-01	9.681155e-01	9.757508e-01	9.838489e-01	9.924088e-01	1.001427e+00	1.010967e+00	1.021067e+00	1.031797e+00	1.043292e+00	1.055711e+00	1.069188e+00	1.083894e+00	1.099477e+00	1.114320e+00	1.125316e+00	1.127640e+00	1.122217e+00	1.110257e+00	1.083689e+00	1.047725e+00	1.017985e+00	9.958845e-01	9.805702e-01	9.704082e-01	9.632630e-01	9.578278e-01	9.533977e-01	9.495865e-01	9.461877e-01	9.430729e-01	9.401451e-01	9.373940e-01	9.348206e-01	9.323862e-01	9.300518e-01	9.277996e-01	9.256760e-01	9.237276e-01	9.219483e-01	9.202956e-01	9.187396e-01	9.172857e-01	9.160212e-01	9.149794e-01	9.141232e-01	9.134012e-01	9.128494e-01	9.125270e-01	9.124585e-01	9.126016e-01	9.128750e-01	9.131935e-01	9.135226e-01	9.140739e-01	9.154929e-01	9.187323e-01	9.242360e-01	9.307262e-01	9.356663e-01	9.376772e-01	9.371434e-01	9.353221e-01	9.334843e-01	9.324191e-01	9.324185e-01	9.334783e-01	9.353447e-01	9.376480e-01	9.400642e-01	9.424844e-01	9.449862e-01	9.476797e-01	9.505919e-01	9.537205e-01	9.571119e-01	9.608022e-01	9.647690e-01	9.689405e-01	9.732322e-01	9.775610e-01	9.818451e-01	9.859940e-01	9.899331e-01	9.935900e-01	9.969149e-01	9.998989e-01	1.002543e+00	1.004895e+00	1.007031e+00	1.009041e+00	1.011037e+00	1.013150e+00	1.015517e+00	1.018310e+00	1.021722e+00	1.025979e+00	1.031238e+00	1.037504e+00	1.044477e+00	1.051527e+00	1.057792e+00	1.062382e+00	1.064512e+00	1.063567e+00	1.059181e+00	1.051407e+00	1.041003e+00	1.030095e+00	1.021981e+00	1.019678e+00	1.023820e+00	1.032479e+00	1.042728e+00	1.052908e+00	1.062781e+00	1.072583e+00	1.083171e+00	
SCALARS Pressure_Coefficient float 1
LOOKUP_TABLE default
6.408522e-01	5.942968e-01	5.730309e-01	5.662552e-01	5.637827e-01	5.551664e-01	5.278061e-01	4.715710e-01	3.773896e-01	2.431223e-01	7.026681e-02	-1.641664e-01	-3.881434e-01	-4.678169e-01	-4.154204e-01	-2.991906e-01	-1.787418e-01	-9.236251e-02	-4.734375e-02	-3.949880e-02	-6.234506e-02	-1.078312e-01	-1.669886e-01	-2.338015e-01	-3.110846e-01	-4.007259e-01	-4.804120e-01	-5.233002e-01	-5.261315e-01	-5.019895e-01	-4.653760e-01	-4.260713e-01	-3.890777e-01	-3.565099e-01	-3.285582e-01	-3.048350e-01	-2.846492e-01	-2.671967e-01	-2.518060e-01	-2.377816e-01	-2.246809e-01	-2.121257e-01	-1.999990e-01	-1.882725e-01	-1.771112e-01	-1.667175e-01	-1.573876e-01	-1.493963e-01	-1.430459e-01	-1.385866e-01	-1.362601e-01	-1.362272e-01	-1.386089e-01	-1.434628e-01	-1.508244e-01	-1.606726e-01	-1.729713e-01	-1.876194e-01	-2.043989e-01	-2.230395e-01	-2.434265e-01	-2.659993e-01	-2.911000e-01	-3.173375e-01	-3.412293e-01	-3.617337e-01	-3.850416e-01	-4.239483e-01	-4.851126e-01	-5.516375e-01	-5.965462e-01	-6.120352e-01	-6.064304e-01	-5.903935e-01	-5.701947e-01	-5.478017e-01	-5.227256e-01	-4.940520e-01	-4.616461e-01	-4.256575e-01	-3.860603e-01	-3.428722e-01	-2.959281e-01	-2.451714e-01	-1.903954e-01	-1.312392e-01	-6.756158e-02	1.001096e-03	7.514636e-02	1.552424e-01	2.424130e-01	3.383521e-01	4.446675e-01	5.644894e-01	7.007515e-01	8.527381e-01	1.007382e+00	1.150055e+00	1.164693e+00	1.087893e+00	9.924337e-01	7.404174e-01	3.446706e-01	7.665619e-02	-9.275709e-02	-1.947206e-01	-2.572052e-01	-3.000367e-01	-3.331281e-01	-3.604625e-01	-3.841357e-01	-4.055376e-01	-4.251691e-01	-4.436302e-01	-4.609962e-01	-4.771936e-01	-4.925280e-01	-5.072582e-01	-5.213410e-01	-5.345720e-01	-5.466494e-01	-5.576021e-01	-5.677829e-01	-5.774387e-01	-5.863839e-01	-5.940896e-01	-6.003751e-01	-6.055768e-01	-6.099546e-01	-6.132759e-01	-6.151502e-01	-6.154573e-01	-6.144807e-01	-6.127166e-01	-6.106605e-01	-6.084085e-01	-6.045712e-01	-5.951729e-01	-5.743726e-01	-5.396243e-01	-4.987807e-01	-4.675168e-01	-4.548021e-01	-4.584061e-01	-4.700456e-01	-4.815176e-01	-4.879830e-01	-4.875962e-01	-4.805078e-01	-4.681687e-01	-4.529573e-01	-4.368750e-01	-4.206256e-01	-4.036514e-01	-3.852742e-01	-3.652711e-01	-3.436100e-01	-3.199885e-01	-2.940794e-01	-2.659780e-01	-2.361430e-01	-2.051161e-01	-1.734965e-01	-1.418553e-01	-1.108918e-01	-8.116358e-02	-5.329041e-02	-2.764945e-02	-4.521905e-03	1.620946e-02	3.477508e-02	5.171137e-02	6.775490e-02	8.377042e-02	1.007794e-01	1.199155e-01	1.425197e-01	1.702691e-01	2.049755e-01	2.483144e-01	3.006220e-01	3.599768e-01	4.213107e-01	4.775457e-01	5.205598e-01	5.425284e-01	5.368773e-01	4.996847e-01	4.312836e-01	3.399109e-01	2.458814e-01	1.749274e-01	1.503299e-01	1.803183e-01	2.512600e-01	3.388172e-01	4.272230e-01	5.145774e-01	6.081349e-01	6.093302e-01	
SCALARS Mach float 1
LOOKUP_TABLE default
4.827512e-01	5.050782e-01	5.171956e-01	5.217184e-01	5.232678e-01	5.279680e-01	5.409497e-01	5.672638e-01	6.106026e-01	6.718006e-01	7.504732e-01	8.577281e-01	9.661451e-01	1.012932e+00	9.923315e-01	9.361849e-01	8.799535e-01	8.405544e-01	8.194257e-01	8.152244e-01	8.251429e-01	8.456738e-01	8.727698e-01	9.037747e-01	9.401062e-01	9.829143e-01	1.021512e+00	1.042549e+00	1.043612e+00	1.031181e+00	1.012944e+00	9.938347e-01	9.762611e-01	9.608821e-01	9.478063e-01	9.367271e-01	9.273390e-01	9.192756e-01	9.121422e-01	9.056816e-01	8.996289e-01	8.938591e-01	8.882738e-01	8.828987e-01	8.777748e-01	8.730250e-01	8.687552e-01	8.651156e-01	8.622187e-01	8.601951e-01	8.591330e-01	8.591286e-01	8.602187e-01	8.624437e-01	8.658108e-01	8.703296e-01	8.759733e-01	8.827096e-01	8.904371e-01	8.990309e-01	9.084813e-01	9.189787e-01	9.307162e-01	9.429526e-01	9.540622e-01	9.635154e-01	9.744974e-01	9.933361e-01	1.023606e+00	1.056816e+00	1.079244e+00	1.086742e+00	1.083588e+00	1.075208e+00	1.065000e+00	1.053772e+00	1.041370e+00	1.027342e+00	1.011532e+00	9.940827e-01	9.751038e-01	9.545598e-01	9.324493e-01	9.087227e-01	8.832836e-01	8.559281e-01	8.265393e-01	7.949752e-01	7.608179e-01	7.236406e-01	6.828007e-01	6.371711e-01	5.851454e-01	5.244582e-01	4.510938e-01	3.601873e-01	2.477984e-01	1.093071e-01	4.024038e-02	1.605936e-01	2.827105e-01	4.521835e-01	6.189616e-01	7.351073e-01	8.144522e-01	8.670530e-01	9.011177e-01	9.247296e-01	9.425231e-01	9.569277e-01	9.692542e-01	9.801983e-01	9.901898e-01	9.995503e-01	1.008319e+00	1.016499e+00	1.024218e+00	1.031603e+00	1.038713e+00	1.045405e+00	1.051534e+00	1.057122e+00	1.062305e+00	1.067180e+00	1.071729e+00	1.075681e+00	1.078935e+00	1.081607e+00	1.083859e+00	1.085580e+00	1.086585e+00	1.086798e+00	1.086352e+00	1.085500e+00	1.084507e+00	1.083481e+00	1.081761e+00	1.077332e+00	1.067202e+00	1.049935e+00	1.029471e+00	1.013813e+00	1.007417e+00	1.009116e+00	1.014906e+00	1.020738e+00	1.024114e+00	1.024116e+00	1.020757e+00	1.014835e+00	1.007510e+00	9.998082e-01	9.920739e-01	9.840567e-01	9.753994e-01	9.660081e-01	9.558809e-01	9.448566e-01	9.328026e-01	9.197745e-01	9.059892e-01	8.917111e-01	8.772039e-01	8.627355e-01	8.486112e-01	8.350929e-01	8.224420e-01	8.108508e-01	8.003718e-01	7.910237e-01	7.826575e-01	7.750146e-01	7.677833e-01	7.605631e-01	7.528770e-01	7.442089e-01	7.339040e-01	7.211907e-01	7.051334e-01	6.849644e-01	6.604135e-01	6.323412e-01	6.030344e-01	5.760944e-01	5.557411e-01	5.461019e-01	5.503956e-01	5.699952e-01	6.035413e-01	6.464345e-01	6.893814e-01	7.202226e-01	7.288230e-01	7.133070e-01	6.801506e-01	6.394645e-01	5.971750e-01	5.539444e-01	5.082877e-01	4.549260e-01	