TITLE = "SU2 Simulation"
VARIABLES = "Iteration","CLift","CDrag","CSideForce","CMx","CMy","CMz","CFx","CFy","CFz","CL/CD","Res_Flow[0]","Res_Flow[1]","Res_Flow[2]","Res_Flow[3]","Res_Flow[4]","Linear_Solver_Iterations","CFL_Number","Time(min)"
ZONE T= "Convergence history"
        3653, 6.55919156e-02, 3.53305831e-04, 0.00000000e+00, 0.00000000e+00, 0.00000000e+00, -3.71204752e-02, -1.07765834e-03, 6.55840138e-02, 0.00000000e+00, 1.85651947e+02, -6.69101870e+00, -6.67739954e+00, -7.21002980e+00, -6.09463917e+00, 0.00000000e+00, 2.0000000000, 10.0000000000, 0.0002537807
        3654, 6.56225355e-02, 3.86564457e-04, 0.00000000e+00, 0.00000000e+00, 0.00000000e+00, -3.70936093e-02, -1.04507560e-03, 6.56153520e-02, 0.00000000e+00, 1.69758327e+02, -6.74878201e+00, -6.65879640e+00, -6.83427295e+00, -6.14550361e+00, 0.00000000e+00, 2.0000000000, 10.0000000000, 0.0004981160
        3655, 6.56439473e-02, 3.98909307e-04, 0.00000000e+00, 0.00000000e+00, 0.00000000e+00, -3.70746206e-02, -1.03320078e-03, 6.56370279e-02, 0.00000000e+00, 1.64558575e+02, -6.75149926e+00, -6.69089860e+00, -6.79424892e+00, -6.15156767e+00, 0.00000000e+00, 2.0000000000, 10.0000000000, 0.0007384976
        3656, 6.56694252e-02, 4.09597674e-04, 0.00000000e+00, 0.00000000e+00, 0.00000000e+00, -3.70559536e-02, -1.02307076e-03, 6.56627330e-02, 0.00000000e+00, 1.60326656e+02, -6.71949805e+00, -6.67086915e+00, -6.74522445e+00, -6.11592962e+00, 0.00000000e+00, 2.0000000000, 10.0000000000, 0.0009793639
        3657, 6.56984368e-02, 4.17865498e-04, 0.00000000e+00, 0.00000000e+00, 0.00000000e+00, -3.70377109e-02, -1.01543779e-03, 6.56919181e-02, 0.00000000e+00, 1.57223885e+02, -6.67698308e+00, -6.63578202e+00, -6.69923697e+00, -6.07157087e+00, 0.00000000e+00, 2.0000000000, 10.0000000000, 0.0012328148
        3658, 6.57311132e-02, 4.23574429e-04, 0.00000000e+00, 0.00000000e+00, 0.00000000e+00, -3.70215542e-02, -1.01044305e-03, 6.57247112e-02, 0.00000000e+00, 1.55181967e+02, -6.64347002e+00, -6.61490118e+00, -6.67965865e+00, -6.04005220e+00, 0.00000000e+00, 2.0000000000, 10.0000000000, 0.0015588164
        3659, 6.57640498e-02, 4.28349180e-04, 0.00000000e+00, 0.00000000e+00, 0.00000000e+00, -3.70073009e-02, -1.00638794e-03, 6.57577441e-02, 0.00000000e+00, 1.53529067e+02, -6.61450129e+00, -6.59249889e+00, -6.66803789e+00, -6.01223869e+00, 0.00000000e+00, 2.0000000000, 10.0000000000, 0.0018095652
        3660, 6.57950431e-02, 4.32368074e-04, 0.00000000e+00, 0.00000000e+00, 0.00000000e+00, -3.69953174e-02, -1.00304612e-03, 6.57888177e-02, 0.00000000e+00, 1.52173685e+02, -6.58751475e+00, -6.56002726e+00, -6.65354500e+00, -5.98440233e+00, 0.00000000e+00, 2.0000000000, 10.0000000000, 0.0021275798
        3661, 6.58232334e-02, 4.35571491e-04, 0.00000000e+00, 0.00000000e+00, 0.00000000e+00, -3.69859774e-02, -1.00045843e-03, 6.58170712e-02, 0.00000000e+00, 1.51119242e+02, -6.56944337e+00, -6.53624669e+00, -6.64494506e+00, -5.96577613e+00, 0.00000000e+00, 2.0000000000, 10.0000000000, 0.0023801128
        3662, 6.58482953e-02, 4.38163376e-04, 0.00000000e+00, 0.00000000e+00, 0.00000000e+00, -3.69790231e-02, -9.98413886e-04, 6.58421836e-02, 0.00000000e+00, 1.50282518e+02, -6.55878552e+00, -6.52092038e+00, -6.64089345e+00, -5.95485033e+00, 0.00000000e+00, 2.0000000000, 10.0000000000, 0.0026365161
        3663, 6.58705151e-02, 4.40244550e-04, 0.00000000e+00, 0.00000000e+00, 0.00000000e+00, -3.69738877e-02, -9.96817931e-04, 6.58644436e-02, 0.00000000e+00, 1.49622557e+02, -6.55439329e+00, -6.51468357e+00, -6.63977357e+00, -5.95033659e+00, 0.00000000e+00, 2.0000000000, 10.0000000000, 0.0028736830
        3664, 6.58903865e-02, 4.41824407e-04, 0.00000000e+00, 0.00000000e+00, 0.00000000e+00, -3.69700632e-02, -9.95671941e-04, 6.58843447e-02, 0.00000000e+00, 1.49132518e+02, -6.55481294e+00, -6.51698438e+00, -6.64114285e+00, -5.95068520e+00, 0.00000000e+00, 2.0000000000, 10.0000000000, 0.0031203310
        3665, 6.59083837e-02, 4.42950091e-04, 0.00000000e+00, 0.00000000e+00, 0.00000000e+00, -3.69671710e-02, -9.94939133e-04, 6.59023622e-02, 0.00000000e+00, 1.48794153e+02, -6.55833337e+00, -6.52558712e+00, -6.64452846e+00, -5.95416577e+00, 0.00000000e+00, 2.0000000000, 10.0000000000, 0.0033679326
        3666, 6.59248077e-02, 4.43737990e-04, 0.00000000e+00, 0.00000000e+00, 0.00000000e+00, -3.69649768e-02, -9.94509709e-04, 6.59187995e-02, 0.00000000e+00, 1.48566968e+02, -6.56357179e+00, -6.53740723e+00, -6.64927076e+00, -5.95943875e+00, 0.00000000e+00, 2.0000000000, 10.0000000000, 0.0036317666
        3667, 6.59397873e-02, 4.44301216e-04, 0.00000000e+00, 0.00000000e+00, 0.00000000e+00, -3.69633401e-02, -9.94273395e-04, 6.59337878e-02, 0.00000000e+00, 1.48412349e+02, -6.56972186e+00, -6.54919247e+00, -6.65469221e+00, -5.96570834e+00, 0.00000000e+00, 2.0000000000, 10.0000000000, 0.0039031148
        3668, 6.59534041e-02, 4.44711771e-04, 0.00000000e+00, 0.00000000e+00, 0.00000000e+00, -3.69621479e-02, -9.94159986e-04, 6.59474103e-02, 0.00000000e+00, 1.48305955e+02, -6.57628184e+00, -6.55779625e+00, -6.66035529e+00, -5.97237888e+00, 0.00000000e+00, 2.0000000000, 10.0000000000, 0.0041407148
        3669, 6.59657550e-02, 4.45012189e-04, 0.00000000e+00, 0.00000000e+00, 0.00000000e+00, -3.69612926e-02, -9.94129074e-04, 6.59597648e-02, 0.00000000e+00, 1.48233592e+02, -6.58274294e+00, -6.56057423e+00, -6.66619278e+00, -5.97874652e+00, 0.00000000e+00, 2.0000000000, 10.0000000000, 0.0043855151
        3670, 6.59769673e-02, 4.45230810e-04, 0.00000000e+00, 0.00000000e+00, 0.00000000e+00, -3.69606752e-02, -9.94155101e-04, 6.59709793e-02, 0.00000000e+00, 1.48185988e+02, -6.58856335e+00, -6.55615984e+00, -6.67238250e+00, -5.98404400e+00, 0.00000000e+00, 2.0000000000, 10.0000000000, 0.0046761314
        3671, 6.59871851e-02, 4.45388692e-04, 0.00000000e+00, 0.00000000e+00, 0.00000000e+00, -3.69602146e-02, -9.94220156e-04, 6.59811981e-02, 0.00000000e+00, 1.48156400e+02, -6.59335869e+00, -6.54507110e+00, -6.67914900e+00, -5.98774313e+00, 0.00000000e+00, 2.0000000000, 10.0000000000, 0.0049763640
        3672, 6.59965405e-02, 4.45505398e-04, 0.00000000e+00, 0.00000000e+00, 0.00000000e+00, -3.69598516e-02, -9.94307564e-04, 6.59905537e-02, 0.00000000e+00, 1.48138588e+02, -6.59709696e+00, -6.52944038e+00, -6.68666131e+00, -5.98983038e+00, 0.00000000e+00, 2.0000000000, 10.0000000000, 0.0052222490
        3673, 6.60051286e-02, 4.45599856e-04, 0.00000000e+00, 0.00000000e+00, 0.00000000e+00, -3.69595494e-02, -9.94400475e-04, 6.59991418e-02, 0.00000000e+00, 1.48126458e+02, -6.60015288e+00, -6.51202295e+00, -6.69504522e+00, -5.99084161e+00, 0.00000000e+00, 2.0000000000, 10.0000000000, 0.0055467963
        3674, 6.60130113e-02, 4.45691788e-04, 0.00000000e+00, 0.00000000e+00, 0.00000000e+00, -3.69592883e-02, -9.94480526e-04, 6.60070247e-02, 0.00000000e+00, 1.48113591e+02, -6.60315871e+00, -6.49528709e+00, -6.70435132e+00, -5.99162681e+00, 0.00000000e+00, 2.0000000000, 10.0000000000, 0.0059373140
        3675, 6.60202328e-02, 4.45803348e-04, 0.00000000e+00, 0.00000000e+00, 0.00000000e+00, -3.69590590e-02, -9.94526531e-04, 6.60142470e-02, 0.00000000e+00, 1.48092726e+02, -6.60687596e+00, -6.48112526e+00, -6.71459516e+00, -5.99314669e+00, 0.00000000e+00, 2.0000000000, 10.0000000000, 0.0062221328
        3676, 6.60268347e-02, 4.45959525e-04, 0.00000000e+00, 0.00000000e+00, 0.00000000e+00, -3.69588540e-02, -9.94514410e-04, 6.60208507e-02, 0.00000000e+00, 1.48055666e+02, -6.61216979e+00, -6.47101810e+00, -6.72587868e+00, -5.99641917e+00, 0.00000000e+00, 2.0000000000, 10.0000000000, 0.0064658999
        3677, 6.60328733e-02, 4.46187617e-04, 0.00000000e+00, 0.00000000e+00, 0.00000000e+00, -3.69586591e-02, -9.94418102e-04, 6.60268928e-02, 0.00000000e+00, 1.47993514e+02, -6.62009337e+00, -6.46635760e+00, -6.73857533e+00, -6.00261742e+00, 0.00000000e+00, 2.0000000000, 10.0000000000, 0.0067101320
        3678, 6.60384305e-02, 4.46515790e-04, 0.00000000e+00, 0.00000000e+00, 0.00000000e+00, -3.69584471e-02, -9.94211238e-04, 6.60324558e-02, 0.00000000e+00, 1.47897190e+02, -6.63201325e+00, -6.46872416e+00, -6.75353027e+00, -6.01322429e+00, 0.00000000e+00, 2.0000000000, 10.0000000000, 0.0069540143
        3679, 6.60436185e-02, 4.46969821e-04, 0.00000000e+00, 0.00000000e+00, 0.00000000e+00, -3.69581756e-02, -9.93870490e-04, 6.60376525e-02, 0.00000000e+00, 1.47758563e+02, -6.64974403e+00, -6.48006760e+00, -6.77229313e+00, -6.03019364e+00, 0.00000000e+00, 2.0000000000, 10.0000000000, 0.0071907640
        3680, 6.60485781e-02, 4.47569238e-04, 0.00000000e+00, 0.00000000e+00, 0.00000000e+00, -3.69577871e-02, -9.93379410e-04, 6.60426240e-02, 0.00000000e+00, 1.47571755e+02, -6.67573627e+00, -6.50287163e+00, -6.79747360e+00, -6.05616517e+00, 0.00000000e+00, 2.0000000000, 10.0000000000, 0.0074365139
        3681, 6.60534571e-02, 4.48322951e-04, 0.00000000e+00, 0.00000000e+00, 0.00000000e+00, -3.69572241e-02, -9.92732310e-04, 6.60475183e-02, 0.00000000e+00, 1.47334543e+02, -6.71351155e+00, -6.54051543e+00, -6.83348880e+00, -6.09494989e+00, 0.00000000e+00, 2.0000000000, 10.0000000000, 0.0076745629
        3682, 6.60583550e-02, 4.49217991e-04, 0.00000000e+00, 0.00000000e+00, 0.00000000e+00, -3.69564872e-02, -9.91944331e-04, 6.60524346e-02, 0.00000000e+00, 1.47051891e+02, -6.76798870e+00, -6.59739228e+00, -6.88752468e+00, -6.15194088e+00, 0.00000000e+00, 2.0000000000, 10.0000000000, 0.0079470634
        3683, 6.60634517e-02, 4.50135600e-04, 0.00000000e+00, 0.00000000e+00, 0.00000000e+00, -3.69555562e-02, -9.91138123e-04, 6.60575500e-02, 0.00000000e+00, 1.46763446e+02, -6.84050701e+00, -6.67303497e+00, -6.96550640e+00, -6.22888012e+00, 0.00000000e+00, 2.0000000000, 10.0000000000, 0.0081870159
        3684, 6.60696447e-02, 4.50934465e-04, 0.00000000e+00, 0.00000000e+00, 0.00000000e+00, -3.69540073e-02, -9.90474548e-04, 6.60637590e-02, 0.00000000e+00, 1.46517177e+02, -6.90506146e+00, -6.73797079e+00, -7.04339522e+00, -6.29782864e+00, 0.00000000e+00, 2.0000000000, 10.0000000000, 0.0084255815
        3685, 6.60772298e-02, 4.51598270e-04, 0.00000000e+00, 0.00000000e+00, 0.00000000e+00, -3.69517121e-02, -9.89976370e-04, 6.60713568e-02, 0.00000000e+00, 1.46318607e+02, -6.93952089e+00, -6.77260800e+00, -7.09220981e+00, -6.33470626e+00, 0.00000000e+00, 2.0000000000, 10.0000000000, 0.0086695472
        3686, 6.60854083e-02, 4.52217492e-04, 0.00000000e+00, 0.00000000e+00, 0.00000000e+00, -3.69491222e-02, -9.89535709e-04, 6.60795469e-02, 0.00000000e+00, 1.46136338e+02, -6.96122141e+00, -6.79790721e+00, -7.12804014e+00, -6.35873578e+00, 0.00000000e+00, 2.0000000000, 10.0000000000, 0.0089062492
        3687, 6.60938379e-02, 4.52738084e-04, 0.00000000e+00, 0.00000000e+00, 0.00000000e+00, -3.69464524e-02, -9.89199132e-04, 6.60879858e-02, 0.00000000e+00, 1.45986919e+02, -6.98035552e+00, -6.82503250e+00, -7.16048662e+00, -6.38099053e+00, 0.00000000e+00, 2.0000000000, 10.0000000000, 0.0091515978
        3688, 6.61022624e-02, 4.53126272e-04, 0.00000000e+00, 0.00000000e+00, 0.00000000e+00, -3.69439093e-02, -9.88994814e-04, 6.60964167e-02, 0.00000000e+00, 1.45880445e+02, -6.99591217e+00, -6.85180312e+00, -7.18776166e+00, -6.39962921e+00, 0.00000000e+00, 2.0000000000, 10.0000000000, 0.0093900800
        3689, 6.61105265e-02, 4.53456162e-04, 0.00000000e+00, 0.00000000e+00, 0.00000000e+00, -3.69416256e-02, -9.88845284e-04, 6.61046861e-02, 0.00000000e+00, 1.45792542e+02, -7.00390891e+00, -6.87186896e+00, -7.20441862e+00, -6.40965108e+00, 0.00000000e+00, 2.0000000000, 10.0000000000, 0.0096242825
        3690, 6.61185159e-02, 4.53791628e-04, 0.00000000e+00, 0.00000000e+00, 0.00000000e+00, -3.69396594e-02, -9.88684187e-04, 6.61126809e-02, 0.00000000e+00, 1.45702371e+02, -7.00693508e+00, -6.88696244e+00, -7.21333251e+00, -6.41403707e+00, 0.00000000e+00, 2.0000000000, 10.0000000000, 0.0098622799
        3691, 6.61261554e-02, 4.54100475e-04, 0.00000000e+00, 0.00000000e+00, 0.00000000e+00, -3.69380209e-02, -9.88542066e-04, 6.61203253e-02, 0.00000000e+00, 1.45620097e+02, -7.00911351e+00, -6.90123462e+00, -7.21984451e+00, -6.41759172e+00, 0.00000000e+00, 2.0000000000, 10.0000000000, 0.0101169825
        3692, 6.61333984e-02, 4.54335036e-04, 0.00000000e+00, 0.00000000e+00, 0.00000000e+00, -3.69367078e-02, -9.88465567e-04, 6.61275717e-02, 0.00000000e+00, 1.45560860e+02, -7.01121780e+00, -6.91514324e+00, -7.22519438e+00, -6.42117173e+00, 0.00000000e+00, 2.0000000000, 10.0000000000, 0.0103597323
        3693, 6.61402185e-02, 4.54494066e-04, 0.00000000e+00, 0.00000000e+00, 0.00000000e+00, -3.69357018e-02, -9.88455354e-04, 6.61343937e-02, 0.00000000e+00, 1.45524933e+02, -7.01219428e+00, -6.92715486e+00, -7.22858450e+00, -6.42350862e+00, 0.00000000e+00, 2.0000000000, 10.0000000000, 0.0106108824
        3694, 6.61465893e-02, 4.54592806e-04, 0.00000000e+00, 0.00000000e+00, 0.00000000e+00, -3.69349694e-02, -9.88495615e-04, 6.61407651e-02, 0.00000000e+00, 1.45507338e+02, -7.01191390e+00, -6.93682525e+00, -7.23019468e+00, -6.42438462e+00, 0.00000000e+00, 2.0000000000, 10.0000000000, 0.0108427803
        3695, 6.61524820e-02, 4.54634080e-04, 0.00000000e+00, 0.00000000e+00, 0.00000000e+00, -3.69344745e-02, -9.88582901e-04, 6.61466573e-02, 0.00000000e+00, 1.45507090e+02, -7.01096558e+00, -6.94447685e+00, -7.23068905e+00, -6.42438044e+00, 0.00000000e+00, 2.0000000000, 10.0000000000, 0.0110832810
        3696, 6.61578846e-02, 4.54620844e-04, 0.00000000e+00, 0.00000000e+00, 0.00000000e+00, -3.69341809e-02, -9.88713990e-04, 6.61520583e-02, 0.00000000e+00, 1.45523210e+02, -7.00966365e+00, -6.95020910e+00, -7.23027377e+00, -6.42377570e+00, 0.00000000e+00, 2.0000000000, 10.0000000000, 0.0113264163
        3697, 6.61628142e-02, 4.54565975e-04, 0.00000000e+00, 0.00000000e+00, 0.00000000e+00, -3.69340482e-02, -9.88876385e-04, 6.61569856e-02, 0.00000000e+00, 1.45551620e+02, -7.00820610e+00, -6.95418061e+00, -7.22916383e+00, -6.42275581e+00, 0.00000000e+00, 2.0000000000, 10.0000000000, 0.0115855296
        3698, 6.61673098e-02, 4.54483595e-04, 0.00000000e+00, 0.00000000e+00, 0.00000000e+00, -3.69340341e-02, -9.89056817e-04, 6.61614783e-02, 0.00000000e+00, 1.45587895e+02, -7.00698298e+00, -6.95687739e+00, -7.22790585e+00, -6.42175292e+00, 0.00000000e+00, 2.0000000000, 10.0000000000, 0.0118704796
        3699, 6.61714170e-02, 4.54384347e-04, 0.00000000e+00, 0.00000000e+00, 0.00000000e+00, -3.69341021e-02, -9.89245639e-04, 6.61655823e-02, 0.00000000e+00, 1.45628734e+02, -7.00637861e+00, -6.95881401e+00, -7.22700941e+00, -6.42120562e+00, 0.00000000e+00, 2.0000000000, 10.0000000000, 0.0121814648
        3700, 6.61751822e-02, 4.54277908e-04, 0.00000000e+00, 0.00000000e+00, 0.00000000e+00, -3.69342236e-02, -9.89434189e-04, 6.61693443e-02, 0.00000000e+00, 1.45671143e+02, -7.00664728e+00, -6.96038960e+00, -7.22682305e+00, -6.42141315e+00, 0.00000000e+00, 2.0000000000, 10.0000000000, 0.0124236822
        3701, 6.61786507e-02, 4.54172847e-04, 0.00000000e+00, 0.00000000e+00, 0.00000000e+00, -3.69343765e-02, -9.89614891e-04, 6.61728097e-02, 0.00000000e+00, 1.45712478e+02, -7.00801838e+00, -6.96199277e+00, -7.22769952e+00, -6.42265264e+00, 0.00000000e+00, 2.0000000000, 10.0000000000, 0.0127614657
        3702, 6.61818646e-02, 4.54074872e-04, 0.00000000e+00, 0.00000000e+00, 0.00000000e+00, -3.69345446e-02, -9.89782953e-04, 6.61760207e-02, 0.00000000e+00, 1.45750995e+02, -7.01071868e+00, -6.96401698e+00, -7.22998481e+00, -6.42520335e+00, 0.00000000e+00, 2.0000000000, 10.0000000000, 0.0130743464
        3703, 6.61848603e-02, 4.53987119e-04, 0.00000000e+00, 0.00000000e+00, 0.00000000e+00, -3.69347174e-02, -9.89936037e-04, 6.61790138e-02, 0.00000000e+00, 1.45785767e+02, -7.01492010e+00, -6.96681746e+00, -7.23393458e+00, -6.42928844e+00, 0.00000000e+00, 2.0000000000, 10.0000000000, 0.0133129478
        3704, 6.61876696e-02, 4.53911036e-04, 0.00000000e+00, 0.00000000e+00, 0.00000000e+00, -3.69348889e-02, -9.90073386e-04, 6.61818207e-02, 0.00000000e+00, 1.45816392e+02, -7.02075527e+00, -6.97073814e+00, -7.23975388e+00, -6.43509251e+00, 0.00000000e+00, 2.0000000000, 10.0000000000, 0.0135682305
        3705, 6.61903192e-02, 4.53846509e-04, 0.00000000e+00, 0.00000000e+00, 0.00000000e+00, -3.69350562e-02, -9.90195698e-04, 6.61844683e-02, 0.00000000e+00, 1.45842962e+02, -7.02835579e+00, -6.97615051e+00, -7.24765311e+00, -6.44280449e+00, 0.00000000e+00, 2.0000000000, 10.0000000000, 0.0138187647
        3706, 6.61928311e-02, 4.53792074e-04, 0.00000000e+00, 0.00000000e+00, 0.00000000e+00, -3.69352189e-02, -9.90304917e-04, 6.61869784e-02, 0.00000000e+00, 1.45865992e+02, -7.03784334e+00, -6.98343951e+00, -7.25783058e+00, -6.45260738e+00, 0.00000000e+00, 2.0000000000, 10.0000000000, 0.0140639305
        3707, 6.61952228e-02, 4.53745494e-04, 0.00000000e+00, 0.00000000e+00, 0.00000000e+00, -3.69353785e-02, -9.90403659e-04, 6.61893685e-02, 0.00000000e+00, 1.45886237e+02, -7.04930888e+00, -6.99297602e+00, -7.27045056e+00, -6.46465428e+00, 0.00000000e+00, 2.0000000000, 10.0000000000, 0.0143084645
        3708, 6.61975076e-02, 4.53704229e-04, 0.00000000e+00, 0.00000000e+00, 0.00000000e+00, -3.69355373e-02, -9.90494759e-04, 6.61916519e-02, 0.00000000e+00, 1.45904542e+02, -7.06281781e+00, -7.00511460e+00, -7.28566179e+00, -6.47907346e+00, 0.00000000e+00, 2.0000000000, 10.0000000000, 0.0145495137
        3709, 6.61996959e-02, 4.53665641e-04, 0.00000000e+00, 0.00000000e+00, 0.00000000e+00, -3.69356984e-02, -9.90581074e-04, 6.61938388e-02, 0.00000000e+00, 1.45921776e+02, -7.07842481e+00, -7.02020404e+00, -7.30362339e+00, -6.49598439e+00, 0.00000000e+00, 2.0000000000, 10.0000000000, 0.0147895296
        3710, 6.62017950e-02, 4.53627163e-04, 0.00000000e+00, 0.00000000e+00, 0.00000000e+00, -3.69358649e-02, -9.90665334e-04, 6.61959365e-02, 0.00000000e+00, 1.45938780e+02, -7.09618393e+00, -7.03859960e+00, -7.32452526e+00, -6.51550844e+00, 0.00000000e+00, 2.0000000000, 10.0000000000, 0.0150309165
        3711, 6.62038103e-02, 4.53586428e-04, 0.00000000e+00, 0.00000000e+00, 0.00000000e+00, -3.69360399e-02, -9.90750023e-04, 6.61979505e-02, 0.00000000e+00, 1.45956330e+02, -7.11616688e+00, -7.06069184e+00, -7.34862315e+00, -6.53778948e+00, 0.00000000e+00, 2.0000000000, 10.0000000000, 0.0152699471
        3712, 6.62057458e-02, 4.53541287e-04, 0.00000000e+00, 0.00000000e+00, 0.00000000e+00, -3.69362263e-02, -9.90837376e-04, 6.61998846e-02, 0.00000000e+00, 1.45975124e+02, -7.13848975e+00, -7.08695492e+00, -7.37628557e+00, -6.56302513e+00, 0.00000000e+00, 2.0000000000, 10.0000000000, 0.0155174812
        3713, 6.62076042e-02, 4.53489794e-04, 0.00000000e+00, 0.00000000e+00, 0.00000000e+00, -3.69364267e-02, -9.90929397e-04, 6.62017414e-02, 0.00000000e+00, 1.45995798e+02, -7.16332748e+00, -7.11799477e+00, -7.40802401e+00, -6.59148496e+00, 0.00000000e+00, 2.0000000000, 10.0000000000, 0.0157532295
        3714, 6.62093871e-02, 4.53430231e-04, 0.00000000e+00, 0.00000000e+00, 0.00000000e+00, -3.69366436e-02, -9.91027842e-04, 6.62035226e-02, 0.00000000e+00, 1.46018908e+02, -7.19090588e+00, -7.15458332e+00, -7.44449948e+00, -6.62350178e+00, 0.00000000e+00, 2.0000000000, 10.0000000000, 0.0159953833
        3715, 6.62110956e-02, 4.53361198e-04, 0.00000000e+00, 0.00000000e+00, 0.00000000e+00, -3.69368790e-02, -9.91134128e-04, 6.62052292e-02, 0.00000000e+00, 1.46044910e+02, -7.22147534e+00, -7.19768275e+00, -7.48650449e+00, -6.65943777e+00, 0.00000000e+00, 2.0000000000, 10.0000000000, 0.0162357132
        3716, 6.62127295e-02, 4.53281697e-04, 0.00000000e+00, 0.00000000e+00, 0.00000000e+00, -3.69371347e-02, -9.91249253e-04, 6.62068609e-02, 0.00000000e+00, 1.46074130e+02, -7.25523696e+00, -7.24842054e+00, -7.53485583e+00, -6.69958187e+00, 0.00000000e+00, 2.0000000000, 10.0000000000, 0.0164772153
        3717, 6.62142863e-02, 4.53191548e-04, 0.00000000e+00, 0.00000000e+00, 0.00000000e+00, -3.69374111e-02, -9.91373343e-04, 6.62084154e-02, 0.00000000e+00, 1.46106622e+02, -7.29213208e+00, -7.30782514e+00, -7.59001527e+00, -6.74385406e+00, 0.00000000e+00, 2.0000000000, 10.0000000000, 0.0167220632
        3718, 6.62157584e-02, 4.53092557e-04, 0.00000000e+00, 0.00000000e+00, 0.00000000e+00, -3.69377058e-02, -9.91504423e-04, 6.62098850e-02, 0.00000000e+00, 1.46141792e+02, -7.33122263e+00, -7.37567059e+00, -7.65081903e+00, -6.79093443e+00, 0.00000000e+00, 2.0000000000, 10.0000000000, 0.0169878801
        3719, 6.62171182e-02, 4.52988753e-04, 0.00000000e+00, 0.00000000e+00, 0.00000000e+00, -3.69380132e-02, -9.91637867e-04, 6.62112422e-02, 0.00000000e+00, 1.46178283e+02, -7.36892070e+00, -7.44623884e+00, -7.71066868e+00, -6.83580463e+00, 0.00000000e+00, 2.0000000000, 10.0000000000, 0.0172300975
        3720, 6.62182996e-02, 4.52880034e-04, 0.00000000e+00, 0.00000000e+00, 0.00000000e+00, -3.69383347e-02, -9.91772331e-04, 6.62124209e-02, 0.00000000e+00, 1.46215983e+02, -7.39585778e+00, -7.49918509e+00, -7.75085821e+00, -6.86567498e+00, 0.00000000e+00, 2.0000000000, 10.0000000000, 0.0174662471
        3721, 6.62192405e-02, 4.52756343e-04, 0.00000000e+00, 0.00000000e+00, 0.00000000e+00, -3.69386842e-02, -9.91916520e-04, 6.62133590e-02, 0.00000000e+00, 1.46258007e+02, -7.39996711e+00, -7.50767627e+00, -7.74900497e+00, -6.86559324e+00, 0.00000000e+00, 2.0000000000, 10.0000000000, 0.0177036166
        3722, 6.62199474e-02, 4.52623074e-04, 0.00000000e+00, 0.00000000e+00, 0.00000000e+00, -3.69390662e-02, -9.92065177e-04, 6.62140627e-02, 0.00000000e+00, 1.46302633e+02, -7.38580819e+00, -7.48580178e+00, -7.71748927e+00, -6.84423102e+00, 0.00000000e+00, 2.0000000000, 10.0000000000, 0.0179469307
        3723, 6.62204661e-02, 4.52495156e-04, 0.00000000e+00, 0.00000000e+00, 0.00000000e+00, -3.69394687e-02, -9.92204381e-04, 6.62145786e-02, 0.00000000e+00, 1.46345138e+02, -7.36930033e+00, -7.46391932e+00, -7.68654510e+00, -6.82243160e+00, 0.00000000e+00, 2.0000000000, 10.0000000000, 0.0182639798
        3724, 6.62208386e-02, 4.52375587e-04, 0.00000000e+00, 0.00000000e+00, 0.00000000e+00, -3.69398776e-02, -9.92332048e-04, 6.62149484e-02, 0.00000000e+00, 1.46384643e+02, -7.35840049e+00, -7.45015626e+00, -7.66726501e+00, -6.80861454e+00, 0.00000000e+00, 2.0000000000, 10.0000000000, 0.0185033162
        3725, 6.62211106e-02, 4.52263280e-04, 0.00000000e+00, 0.00000000e+00, 0.00000000e+00, -3.69402690e-02, -9.92450262e-04, 6.62152179e-02, 0.00000000e+00, 1.46421595e+02, -7.35378403e+00, -7.44199752e+00, -7.65693925e+00, -6.80233961e+00, 0.00000000e+00, 2.0000000000, 10.0000000000, 0.0188346306
        3726, 6.62213263e-02, 4.52155784e-04, 0.00000000e+00, 0.00000000e+00, 0.00000000e+00, -3.69406268e-02, -9.92562437e-04, 6.62154312e-02, 0.00000000e+00, 1.46456882e+02, -7.35315795e+00, -7.43756425e+00, -7.65129404e+00, -6.80066493e+00, 0.00000000e+00, 2.0000000000, 10.0000000000, 0.0190708160
        3727, 6.62215134e-02, 4.52054231e-04, 0.00000000e+00, 0.00000000e+00, 0.00000000e+00, -3.69409477e-02, -9.92668047e-04, 6.62156160e-02, 0.00000000e+00, 1.46490197e+02, -7.35750589e+00, -7.44070274e+00, -7.65279218e+00, -6.80516014e+00, 0.00000000e+00, 2.0000000000, 10.0000000000, 0.0193148653
        3728, 6.62216953e-02, 4.51962365e-04, 0.00000000e+00, 0.00000000e+00, 0.00000000e+00, -3.69412256e-02, -9.92763860e-04, 6.62157958e-02, 0.00000000e+00, 1.46520375e+02, -7.36686070e+00, -7.45273749e+00, -7.66185680e+00, -6.81595545e+00, 0.00000000e+00, 2.0000000000, 10.0000000000, 0.0195810000
        3729, 6.62218808e-02, 4.51881088e-04, 0.00000000e+00, 0.00000000e+00, 0.00000000e+00, -3.69414622e-02, -9.92849164e-04, 6.62159795e-02, 0.00000000e+00, 1.46547140e+02, -7.37798218e+00, -7.46890392e+00, -7.67419454e+00, -6.82886272e+00, 0.00000000e+00, 2.0000000000, 10.0000000000, 0.0198200146
        3730, 6.62220596e-02, 4.51809581e-04, 0.00000000e+00, 0.00000000e+00, 0.00000000e+00, -3.69416689e-02, -9.92924554e-04, 6.62161567e-02, 0.00000000e+00, 1.46570729e+02, -7.38939398e+00, -7.48660887e+00, -7.68787687e+00, -6.84201469e+00, 0.00000000e+00, 2.0000000000, 10.0000000000, 0.0200572650
        3731, 6.62222228e-02, 4.51747817e-04, 0.00000000e+00, 0.00000000e+00, 0.00000000e+00, -3.69418532e-02, -9.92989863e-04, 6.62163185e-02, 0.00000000e+00, 1.46591130e+02, -7.39964967e+00, -7.50295732e+00, -7.70029196e+00, -6.85358792e+00, 0.00000000e+00, 2.0000000000, 10.0000000000, 0.0203123132
        3732, 6.62223664e-02, 4.51695993e-04, 0.00000000e+00, 0.00000000e+00, 0.00000000e+00, -3.69420191e-02, -9.93044807e-04, 6.62164609e-02, 0.00000000e+00, 1.46608266e+02, -7.40767948e+00, -7.51545203e+00, -7.70940979e+00, -6.86221905e+00, 0.00000000e+00, 2.0000000000, 10.0000000000, 0.0205520988
        3733, 6.62224872e-02, 4.51654335e-04, 0.00000000e+00, 0.00000000e+00, 0.00000000e+00, -3.69421696e-02, -9.93089091e-04, 6.62165808e-02, 0.00000000e+00, 1.46622056e+02, -7.41433808e+00, -7.52542708e+00, -7.71662133e+00, -6.86911644e+00, 0.00000000e+00, 2.0000000000, 10.0000000000, 0.0207958817
        3734, 6.62225869e-02, 4.51623812e-04, 0.00000000e+00, 0.00000000e+00, 0.00000000e+00, -3.69423050e-02, -9.93121784e-04, 6.62166799e-02, 0.00000000e+00, 1.46632186e+02, -7.42058038e+00, -7.53460598e+00, -7.72353648e+00, -6.87554648e+00, 0.00000000e+00, 2.0000000000, 10.0000000000, 0.0210368633
        3735, 6.62226718e-02, 4.51605365e-04, 0.00000000e+00, 0.00000000e+00, 0.00000000e+00, -3.69424235e-02, -9.93142076e-04, 6.62167643e-02, 0.00000000e+00, 1.46638364e+02, -7.42695179e+00, -7.54375166e+00, -7.73092493e+00, -6.88213504e+00, 0.00000000e+00, 2.0000000000, 10.0000000000, 0.0212701162
        3736, 6.62227483e-02, 4.51598940e-04, 0.00000000e+00, 0.00000000e+00, 0.00000000e+00, -3.69425238e-02, -9.93150170e-04, 6.62168407e-02, 0.00000000e+00, 1.46640620e+02, -7.43366383e+00, -7.55302272e+00, -7.73893169e+00, -6.88907601e+00, 0.00000000e+00, 2.0000000000, 10.0000000000, 0.0215084990
        3737, 6.62228218e-02, 4.51603256e-04, 0.00000000e+00, 0.00000000e+00, 0.00000000e+00, -3.69426065e-02, -9.93147457e-04, 6.62169142e-02, 0.00000000e+00, 1.46639381e+02, -7.44080795e+00, -7.56260200e+00, -7.74755254e+00, -6.89646454e+00, 0.00000000e+00, 2.0000000000, 10.0000000000, 0.0217468500
        3738, 6.62228944e-02, 4.51615991e-04, 0.00000000e+00, 0.00000000e+00, 0.00000000e+00, -3.69426739e-02, -9.93136310e-04, 6.62169871e-02, 0.00000000e+00, 1.46635407e+02, -7.44850059e+00, -7.57295632e+00, -7.75689056e+00, -6.90447173e+00, 0.00000000e+00, 2.0000000000, 10.0000000000, 0.0220419963
        3739, 6.62229661e-02, 4.51634200e-04, 0.00000000e+00, 0.00000000e+00, 0.00000000e+00, -3.69427296e-02, -9.93119669e-04, 6.62170592e-02, 0.00000000e+00, 1.46629653e+02, -7.45688047e+00, -7.58466096e+00, -7.76712605e+00, -6.91330487e+00, 0.00000000e+00, 2.0000000000, 10.0000000000, 0.0223079999
        3740, 6.62230349e-02, 4.51654815e-04, 0.00000000e+00, 0.00000000e+00, 0.00000000e+00, -3.69427774e-02, -9.93100560e-04, 6.62171284e-02, 0.00000000e+00, 1.46623113e+02, -7.46610662e+00, -7.59823566e+00, -7.77848757e+00, -6.92317954e+00, 0.00000000e+00, 2.0000000000, 10.0000000000, 0.0227014661
        3741, 6.62230982e-02, 4.51675028e-04, 0.00000000e+00, 0.00000000e+00, 0.00000000e+00, -3.69428208e-02, -9.93081732e-04, 6.62171921e-02, 0.00000000e+00, 1.46616691e+02, -7.47636133e+00, -7.61414752e+00, -7.79125640e+00, -6.93432250e+00, 0.00000000e+00, 2.0000000000, 10.0000000000, 0.0229360978
        3742, 6.62231533e-02, 4.51692541e-04, 0.00000000e+00, 0.00000000e+00, 0.00000000e+00, -3.69428623e-02, -9.93065425e-04, 6.62172476e-02, 0.00000000e+00, 1.46611129e+02, -7.48786066e+00, -7.63289040e+00, -7.80578279e+00, -6.94699134e+00, 0.00000000e+00, 2.0000000000, 10.0000000000, 0.0231759310
        3743, 6.62231978e-02, 4.51705753e-04, 0.00000000e+00, 0.00000000e+00, 0.00000000e+00, -3.69429040e-02, -9.93053187e-04, 6.62172924e-02, 0.00000000e+00, 1.46606939e+02, -7.50080760e+00, -7.65495731e+00, -7.82240719e+00, -6.96141735e+00, 0.00000000e+00, 2.0000000000, 10.0000000000, 0.0234291474
        3744, 6.62232300e-02, 4.51713848e-04, 0.00000000e+00, 0.00000000e+00, 0.00000000e+00, -3.69429471e-02, -9.93045797e-04, 6.62173247e-02, 0.00000000e+00, 1.46604383e+02, -7.51534425e+00, -7.68076833e+00, -7.84135938e+00, -6.97774561e+00, 0.00000000e+00, 2.0000000000, 10.0000000000, 0.0236726483
        3745, 6.62232485e-02, 4.51716721e-04, 0.00000000e+00, 0.00000000e+00, 0.00000000e+00, -3.69429923e-02, -9.93043329e-04, 6.62173433e-02, 0.00000000e+00, 1.46603492e+02, -7.53152821e+00, -7.71063834e+00, -7.86269630e+00, -6.99600961e+00, 0.00000000e+00, 2.0000000000, 10.0000000000, 0.0239133795
        3746, 6.62232521e-02, 4.51714815e-04, 0.00000000e+00, 0.00000000e+00, 0.00000000e+00, -3.69430402e-02, -9.93045313e-04, 6.62173469e-02, 0.00000000e+00, 1.46604118e+02, -7.54934075e+00, -7.74481797e+00, -7.88629973e+00, -7.01614910e+00, 0.00000000e+00, 2.0000000000, 10.0000000000, 0.0241479993
        3747, 6.62232394e-02, 4.51708927e-04, 0.00000000e+00, 0.00000000e+00, 0.00000000e+00, -3.69430913e-02, -9.93050921e-04, 6.62173340e-02, 0.00000000e+00, 1.46606001e+02, -7.56870239e+00, -7.78355675e+00, -7.91189461e+00, -7.03803673e+00, 0.00000000e+00, 2.0000000000, 10.0000000000, 0.0243858655
        3748, 6.62232081e-02, 4.51700019e-04, 0.00000000e+00, 0.00000000e+00, 0.00000000e+00, -3.69431463e-02, -9.93059145e-04, 6.62173026e-02, 0.00000000e+00, 1.46608823e+02, -7.58946161e+00, -7.82709306e+00, -7.93903028e+00, -7.06146593e+00, 0.00000000e+00, 2.0000000000, 10.0000000000, 0.0246316632
        3749, 6.62231556e-02, 4.51689058e-04, 0.00000000e+00, 0.00000000e+00, 0.00000000e+00, -3.69432061e-02, -9.93068957e-04, 6.62172498e-02, 0.00000000e+00, 1.46612264e+02, -7.61133587e+00, -7.87547799e+00, -7.96698803e+00, -7.08607592e+00, 0.00000000e+00, 2.0000000000, 10.0000000000, 0.0248695493
        3750, 6.62230786e-02, 4.51676886e-04, 0.00000000e+00, 0.00000000e+00, 0.00000000e+00, -3.69432714e-02, -9.93079448e-04, 6.62171726e-02, 0.00000000e+00, 1.46616045e+02, -7.63377602e+00, -7.92800573e+00, -7.99455762e+00, -7.11117893e+00, 0.00000000e+00, 2.0000000000, 10.0000000000, 0.0251085480