# vtk DataFile Version 3.0
vtk output
ASCII
DATASET UNSTRUCTURED_GRID
POINTS 5233 float
9.997500e-01	-3.633244e-05	0.0	9.990000e-01	-1.454730e-04	0.0	9.977600e-01	-3.275151e-04	0.0	9.960200e-01	-5.899691e-04	0.0	9.937800e-01	-9.472467e-04	0.0	9.910500e-01	-1.422518e-03	0.0	9.878400e-01	-2.046480e-03	0.0	9.841300e-01	-2.855575e-03	0.0	9.799500e-01	-3.862199e-03	0.0	9.752800e-01	-5.063534e-03	0.0	9.701500e-01	-6.412673e-03	0.0	9.645400e-01	-7.851000e-03	0.0	9.584700e-01	-9.302984e-03	0.0	9.519400e-01	-1.071312e-02	0.0	9.449600e-01	-1.205335e-02	0.0	9.375400e-01	-1.332809e-02	0.0	9.296900e-01	-1.456466e-02	0.0	9.214000e-01	-1.580142e-02	0.0	9.127000e-01	-1.706564e-02	0.0	9.035800e-01	-1.837838e-02	0.0	8.940600e-01	-1.974327e-02	0.0	8.841500e-01	-2.115566e-02	0.0	8.738500e-01	-2.260732e-02	0.0	8.631800e-01	-2.408614e-02	0.0	8.521600e-01	-2.558143e-02	0.0	8.407700e-01	-2.709004e-02	0.0	8.290500e-01	-2.860275e-02	0.0	8.170100e-01	-3.011570e-02	0.0	8.046400e-01	-3.162809e-02	0.0	7.919700e-01	-3.313427e-02	0.0	7.790100e-01	-3.463097e-02	0.0	7.657800e-01	-3.611359e-02	0.0	7.522800e-01	-3.757955e-02	0.0	7.385200e-01	-3.902501e-02	0.0	7.245300e-01	-4.044409e-02	0.0	7.103200e-01	-4.183316e-02	0.0	6.958900e-01	-4.318965e-02	0.0	6.812700e-01	-4.450837e-02	0.0	6.664700e-01	-4.578631e-02	0.0	6.515000e-01	-4.702070e-02	0.0	6.363800e-01	-4.820823e-02	0.0	6.211300e-01	-4.934601e-02	0.0	6.057600e-01	-5.043218e-02	0.0	5.902800e-01	-5.146513e-02	0.0	5.747100e-01	-5.244282e-02	0.0	5.590600e-01	-5.336410e-02	0.0	5.433600e-01	-5.422691e-02	0.0	5.276100e-01	-5.503107e-02	0.0	5.118400e-01	-5.577497e-02	0.0	4.960500e-01	-5.645857e-02	0.0	4.802700e-01	-5.708056e-02	0.0	4.645100e-01	-5.764057e-02	0.0	4.487800e-01	-5.813815e-02	0.0	4.331100e-01	-5.857226e-02	0.0	4.175000e-01	-5.894268e-02	0.0	4.019700e-01	-5.924854e-02	0.0	3.865400e-01	-5.948899e-02	0.0	3.712300e-01	-5.966313e-02	0.0	3.560400e-01	-5.977020e-02	0.0	3.409900e-01	-5.980905e-02	0.0	3.261100e-01	-5.977858e-02	0.0	3.114000e-01	-5.967764e-02	0.0	2.968700e-01	-5.950488e-02	0.0	2.825500e-01	-5.925917e-02	0.0	2.684500e-01	-5.893925e-02	0.0	2.545700e-01	-5.854340e-02	0.0	2.409400e-01	-5.807074e-02	0.0	2.275700e-01	-5.751998e-02	0.0	2.144700e-01	-5.688980e-02	0.0	2.016600e-01	-5.617947e-02	0.0	1.891400e-01	-5.538731e-02	0.0	1.769300e-01	-5.451284e-02	0.0	1.650400e-01	-5.355518e-02	0.0	1.534900e-01	-5.251453e-02	0.0	1.422900e-01	-5.139055e-02	0.0	1.314400e-01	-5.018195e-02	0.0	1.209500e-01	-4.888841e-02	0.0	1.108500e-01	-4.751269e-02	0.0	1.011300e-01	-4.605256e-02	0.0	9.181000e-02	-4.451007e-02	0.0	8.290000e-02	-4.288632e-02	0.0	7.440000e-02	-4.118059e-02	0.0	6.633000e-02	-3.939638e-02	0.0	5.869000e-02	-3.753335e-02	0.0	5.149000e-02	-3.559347e-02	0.0	4.474000e-02	-3.357923e-02	0.0	3.844000e-02	-3.149028e-02	0.0	3.260000e-02	-2.932944e-02	0.0	2.723000e-02	-2.710038e-02	0.0	2.232000e-02	-2.479803e-02	0.0	1.790000e-02	-2.243641e-02	0.0	1.395000e-02	-2.000469e-02	0.0	1.049000e-02	-1.751419e-02	0.0	7.520000e-03	-1.496587e-02	0.0	5.040000e-03	-1.235999e-02	0.0	3.050000e-03	-9.695159e-03	0.0	1.560000e-03	-6.986892e-03	0.0	5.600000e-04	-4.214376e-03	0.0	6.000000e-05	-1.385834e-03	0.0	0.000000e+00	0.000000e+00	0.0	6.000000e-05	1.265582e-03	0.0	5.600000e-04	3.633077e-03	0.0	1.560000e-03	5.803939e-03	0.0	3.050000e-03	7.829078e-03	0.0	5.040000e-03	9.753211e-03	0.0	7.520000e-03	1.158386e-02	0.0	1.049000e-02	1.333593e-02	0.0	1.395000e-02	1.501988e-02	0.0	1.790000e-02	1.664360e-02	0.0	2.232000e-02	1.820672e-02	0.0	2.723000e-02	1.972242e-02	0.0	3.260000e-02	2.118658e-02	0.0	3.844000e-02	2.260696e-02	0.0	4.474000e-02	2.398494e-02	0.0	5.149000e-02	2.532196e-02	0.0	5.869000e-02	2.662109e-02	0.0	6.633000e-02	2.788308e-02	0.0	7.440000e-02	2.910864e-02	0.0	8.290000e-02	3.029973e-02	0.0	9.181000e-02	3.145529e-02	0.0	1.011300e-01	3.257684e-02	0.0	1.108500e-01	3.366440e-02	0.0	1.209500e-01	3.471684e-02	0.0	1.314400e-01	3.573606e-02	0.0	1.422900e-01	3.671976e-02	0.0	1.534900e-01	3.766772e-02	0.0	1.650400e-01	3.858030e-02	0.0	1.769300e-01	3.945681e-02	0.0	1.891400e-01	4.029580e-02	0.0	2.016600e-01	4.109648e-02	0.0	2.144700e-01	4.185736e-02	0.0	2.275700e-01	4.257801e-02	0.0	2.409400e-01	4.325674e-02	0.0	2.545700e-01	4.389228e-02	0.0	2.684500e-01	4.448324e-02	0.0	2.825500e-01	4.502731e-02	0.0	2.968700e-01	4.552332e-02	0.0	3.114000e-01	4.596947e-02	0.0	3.261100e-01	4.636334e-02	0.0	3.409900e-01	4.670303e-02	0.0	3.560400e-01	4.698668e-02	0.0	3.712300e-01	4.721175e-02	0.0	3.865400e-01	4.737595e-02	0.0	4.019700e-01	4.747712e-02	0.0	4.175000e-01	4.751286e-02	0.0	4.331100e-01	4.748082e-02	0.0	4.487800e-01	4.737880e-02	0.0	4.645100e-01	4.720448e-02	0.0	4.802700e-01	4.695591e-02	0.0	4.960500e-01	4.663108e-02	0.0	5.118400e-01	4.622811e-02	0.0	5.276100e-01	4.574588e-02	0.0	5.433600e-01	4.518274e-02	0.0	5.590600e-01	4.453833e-02	0.0	5.747100e-01	4.381157e-02	0.0	5.902800e-01	4.300312e-02	0.0	6.057600e-01	4.211325e-02	0.0	6.211300e-01	4.114338e-02	0.0	6.363800e-01	4.009489e-02	0.0	6.515000e-01	3.896974e-02	0.0	6.664700e-01	3.777130e-02	0.0	6.812700e-01	3.650376e-02	0.0	6.958900e-01	3.517127e-02	0.0	7.103200e-01	3.377864e-02	0.0	7.245300e-01	3.233340e-02	0.0	7.385200e-01	3.084089e-02	0.0	7.522800e-01	2.930803e-02	0.0	7.657800e-01	2.774471e-02	0.0	7.790100e-01	2.615928e-02	0.0	7.919700e-01	2.455937e-02	0.0	8.046400e-01	2.295551e-02	0.0	8.170100e-01	2.135731e-02	0.0	8.290500e-01	1.977711e-02	0.0	8.407700e-01	1.822172e-02	0.0	8.521600e-01	1.669958e-02	0.0	8.631800e-01	1.522151e-02	0.0	8.738500e-01	1.378799e-02	0.0	8.841500e-01	1.240222e-02	0.0	8.940600e-01	1.106537e-02	0.0	9.035800e-01	9.775726e-03	0.0	9.127000e-01	8.535954e-03	0.0	9.214000e-01	7.356998e-03	0.0	9.296900e-01	6.255460e-03	0.0	9.375400e-01	5.262374e-03	0.0	9.449600e-01	4.406982e-03	0.0	9.519400e-01	3.714274e-03	0.0	9.584700e-01	3.190365e-03	0.0	9.645400e-01	2.814977e-03	0.0	9.701500e-01	2.543058e-03	0.0	9.752800e-01	2.318564e-03	0.0	9.799500e-01	2.089065e-03	0.0	9.841300e-01	1.824724e-03	0.0	9.878400e-01	1.518731e-03	0.0	9.910500e-01	1.189688e-03	0.0	9.937800e-01	8.628362e-04	0.0	9.960200e-01	5.665750e-04	0.0	9.977600e-01	3.231788e-04	0.0	9.990000e-01	1.450774e-04	0.0	9.997500e-01	3.632617e-05	0.0	1.000000e+00	0.000000e+00	0.0	1.984229e+01	2.506660e+00	0.0	1.937166e+01	4.973800e+00	0.0	1.859553e+01	7.362490e+00	0.0	1.752613e+01	9.635070e+00	0.0	1.618034e+01	1.175571e+01	0.0	1.457937e+01	1.369094e+01	0.0	1.274848e+01	1.541027e+01	0.0	1.071654e+01	1.688656e+01	0.0	8.515590e+00	1.809654e+01	0.0	6.180340e+00	1.902113e+01	0.0	3.747630e+00	1.964575e+01	0.0	1.255810e+00	1.996053e+01	0.0	-1.255810e+00	1.996053e+01	0.0	-3.747630e+00	1.964574e+01	0.0	-6.180340e+00	1.902113e+01	0.0	-8.515590e+00	1.809654e+01	0.0	-1.071654e+01	1.688656e+01	0.0	-1.274848e+01	1.541026e+01	0.0	-1.457937e+01	1.369094e+01	0.0	-1.618034e+01	1.175570e+01	0.0	-1.752613e+01	9.635070e+00	0.0	-1.859553e+01	7.362490e+00	0.0	-1.937166e+01	4.973800e+00	0.0	-1.984229e+01	2.506660e+00	0.0	-2.000000e+01	0.000000e+00	0.0	-1.984229e+01	-2.506670e+00	0.0	-1.937166e+01	-4.973800e+00	0.0	-1.859553e+01	-7.362490e+00	0.0	-1.752613e+01	-9.635080e+00	0.0	-1.618034e+01	-1.175571e+01	0.0	-1.457937e+01	-1.369094e+01	0.0	-1.274848e+01	-1.541027e+01	0.0	-1.071653e+01	-1.688656e+01	0.0	-8.515580e+00	-1.809654e+01	0.0	-6.180340e+00	-1.902113e+01	0.0	-3.747620e+00	-1.964575e+01	0.0	-1.255810e+00	-1.996053e+01	0.0	1.255810e+00	-1.996053e+01	0.0	3.747630e+00	-1.964574e+01	0.0	6.180340e+00	-1.902113e+01	0.0	8.515590e+00	-1.809654e+01	0.0	1.071654e+01	-1.688656e+01	0.0	1.274848e+01	-1.541026e+01	0.0	1.457937e+01	-1.369094e+01	0.0	1.618034e+01	-1.175570e+01	0.0	1.752614e+01	-9.635070e+00	0.0	1.859553e+01	-7.362490e+00	0.0	1.937166e+01	-4.973790e+00	0.0	1.984229e+01	-2.506660e+00	0.0	2.000000e+01	0.000000e+00	0.0	6.074029e-02	-4.539610e-02	0.0	6.601886e-01	-6.006456e-02	0.0	4.255559e-01	6.172131e-02	0.0	6.897646e-01	4.905998e-02	0.0	3.791238e-01	-7.363612e-02	0.0	9.994675e-01	-7.276034e-04	0.0	9.985545e-01	-1.331480e-03	0.0	7.738141e-01	-4.744200e-02	0.0	6.898604e-01	-5.719136e-02	0.0	-1.131944e-03	5.528606e-03	0.0	7.467808e-01	-5.085034e-02	0.0	5.833328e-01	5.749929e-02	0.0	9.928162e-01	-3.736795e-03	0.0	9.899362e-01	-4.745222e-03	0.0	5.989087e-01	5.656203e-02	0.0	7.187652e-01	-5.410690e-02	0.0	-1.471588e-03	6.010286e-04	0.0	9.865730e-01	-5.908286e-03	0.0	9.827334e-01	-7.229310e-03	0.0	-1.306963e-03	-6.485367e-03	0.0	6.451052e-01	-6.141467e-02	0.0	8.244832e-01	-4.033652e-02	0.0	7.997433e-01	-4.393472e-02	0.0	3.484835e-01	6.062502e-02	0.0	8.479035e-01	-3.670374e-02	0.0	2.473677e-01	5.613698e-02	0.0	8.699436e-01	-3.306057e-02	0.0	1.045954e-02	1.738633e-02	0.0	8.904974e-01	-2.946317e-02	0.0	7.702017e-02	-4.977387e-02	0.0	9.094926e-01	-2.596644e-02	0.0	-1.770835e-03	-3.212615e-03	0.0	9.424842e-01	-1.918625e-02	0.0	9.268492e-01	-2.257241e-02	0.0	1.794330e-02	-2.755423e-02	0.0	4.257419e-01	-7.306729e-02	0.0	8.591051e-01	-3.487801e-02	0.0	9.563370e-01	-1.568026e-02	0.0	9.784096e-01	-8.729796e-03	0.0	9.683312e-01	-1.208920e-02	0.0	1.582643e-01	-6.363341e-02	0.0	9.001968e-01	-2.770024e-02	0.0	7.604303e-01	-4.916204e-02	0.0	9.971361e-01	-2.087423e-03	0.0	5.990500e-01	-6.508519e-02	0.0	4.414444e-01	-7.271791e-02	0.0	5.363196e-01	-6.901639e-02	0.0	4.730158e-01	-7.178679e-02	0.0	5.046766e-01	-7.055110e-02	0.0	4.888343e-01	-7.120584e-02	0.0	1.249496e-01	-5.913244e-02	0.0	2.784023e-02	-3.304210e-02	0.0	3.945694e-01	-7.352806e-02	0.0	4.621616e-02	-4.069612e-02	0.0	4.101101e-01	-7.333878e-02	0.0	3.187157e-01	-7.324665e-02	0.0	3.486133e-01	-7.361164e-02	0.0	3.350413e-02	-3.565854e-02	0.0	2.895117e-01	-7.254392e-02	0.0	9.348866e-01	-2.088624e-02	0.0	1.468054e-01	-6.222391e-02	0.0	1.946448e-01	-6.728517e-02	0.0	8.579473e-02	-5.183077e-02	0.0	1.045867e-01	-5.567525e-02	0.0	5.678222e-01	-6.719862e-02	0.0	1.700669e-01	-6.494902e-02	0.0	6.145275e-01	-6.392429e-02	0.0	8.804148e-01	-3.125349e-02	0.0	2.266390e-02	-3.033900e-02	0.0	9.952219e-01	-2.870426e-03	0.0	6.731318e-03	-1.886197e-02	0.0	1.848819e-02	2.156392e-02	0.0	9.183793e-01	-2.425998e-02	0.0	9.49641
[...]
POINT_DATA 5233

SCALARS Conservative_1 float 1
LOOKUP_TABLE default
1.199842e+00	1.181632e+00	1.171227e+00	1.164810e+00	1.160260e+00	1.155814e+00	1.148941e+00	1.138025e+00	1.121832e+00	1.100450e+00	1.075119e+00	1.048452e+00	1.024822e+00	1.008234e+00	9.998257e-01	9.977511e-01	9.988544e-01	1.000294e+00	1.000315e+00	9.983173e-01	9.945214e-01	9.894866e-01	9.837996e-01	9.779333e-01	9.721658e-01	9.666076e-01	9.612495e-01	9.560441e-01	9.509264e-01	9.458646e-01	9.408428e-01	9.358168e-01	9.307525e-01	9.256667e-01	9.206110e-01	9.156342e-01	9.107554e-01	9.059792e-01	9.013172e-01	8.967863e-01	8.923864e-01	8.881283e-01	8.839945e-01	8.800023e-01	8.761669e-01	8.725398e-01	8.691094e-01	8.658110e-01	8.624970e-01	8.591587e-01	8.559992e-01	8.533746e-01	8.514031e-01	8.497988e-01	8.478928e-01	8.449269e-01	8.403784e-01	8.343627e-01	8.277382e-01	8.217783e-01	8.174060e-01	8.148393e-01	8.138119e-01	8.138854e-01	8.147426e-01	8.161790e-01	8.181425e-01	8.205475e-01	8.233073e-01	8.263102e-01	8.295791e-01	8.332816e-01	8.376669e-01	8.428002e-01	8.486014e-01	8.549233e-01	8.618331e-01	8.695117e-01	8.780165e-01	8.873868e-01	8.977351e-01	9.091205e-01	9.216958e-01	9.355795e-01	9.509630e-01	9.681251e-01	9.872953e-01	1.008834e+00	1.033227e+00	1.060789e+00	1.092051e+00	1.127472e+00	1.166890e+00	1.209827e+00	1.254563e+00	1.298060e+00	1.331735e+00	1.350883e+00	1.339623e+00	1.308548e+00	1.284721e+00	1.221932e+00	1.100831e+00	1.003551e+00	9.274335e-01	8.714126e-01	8.330818e-01	8.077741e-01	7.906852e-01	7.790716e-01	7.712334e-01	7.659958e-01	7.627947e-01	7.608872e-01	7.598950e-01	7.598124e-01	7.605091e-01	7.617466e-01	7.632014e-01	7.645416e-01	7.657780e-01	7.672341e-01	7.691736e-01	7.714509e-01	7.736649e-01	7.755809e-01	7.772866e-01	7.789290e-01	7.806131e-01	7.824112e-01	7.843802e-01	7.865047e-01	7.887126e-01	7.909048e-01	7.930409e-01	7.950989e-01	7.970708e-01	7.989147e-01	8.006391e-01	8.023758e-01	8.043924e-01	8.069298e-01	8.101073e-01	8.138626e-01	8.180275e-01	8.223716e-01	8.266553e-01	8.307794e-01	8.347957e-01	8.388978e-01	8.432261e-01	8.479284e-01	8.531397e-01	8.589588e-01	8.652733e-01	8.718343e-01	8.784879e-01	8.853016e-01	8.924643e-01	9.000152e-01	9.078912e-01	9.160041e-01	9.243094e-01	9.327971e-01	9.414361e-01	9.502123e-01	9.590755e-01	9.680085e-01	9.769372e-01	9.858644e-01	9.947070e-01	1.003384e+00	1.011834e+00	1.019971e+00	1.027749e+00	1.035146e+00	1.042209e+00	1.049117e+00	1.056132e+00	1.063643e+00	1.071948e+00	1.081146e+00	1.090853e+00	1.100204e+00	1.107944e+00	1.112735e+00	1.113482e+00	1.109818e+00	1.102508e+00	1.093723e+00	1.086557e+00	1.083993e+00	1.087884e+00	1.098117e+00	1.112728e+00	1.129932e+00	1.148429e+00	1.168612e+00	1.192707e+00	1.181130e+00	9.999766e-01	9.999701e-01	9.999538e-01	9.999303e-01	9.999066e-01	9.998790e-01	9.998399e-01	9.997854e-01	9.997234e-01	9.996718e-01	9.996376e-01	9.996490e-01	9.997029e-01	9.998126e-01	9.999068e-01	9.999827e-01	1.000024e+00	1.000050e+00	1.000064e+00	1.000070e+00	1.000073e+00	1.000074e+00	1.000074e+00	1.000076e+00	1.000077e+00	1.000080e+00	1.000085e+00	1.000091e+00	1.000101e+00	1.000114e+00	1.000128e+00	1.000149e+00	1.000168e+00	1.000194e+00	1.000211e+00	1.000221e+00	1.000222e+00	1.000208e+00	1.000197e+00	1.000185e+00	1.000179e+00	1.000164e+00	1.000147e+00	1.000127e+00	1.000104e+00	1.000077e+00	1.000059e+00	1.000045e+00	1.000013e+00	9.999797e-01	9.435203e-01	9.017398e-01	8.239052e-01	9.236932e-01	8.408309e-01	1.183081e+00	1.173604e+00	9.405170e-01	9.109506e-01	1.217628e+00	9.305318e-01	8.726845e-01	1.151804e+00	1.145085e+00	8.792842e-01	9.205781e-01	1.307895e+00	1.136118e+00	1.123746e+00	1.337692e+00	8.973223e-01	9.606371e-01	9.504663e-01	8.068669e-01	9.712199e-01	7.935640e-01	9.823436e-01	8.791688e-01	9.929775e-01	9.162873e-01	1.000429e+00	1.344706e+00	1.005935e+00	1.002827e+00	1.100021e+00	8.522208e-01	9.767375e-01	1.025270e+00	1.107479e+00	1.065604e+00	8.477410e-01	9.972983e-01	9.355444e-01	1.164198e+00	8.848181e-01	8.537083e-01	8.703682e-01	8.574954e-01	8.637349e-01	8.604238e-01	8.675350e-01	1.042453e+00	8.462685e-01	9.768144e-01	8.499850e-01	8.196039e-01	8.278756e-01	1.018096e+00	8.179658e-01	1.003445e+00	8.537342e-01	8.342380e-01	9.045473e-01	8.841647e-01	8.772012e-01	8.425075e-01	8.888660e-01	9.878612e-01	1.069670e+00	1.157719e+00	1.209128e+00	8.237643e-01	1.002175e+00	1.012641e+00	1.087690e+00	1.134795e+00	9.658601e-01	8.221213e-01	8.737042e-01	9.255200e-01	9.454746e-01	8.754145e-01	8.275282e-01	8.809215e-01	9.062908e-01	9.593143e-01	1.248725e+00	1.133584e+00	8.342818e-01	8.380799e-01	1.211166e+00	8.246206e-01	8.938727e-01	8.181238e-01	8.201376e-01	8.552855e-01	9.157148e-01	1.280125e+00	1.318488e+00	8.545292e-01	1.324744e+00	7.950018e-01	7.740090e-01	7.807487e-01	7.748223e-01	8.195314e-01	1.140159e+00	8.495790e-01	8.367356e-01	1.097215e+00	1.105952e+00	1.052477e+00	8.408277e-01	8.283406e-01	8.119729e-01	1.083807e+00	1.067221e+00	7.723452e-01	1.092408e+00	1.106729e+00	1.099211e+00	7.732382e-01	7.725504e-01	7.996867e-01	7.956604e-01	7.828784e-01	8.033473e-01	8.326296e-01	8.154825e-01	7.799998e-01	7.764154e-01	8.928443e-01	7.857775e-01	7.893829e-01	9.077476e-01	8.661773e-01	9.573346e-01	9.402781e-01	9.917903e-01	9.745987e-01	1.024169e+00	1.008492e+00	1.059628e+00	1.038652e+00	1.104367e+00	1.075351e+00	1.102383e+00	1.031551e+00	1.045568e+00	1.000233e+00	1.016478e+00	9.659621e-01	9.832366e-01	9.319101e-01	9.487590e-01	9.001159e-01	9.156258e-01	8.600535e-01	8.859387e-01	7.874785e-01	7.914473e-01	7.815039e-01	7.842723e-01	7.766713e-01	7.782780e-01	8.469897e-01	7.866187e-01	8.307580e-01	9.825869e-01	1.043687e+00	9.555131e-01	8.228050e-01	8.670879e-01	1.054539e+00	8.069644e-01	9.235927e-01	7.728044e-01	7.721126e-01	7.977032e-01	7.737958e-01	1.090189e+00	1.092241e+00	8.015784e-01	1.099239e+00	1.110308e+00	8.050410e-01	8.091064e-01	1.092045e+00	1.206470e+00	1.157920e+00	1.174441e+00	8.930272e-01	9.963189e-01	1.124331e+00	8.450605e-01	1.286687e+00	1.170249e+00	9.292264e-01	8.603554e-01	8.187101e-01	7.844631e-01	1.200159e+00	1.259941e+00	8.235827e-01	9.162023e-01	1.003144e+00	1.199555e+00	8.740395e-01	9.115504e-01	9.454073e-01	1.133434e+00	8.257152e-01	9.760567e-01	9.655215e-01	9.118417e-01	1.317281e+00	8.358851e-01	1.132598e+00	1.041574e+00	8.596755e-01	9.209368e-01	9.025737e-01	8.578756e-01	9.237943e-01	8.472667e-01	9.963544e-01	9.503056e-01	9.573016e-01	8.551093e-01	9.157638e-01	1.020775e+00	7.822961e-01	9.235800e-01	7.875675e-01	1.042058e+00	1.100507e+00	8.099069e-01	8.518198e-01	1.099753e+00	1.048861e+00	1.108260e+00	1.101009e+00	1.094523e+00	7.967419e-01	8.081273e-01	7.948074e-01	7.821829e-01	9.070159e-01	8.396801e-01	9.146079e-01	7.852597e-01	7.935442e-01	1.098108e+00	1.118950e+00	1.055726e+00	8.535578e-01	1.215366e+00	1.145781e+00	1.131554e+00	1.009948e+00	1.134259e+00	1.234065e+00	1.331116e+00	1.315242e+00	1.101949e+00	1.217663e+00	9.512435e-01	1.163086e+00	1.148642e+00	8.259097e-01	8.752624e-01	1.123110e+00	9.867324e-01	8.805491e-01	1.141737e+00	1.332427e+00	8.563810e-01	8.216726e-01	9.707368e-01	8.026669e-01	9.814238e-01	9.917924e-01	9.368799e-01	1.000174e+00	1.005459e+00	1.017315e+00	1.048165e+00	1.027374e+00	1.058806e+00	1.110089e+00	8.740111e-01	9.356295e-01	9.405368e-01	1.155439e+00	8.597706e-01	8.623859e-01	8.654882e-01	1.073944e+00	8.517075e-01	8.545999e-01	8.296401e-01	1.003658e+00	1.007745e+00	1.011187e+00	8.665375e-01	9.009366e-01	8.786616e-01	8.900174e-01	1.077062e+00	1.094566e+00	9.257451e-01	9.306826e-01	8.910853e-01	8.821434e-01	8.822775e-01	8.860608e-01	9.845338e-01	9.671142e-01	1.165197e+00	8.351578e-01	8.414365e-01	8.483485e-01	8.437896e-01	8.324627e-01	8.294358e-01	8.230280e-01	8.236238e-01	8.269152e-01	1.298624e+00	1.267571e+00	7.998119e-01	1.095809e+00	8.565441e-01	8.474109e-01	8.431909e-01	8.390036e-01	1.095716e+00	1.100253e+00	1.077466e+00	8.347655e-01	8.303580e-01	8.178752e-01	1.070065e+00	1.096374e+00	7.862007e-01	7.890940e-01	7.987247e-01	8.007003e-01	7.864080e-01	7.841590e-01	7.830626e-01	9.892372e-01	9.560598e-01	9.477896e-01	9.810199e-01	1.013224e+00	1.062761e+00	1.035155e+00	1.028071e+00	1.005467e+00	9.974446e-01	9.726934e-01	9.643650e-01	9.396106e-01	9.315257e-01	9.081441e-01	9.007773e-01	8.676487e-01	8.617674e-01	8.937716e-01	8.870635e-01	7.929824e-01	7.913697e-01	7.899680e-01	7.887456e-01	8.812495e-01	8.083894e-01	8.199057e-01	9.552916e-01	9.603747e-01	8.687483e-01	8.719737e-01	1.070563e+00	8.350971e-01	7.826442e-01	7.833920e-01	8.064005e-01	8.045774e-01	8.146536e-01	8.120061e-01	1.091176e+00	1.084672e+00	8.940754e-01	8.982737e-01	1.024753e+00	1.297465e+00	8.249186e-01	1.311683e+00	8.535451e-01	8.289194e-01	9.508050e-01	8.774474e-01	1.007284e+00	1.107250e+00	1.101186e+00	1.096668e+00	1.081867e+00	1.115910e+00	1.160539e+00	1.181449e+00	1.153184e+00	1.200931e+00	1.103628e+00	1.283502e+00	9.195499e-01	1.010702e+00	1.131621e+00	8.760814e-01	1.172942e+00	1.220839e+00	9.219723e-01	1.276011e+00	9.266452e-01	1.131148e+00	9.861507e-01	1.190636e+00	8.324465e-01	9.810134e-01	9.173622e-01	1.139511e+00	1.160604e+00	1.095960e+00	8.592252e-01	1.093357e+00	9.167297e-01	1.125916e+00	8.545774e-01	8.058259e-01	8.131776e-01	7.927772e-01	7.992679e-01	1.171561e+00	1.293364e+00	1.185384e+00	9.092945e-01	1.241111e+00	1.055092e+00	9.316017e-01	1.312293e+00	8.658638e-01	8.625726e-01	1.077675e+00	9.826155e-01	1.017971e+00	9.874581e-01	9.242767e-01	1.097467e+00	1.095730e+00	1.051917e+00	1.045300e+00	8.114125e-01	8.077493e-01	8.002222e-01	7.910725e-01	9.084051e-01	9.128338e-01	8.452880e-01	9.427405e-01	7.919216e-01	1.095966e+00	1.136204e+00	1.029670e+00	1.134836e+00	1.249593e+00	1.315109e+00	1.053268e+00	1.186202e+00	1.178467e+00	1.070326e+00	1.122786e+00	8.824987e-01	8.609772e-01	8.282211e-01	9.706395e-01	9.758169e-01	9.911480e-01	9.958467e-01	9.591272e-01	9.447886e-01	1.000105e+00	1.003895e+00	1.029539e+00	1.041107e+00	1.112268e+00	9.411678e-01	9.459992e-01	1.146022e+00	8.648190e-01	8.677687e-01	8.572270e-01	8.594603e-01	1.031129e+00	1.014900e+00	1.020888e+00	8.808389e-01	8.730008e-01	8.807717e-01	8.842765e-01	1.085541e+00	1.099670e+00	9.314290e-01	9.363460e-01	9.085220e-01	8.983104e-01	8.891323e-01	8.879543e-01	8.918110e-01	1.010993e+00	9.922105e-01	9.748628e-01	8.368564e-01	8.425487e-01	8.484608e-01	8.598513e-01	8.545438e-01	8.497324e-01	8.413031e-01	8.377288e-01	8.286880e-01	8.297131e-01	8.346649e-01	8.178617e-01	8.501104e-01	8.457477e-01	1.096509e+00	8.414797e-01	8.370945e-01	8.326119e-01	8.241975e-01	1.071912e+00	8.037286e-01	8.098075e-01	8.038969e-01	8.020336e-01	7.913519e-01	7.911814e-01	7.910252e-01	9.556123e-01	1.065267e+00	1.058531e+00	1.038647e+00	1.031944e+00	1.025126e+00	1.010581e+00	1.003071e+00	9.953304e-01	9.795931e-01	9.716156e-01	9.636124e-01	9.476719e-01	9.397687e-01	9.319804e-01	9.093573e-01	8.697679e-01	8.642628e-01	9.022827e-01	8.954967e-01	8.889351e-01	7.985405e-01	7.970053e-01	7.957239e-01	7.946258e-01	7.936922e-01	8.285901e-01	8.425461e-01	9.556602e-01	9.606215e-01	9.655791e-01	8.709579e-01	8.741770e-01	8.601965e-01	8.820143e-01	7.919785e-01	7.938151e-01	7.961616e-01	8.096330e-01	8.206917e-01	8.177304e-01	8.152068e-01	1.089507e+00	1.084408e+00	1.078428e+00	8.957816e-01	8.998782e-01	9.040804e-01	8.320924e-01	8.301601e-01	1.290031e+00	9.274230e-01	1.129322e+00	1.097646e+00	8.828322e-01	1.262157e+00	1.159487e+00	1.013041e+00	1.017979e+00	1.057045e+00	1.112646e+00	8.580573e-01	1.271333e+00	9.665312e-01	1.206325e+00	1.092474e+00	1.120587e+00	1.172474e+00	9.177040e-01	1.131123e+00	1.185410e+00	1.188072e+00	9.561462e-01	8.733074e-01	1.103861e+00	8.600259e-01	9.395897e-01	8.661225e-01	8.355084e-01	1.100990e+00	8.783326e-01	1.090411e+00	1.087394e+00	9.864363e-01	7.991191e-01	8.095828e-01	1.122167e+00	8.182706e-01	9.863874e-01	1.146667e+00	1.105951e+00	1.144095e+00	1.078640e+00	1.128199e+00	9.231120e-01	1.231589e+00	9.282285e-01	9.323252e-01	1.154271e+00	1.129998e+00	1.180614e+00	1.015372e+00	8.615701e-01	8.151848e-01	1.219768e+00	1.002942e+00	9.257563e-01	1.048587e+00	8.170194e-01	8.133603e-01	8.114388e-01	9.141813e-01	9.191859e-01	1.095691e+00	1.043110e+00	1.087134e+00	1.254762e+00	1.296887e+00	1.079743e+00	1.065688e+00	1.113138e+00	8.854882e-01	9.762671e-01	9.812610e-01	9.912700e-01	9.960139e-01	9.667887e-01	9.526457e-01	1.000444e+00	1.004719e+00	1.008857e+00	1.041448e+00	1.053051e+00	9.465460e-01	9.517794e-01	1.137282e+00	8.680171e-01	8.706866e-01	8.628430e-01	8.646370e-01	1.023918e+00	1.031594e+00	8.884391e-01	8.799695e-01	8.869150e-01	1.091125e+00	1.102782e+00	9.374524e-01	9.427324e-01	9.162235e-01	9.060875e-01	8.971158e-01	8.898836e-01	8.942646e-01	1.036929e+00	1.017448e+00	9.988781e-01	9.819953e-01	8.403105e-01	8.449524e-01	8.503481e-01	8.555685e-01	8.673264e-01	8.617890e-01	8.565881e-01	8.519237e-01	8.477401e-01	8.371629e-01	8.355948e-01	8.441013e-01	8.531813e-01	1.094611e+00	1.093729e+00	8.487916e-01	8.444078e-01	8.399354e-01	8.354867e-01	8.312745e-01	8.264844e-01	8.368653e-01	8.077557e-01	8.061236e-01	7.989216e-01	7.992430e-01	8.000274e-01	8.008024e-01	1.067170e+00	1.061065e+00	1.054899e+00	1.042237e+00	1.035913e+00	1.029568e+00	1.022109e+00	1.009140e+00	1.001091e+00	9.936657e-01	9.784788e-01	9.712363e-01	9.630827e-01	9.559230e-01	9.476831e-01	9.406946e-01	9.324999e-01	8.673168e-01	8.717963e-01	9.113203e-01	9.036413e-01	8.977570e-01	8.905482e-01	8.045387e-01	8.031773e-01	8.018519e-01	8.008328e-01	7.999379e-01	7.993467e-01	8.491085e-01	8.647346e-01	9.613601e-01	9.665314e-01	9.712930e-01	8.738515e-01	8.761760e-01	8.800843e-01	8.843106e-01	9.074003e-01	9.343577e-01	8.019403e-01	8.042739e-01	8.081246e-01	8.126247e-01	8.274917e-01	8.242560e-01	8.214778e-01	8.189375e-01	1.073059e+00	1.083349e+00	1.078589e+00	8.975150e-01	9.021325e-01	9.056267e-01	9.104521e-01	8.409370e-01	8.383856e-01	8.364939e-01	1.147944e+00	1.125312e+00	1.073699e+00	1.177461e+00	1.171199e+00	9.361136e-01	9.356737e-01	1.193475e+00	1.096503e+00	1.235413e+00	1.080795e+00	8.820860e-01	8.069511e-01	1.019156e+00	1.127602e+00	1.235260e+00	1.292509e+00	1.294545e+00	1.281723e+00	1.250920e+00	1.138760e+00	8.213317e-01	1.084578e+00	1.121568e+00	1.026445e+00	9.593371e-01	8.664216e-01	1.115893e+00	1.068751e+00	1.082087e+00	8.774048e-01	8.679567e-01	9.230599e-01	9.815848e-01	8.614905e-01	8.872324e-01	8.224947e-01	1.109640e+00	9.477799e-01	1.165187e+00	1.099775e+00	1.292738e+00	1.182401e+00	1.173248e+00	1.019602e+00	1.060906e+00	1.266869e+00	9.862964e-01	1.215169e+00	1.088086e+00	1.162418e+00	1.177071e+00	1.178085e+00	1.125313e+00	8.421735e-01	8.428339e-01	1.104088e+00	8.876789e-01	1.085460e+00	1.113514e+00	9.272759e-01	1.200516e+00	8.187443e-01	8.175661e-01	8.149967e-01	9.184856e-01	1.053752e+00	1.090463e+00	1.275432e+00	1.103483e+00	9.823609e-01	9.864852e-01	9.918747e-01	9.963104e-01	9.606181e-01	9.749091e-01	1.001449e+00	1.005450e+00	1.010405e+00	1.015487e+00	1.051996e+00	1.062683e+00	9.505489e-01	1.128610e+00	8.711112e-01	8.739558e-01	8.679014e-01	8.701564e-01	1.033895e+00	1.042125e+00	8.958134e-01	8.867409e-01	1.095054e+00	1.104760e+00	9.441008e-01	9.241357e-01	9.132597e-01	9.065671e-01	8.944202e-01	1.041950e+00	1.023305e+00	1.005456e+00	9.899164e-01	8.450796e-01	8.475331e-01	8.527523e-01	8.570965e-01	8.623335e-01	8.743291e-01	8.699196e-01	8.628912e-01	8.593989e-01	8.537252e-01	1.094062e+00	1.092131e+00	1.090255e+00	8.559037e-01	8.521914e-01	8.469622e-01	8.431739e-01	8.380628e-01	8.440009e-01	8.562336e-01	8.140261e-01	8.116945e-01	8.063502e-01	8.091680e-01	8.111829e-01	1.062866e+00	1.057444e+00	1.051378e+00	1.045553e+00	1.039347e+00	1.033413e+00	1.026584e+00	1.016706e+00	1.007316e+00	9.956446e-01	9.669333e-01	9.521734e-01	9.375102e-01	9.091326e-01	8.967784e-01	8.111114e-01	8.090253e-01	8.088132e-01	8.068873e-01	8.072568e-01	8.065355e-01	8.065218e-01	8.705873e-01	8.868529e-01	9.675192e-01	9.720038e-01	9.770587e-01	8.770400e-01	8.808720e-01	9.068754e-01	9.308360e-01	9.568757e-01	8.132033e-01	8.162383e-01	8.211742e-01	8.282663e-01	8.354504e-01	8.348523e-01	8.305520e-01	8.285626e-01	8.254649e-01	1.078303e+00	1.073056e+00	9.020275e-01	9.100505e-01	8.512051e-01	8.467431e-01	8.453853e-01	8.424824e-01	1.166105e+00	1.154353e+00	1.181120e+00	1.255218e+00	1.180688e+00	1.088619e+00	1.106534e+00	1.183722e+00	1.086447e+00	1.141076e+00	1.105965e+00	1.255467e+00	1.081583e+00	1.161473e+00	8.278667e-01	1.177729e+00	1.061368e+00	1.152697e+00	1.141321e+00	1.079420e+00	8.885550e-01	1.101699e+00	8.494405e-01	1.035088e+00	1.024694e+00	9.103308e-01	9.436403e-01	8.859264e-01	1.231297e+00	8.725460e-01	9.696427e-01	9.567657e-01	8.165866e-01	1.094248e+00	1.066143e+00	1.213178e+00	1.031406e+00	1.070041e+00	1.170725e+00	1.097573e+00	1.291534e+00	1.245100e+00	1.113770e+00	9.438916e-01	8.706562e-01	8.615120e-01	1.112108e+00	1.173873e+00	1.129497e+00	1.275412e+00	1.176746e+00	1.063979e+00	1.217015e+00	1.199814e+00	8.881015e-01	1.101359e+00	1.084004e+00	1.080409e+00	8.787231e-01	8.239742e-01	8.203835e-01	9.356044e-01	1.092241e+00	1.123153e+00	1.122041e+00	9.899450e-01	9.993285e-01	9.825205e-01	1.008919e+00	1.017391e+00	1.060589e+00	1.121024e+00	8.758841e-01	1.043302e+00	1.051454e+00	8.990548e-01	1.097474e+00	9.511169e-01	9.585166e-01	9.274483e-01	9.140036e-01	8.951748e-01	1.046330e+00	1.027725e+00	1.010910e+00	9.993275e-01	8.533643e-01	8.612472e-01	8.687982e-01	8.735244e-01	8.632095e-01	1.091472e+00	1.088991e+00	8.522996e-01	8.435329e-01	8.759036e-01	8.175262e-01	8.219079e-01	1.003419e+00	1.056202e+00	1.044993e+00	1.033472e+00	1.022902e+00	1.013524e+00	9.910959e-01	9.774372e-01	9.633690e-01	9.492567e-01	9.351356e-01	9.212351e-01	9.085817e-01	8.979779e-01	8.154626e-01	8.141472e-01	8.143611e-01	8.131001e-01	8.151891e-01	8.921891e-01	9.091214e-01	9.670270e-01	9.751204e-01	9.830669e-01	8.798470e-01	8.835544e-01	9.283413e-01	9.514799e-01	9.766629e-01	1.002803e+00	8.257694e-01	8.294221e-01	8.350429e-01	8.436083e-01	8.545483e-01	8.606052e-01	8.364785e-01	8.324378e-01	1.077882e+00	1.073386e+00	9.025724e-01	9.184481e-01	9.269399e-01	8.553855e-01	8.504676e-01	1.117368e+00	1.166039e+00	1.161203e+00	1.136230e+00	1.025129e+00	1.108356e+00	1.173801e+00	1.135650e+00	1.185620e+00	1.135108e+00	1.147633e+00	1.126804e+00	1.092839e+00	1.193876e+00	1.235759e+00	1.088388e+00	9.513532e-01	8.356606e-01	1.125021e+00	1.017014e+00	1.099296e+00	8.875620e-01	1.066995e+00	1.169554e+00	8.756217e-01	1.043513e+00	9.187289e-01	8.963912e-01	1.083532e+00	1.091458e+00	1.081989e+00	1.066782e+00	1.171386e+00	1.098730e+00	1.103063e+00	1.082875e+00	8.277362e-01	8.987845e-01	9.353323e-01	9.893221e-01	1.150498e+00	1.157243e+00	1.272190e+00	1.075355e+00	1.085484e+00	1.175649e+00	1.099210e+00	1.169327e+00	1.152224e+00	8.906261e-01	1.225010e+00	9.795290e-01	9.642031e-01	1.094850e+00	1.233833e+00	1.067193e+00	1.106582e+00	9.436584e-01	1.254469e+00	1.176126e+00	1.004868e+00	1.213173e+00	1.200199e+00	8.804931e-01	1.117484e+00	1.079406e+00	8.891964e-01	8.314242e-01	9.090642e-01	1.118653e+00	1.143741e+00	9.978751e-01	1.007444e+00	1.025302e+00	1.034229e+00	1.114293e+00	8.792371e-01	1.051203e+00	1.058971e+00	8.698406e-01	9.746699e-01	9.826157e-01	9.586117e-01	9.495436e-01	9.342526e-01	9.194379e-01	1.048781e+00	8.579338e-01	8.627508e-01	9.050289e-01	8.911226e-01	9.269057e-01	1.091461e+00	8.717820e-01	8.626041e-01	8.326438e-01	1.059597e+00	1.049673e+00	1.010007e+00	1.039028e+00	1.028740e+00	1.019329e+00	9.993353e-01	9.870155e-01	9.738238e-01	9.603711e-01	9.467972e-01	9.332008e-01	9.203605e-01	8.248334e-01	8.229960e-01	8.221044e-01	8.221419e-01	8.223460e-01	8.267735e-01	9.123471e-01	9.306442e-01	9.663959e-01	9.898495e-01	8.824221e-01	8.861209e-01	9.486648e-01	9.696230e-01	9.931983e-01	1.016734e+00	1.041325e+00	8.397750e-01	8.456391e-01	8.510506e-01	8.593392e-01	8.715228e-01	8.536408e-01	8.459623e-01	8.402862e-01	1.074633e+00	1.067910e+00	9.033270e-01	9.108745e-01	8.786702e-01	8.686073e-01	8.613684e-01	8.575102e-01	1.152313e+00	1.153008e+00	1.149712e+00	1.121104e+00	1.156334e+00	1.140358e+00	1.113872e+00	1.050440e+00	1.172807e+00	1.120709e+00	1.117953e+00	1.071715e+00	1.165999e+00	1.084811e+00	8.325318e-01	1.137633e+00	1.141622e+00	1.128229e+00	1.169441e+00	1.071227e+00	9.255715e-01	1.026737e+00	1.024853e+00	9.592596e-01	1.132833e+00	1.131978e+00	1.128168e+00	1.171853e+00	1.172216e+00	9.003770e-01	9.