# vtk DataFile Version 3.0
vtk output
ASCII
DATASET UNSTRUCTURED_GRID
POINTS 200 float
9.997500e-01	-3.633244e-05	0.0	9.990000e-01	-1.454730e-04	0.0	9.977600e-01	-3.275151e-04	0.0	9.960200e-01	-5.899691e-04	0.0	9.937800e-01	-9.472467e-04	0.0	9.910500e-01	-1.422518e-03	0.0	9.878400e-01	-2.046480e-03	0.0	9.841300e-01	-2.855575e-03	0.0	9.799500e-01	-3.862199e-03	0.0	9.752800e-01	-5.063534e-03	0.0	9.701500e-01	-6.412673e-03	0.0	9.645400e-01	-7.851000e-03	0.0	9.584700e-01	-9.302984e-03	0.0	9.519400e-01	-1.071312e-02	0.0	9.449600e-01	-1.205335e-02	0.0	9.375400e-01	-1.332809e-02	0.0	9.296900e-01	-1.456466e-02	0.0	9.214000e-01	-1.580142e-02	0.0	9.127000e-01	-1.706564e-02	0.0	9.035800e-01	-1.837838e-02	0.0	8.940600e-01	-1.974327e-02	0.0	8.841500e-01	-2.115566e-02	0.0	8.738500e-01	-2.260732e-02	0.0	8.631800e-01	-2.408614e-02	0.0	8.521600e-01	-2.558143e-02	0.0	8.407700e-01	-2.709004e-02	0.0	8.290500e-01	-2.860275e-02	0.0	8.170100e-01	-3.011570e-02	0.0	8.046400e-01	-3.162809e-02	0.0	7.919700e-01	-3.313427e-02	0.0	7.790100e-01	-3.463097e-02	0.0	7.657800e-01	-3.611359e-02	0.0	7.522800e-01	-3.757955e-02	0.0	7.385200e-01	-3.902501e-02	0.0	7.245300e-01	-4.044409e-02	0.0	7.103200e-01	-4.183316e-02	0.0	6.958900e-01	-4.318965e-02	0.0	6.812700e-01	-4.450837e-02	0.0	6.664700e-01	-4.578631e-02	0.0	6.515000e-01	-4.702070e-02	0.0	6.363800e-01	-4.820823e-02	0.0	6.211300e-01	-4.934601e-02	0.0	6.057600e-01	-5.043218e-02	0.0	5.902800e-01	-5.146513e-02	0.0	5.747100e-01	-5.244282e-02	0.0	5.590600e-01	-5.336410e-02	0.0	5.433600e-01	-5.422691e-02	0.0	5.276100e-01	-5.503107e-02	0.0	5.118400e-01	-5.577497e-02	0.0	4.960500e-01	-5.645857e-02	0.0	4.802700e-01	-5.708056e-02	0.0	4.645100e-01	-5.764057e-02	0.0	4.487800e-01	-5.813815e-02	0.0	4.331100e-01	-5.857226e-02	0.0	4.175000e-01	-5.894268e-02	0.0	4.019700e-01	-5.924854e-02	0.0	3.865400e-01	-5.948899e-02	0.0	3.712300e-01	-5.966313e-02	0.0	3.560400e-01	-5.977020e-02	0.0	3.409900e-01	-5.980905e-02	0.0	3.261100e-01	-5.977858e-02	0.0	3.114000e-01	-5.967764e-02	0.0	2.968700e-01	-5.950488e-02	0.0	2.825500e-01	-5.925917e-02	0.0	2.684500e-01	-5.893925e-02	0.0	2.545700e-01	-5.854340e-02	0.0	2.409400e-01	-5.807074e-02	0.0	2.275700e-01	-5.751998e-02	0.0	2.144700e-01	-5.688980e-02	0.0	2.016600e-01	-5.617947e-02	0.0	1.891400e-01	-5.538731e-02	0.0	1.769300e-01	-5.451284e-02	0.0	1.650400e-01	-5.355518e-02	0.0	1.534900e-01	-5.251453e-02	0.0	1.422900e-01	-5.139055e-02	0.0	1.314400e-01	-5.018195e-02	0.0	1.209500e-01	-4.888841e-02	0.0	1.108500e-01	-4.751269e-02	0.0	1.011300e-01	-4.605256e-02	0.0	9.181000e-02	-4.451007e-02	0.0	8.290000e-02	-4.288632e-02	0.0	7.440000e-02	-4.118059e-02	0.0	6.633000e-02	-3.939638e-02	0.0	5.869000e-02	-3.753335e-02	0.0	5.149000e-02	-3.559347e-02	0.0	4.474000e-02	-3.357923e-02	0.0	3.844000e-02	-3.149028e-02	0.0	3.260000e-02	-2.932944e-02	0.0	2.723000e-02	-2.710038e-02	0.0	2.232000e-02	-2.479803e-02	0.0	1.790000e-02	-2.243641e-02	0.0	1.395000e-02	-2.000469e-02	0.0	1.049000e-02	-1.751419e-02	0.0	7.520000e-03	-1.496587e-02	0.0	5.040000e-03	-1.235999e-02	0.0	3.050000e-03	-9.695159e-03	0.0	1.560000e-03	-6.986892e-03	0.0	5.600000e-04	-4.214376e-03	0.0	6.000000e-05	-1.385834e-03	0.0	0.000000e+00	0.000000e+00	0.0	6.000000e-05	1.265582e-03	0.0	5.600000e-04	3.633077e-03	0.0	1.560000e-03	5.803939e-03	0.0	3.050000e-03	7.829078e-03	0.0	5.040000e-03	9.753211e-03	0.0	7.520000e-03	1.158386e-02	0.0	1.049000e-02	1.333593e-02	0.0	1.395000e-02	1.501988e-02	0.0	1.790000e-02	1.664360e-02	0.0	2.232000e-02	1.820672e-02	0.0	2.723000e-02	1.972242e-02	0.0	3.260000e-02	2.118658e-02	0.0	3.844000e-02	2.260696e-02	0.0	4.474000e-02	2.398494e-02	0.0	5.149000e-02	2.532196e-02	0.0	5.869000e-02	2.662109e-02	0.0	6.633000e-02	2.788308e-02	0.0	7.440000e-02	2.910864e-02	0.0	8.290000e-02	3.029973e-02	0.0	9.181000e-02	3.145529e-02	0.0	1.011300e-01	3.257684e-02	0.0	1.108500e-01	3.366440e-02	0.0	1.209500e-01	3.471684e-02	0.0	1.314400e-01	3.573606e-02	0.0	1.422900e-01	3.671976e-02	0.0	1.534900e-01	3.766772e-02	0.0	1.650400e-01	3.858030e-02	0.0	1.769300e-01	3.945681e-02	0.0	1.891400e-01	4.029580e-02	0.0	2.016600e-01	4.109648e-02	0.0	2.144700e-01	4.185736e-02	0.0	2.275700e-01	4.257801e-02	0.0	2.409400e-01	4.325674e-02	0.0	2.545700e-01	4.389228e-02	0.0	2.684500e-01	4.448324e-02	0.0	2.825500e-01	4.502731e-02	0.0	2.968700e-01	4.552332e-02	0.0	3.114000e-01	4.596947e-02	0.0	3.261100e-01	4.636334e-02	0.0	3.409900e-01	4.670303e-02	0.0	3.560400e-01	4.698668e-02	0.0	3.712300e-01	4.721175e-02	0.0	3.865400e-01	4.737595e-02	0.0	4.019700e-01	4.747712e-02	0.0	4.175000e-01	4.751286e-02	0.0	4.331100e-01	4.748082e-02	0.0	4.487800e-01	4.737880e-02	0.0	4.645100e-01	4.720448e-02	0.0	4.802700e-01	4.695591e-02	0.0	4.960500e-01	4.663108e-02	0.0	5.118400e-01	4.622811e-02	0.0	5.276100e-01	4.574588e-02	0.0	5.433600e-01	4.518274e-02	0.0	5.590600e-01	4.453833e-02	0.0	5.747100e-01	4.381157e-02	0.0	5.902800e-01	4.300312e-02	0.0	6.057600e-01	4.211325e-02	0.0	6.211300e-01	4.114338e-02	0.0	6.363800e-01	4.009489e-02	0.0	6.515000e-01	3.896974e-02	0.0	6.664700e-01	3.777130e-02	0.0	6.812700e-01	3.650376e-02	0.0	6.958900e-01	3.517127e-02	0.0	7.103200e-01	3.377864e-02	0.0	7.245300e-01	3.233340e-02	0.0	7.385200e-01	3.084089e-02	0.0	7.522800e-01	2.930803e-02	0.0	7.657800e-01	2.774471e-02	0.0	7.790100e-01	2.615928e-02	0.0	7.919700e-01	2.455937e-02	0.0	8.046400e-01	2.295551e-02	0.0	8.170100e-01	2.135731e-02	0.0	8.290500e-01	1.977711e-02	0.0	8.407700e-01	1.822172e-02	0.0	8.521600e-01	1.669958e-02	0.0	8.631800e-01	1.522151e-02	0.0	8.738500e-01	1.378799e-02	0.0	8.841500e-01	1.240222e-02	0.0	8.940600e-01	1.106537e-02	0.0	9.035800e-01	9.775726e-03	0.0	9.127000e-01	8.535954e-03	0.0	9.214000e-01	7.356998e-03	0.0	9.296900e-01	6.255460e-03	0.0	9.375400e-01	5.262374e-03	0.0	9.449600e-01	4.406982e-03	0.0	9.519400e-01	3.714274e-03	0.0	9.584700e-01	3.190365e-03	0.0	9.645400e-01	2.814977e-03	0.0	9.701500e-01	2.543058e-03	0.0	9.752800e-01	2.318564e-03	0.0	9.799500e-01	2.089065e-03	0.0	9.841300e-01	1.824724e-03	0.0	9.878400e-01	1.518731e-03	0.0	9.910500e-01	1.189688e-03	0.0	9.937800e-01	8.628362e-04	0.0	9.960200e-01	5.665750e-04	0.0	9.977600e-01	3.231788e-04	0.0	9.990000e-01	1.450774e-04	0.0	9.997500e-01	3.632617e-05	0.0	1.000000e+00	0.000000e+00	0.0	
CELLS 200	600
2	199	0	2	0	1	2	1	2	2	2	3	2	3	4	2	4	5	2	5	6	2	6	7	2	7	8	2	8	9	2	9	10	2	10	11	2	11	12	2	12	13	2	13	14	2	14	15	2	15	16	2	16	17	2	17	18	2	18	19	2	19	20	2	20	21	2	21	22	2	22	23	2	23	24	2	24	25	2	25	26	2	26	27	2	27	28	2	28	29	2	29	30	2	30	31	2	31	32	2	32	33	2	33	34	2	34	35	2	35	36	2	36	37	2	37	38	2	38	39	2	39	40	2	40	41	2	41	42	2	42	43	2	43	44	2	44	45	2	45	46	2	46	47	2	47	48	2	48	49	2	49	50	2	50	51	2	51	52	2	52	53	2	53	54	2	54	55	2	55	56	2	56	57	2	57	58	2	58	59	2	59	60	2	60	61	2	61	62	2	62	63	2	63	64	2	64	65	2	65	66	2	66	67	2	67	68	2	68	69	2	69	70	2	70	71	2	71	72	2	72	73	2	73	74	2	74	75	2	75	76	2	76	77	2	77	78	2	78	79	2	79	80	2	80	81	2	81	82	2	82	83	2	83	84	2	84	85	2	85	86	2	86	87	2	87	88	2	88	89	2	89	90	2	90	91	2	91	92	2	92	93	2	93	94	2	94	95	2	95	96	2	96	97	2	97	98	2	98	99	2	99	100	2	100	101	2	101	102	2	102	103	2	103	104	2	104	105	2	105	106	2	106	107	2	107	108	2	108	109	2	109	110	2	110	111	2	111	112	2	112	113	2	113	114	2	114	115	2	115	116	2	116	117	2	117	118	2	118	119	2	119	120	2	120	121	2	121	122	2	122	123	2	123	124	2	124	125	2	125	126	2	126	127	2	127	128	2	128	129	2	129	130	2	130	131	2	131	132	2	132	133	2	133	134	2	134	135	2	135	136	2	136	137	2	137	138	2	138	139	2	139	140	2	140	141	2	141	142	2	142	143	2	143	144	2	144	145	2	145	146	2	146	147	2	147	148	2	148	149	2	149	150	2	150	151	2	151	152	2	152	153	2	153	154	2	154	155	2	155	156	2	156	157	2	157	158	2	158	159	2	159	160	2	160	161	2	161	162	2	162	163	2	163	164	2	164	165	2	165	166	2	166	167	2	167	168	2	168	169	2	169	170	2	170	171	2	171	172	2	172	173	2	173	174	2	174	175	2	175	176	2	176	177	2	177	178	2	178	179	2	179	180	2	180	181	2	181	182	2	182	183	2	183	184	2	184	185	2	185	186	2	186	187	2	187	188	2	188	189	2	189	190	2	190	191	2	191	192	2	192	193	2	193	194	2	194	195	2	195	196	2	196	197	2	197	198	2	198	199	
CELL_TYPES 200
3	3	3	3	3	3	3	3	3	3	3	3	3	3	3	3	3	3	3	3	3	3	3	3	3	3	3	3	3	3	3	3	3	3	3	3	3	3	3	3	3	3	3	3	3	3	3	3	3	3	3	3	3	3	3	3	3	3	3	3	3	3	3	3	3	3	3	3	3	3	3	3	3	3	3	3	3	3	3	3	3	3	3	3	3	3	3	3	3	3	3	3	3	3	3	3	3	3	3	3	3	3	3	3	3	3	3	3	3	3	3	3	3	3	3	3	3	3	3	3	3	3	3	3	3	3	3	3	3	3	3	3	3	3	3	3	3	3	3	3	3	3	3	3	3	3	3	3	3	3	3	3	3	3	3	3	3	3	3	3	3	3	3	3	3	3	3	3	3	3	3	3	3	3	3	3	3	3	3	3	3	3	3	3	3	3	3	3	3	3	3	3	3	3	3	3	3	3	3	3	
POINT_DATA 200

SCALARS Conservative_1 float 1
LOOKUP_TABLE default
1.199842e+00	1.181632e+00	1.171227e+00	1.164810e+00	1.160260e+00	1.155814e+00	1.148941e+00	1.138025e+00	1.121832e+00	1.100450e+00	1.075119e+00	1.048452e+00	1.024822e+00	1.008234e+00	9.998257e-01	9.977511e-01	9.988544e-01	1.000294e+00	1.000315e+00	9.983173e-01	9.945214e-01	9.894866e-01	9.837996e-01	9.779333e-01	9.721658e-01	9.666076e-01	9.612495e-01	9.560441e-01	9.509264e-01	9.458646e-01	9.408428e-01	9.358168e-01	9.307525e-01	9.256667e-01	9.206110e-01	9.156342e-01	9.107554e-01	9.059792e-01	9.013172e-01	8.967863e-01	8.923864e-01	8.881283e-01	8.839945e-01	8.800023e-01	8.761669e-01	8.725398e-01	8.691094e-01	8.658110e-01	8.624970e-01	8.591587e-01	8.559992e-01	8.533746e-01	8.514031e-01	8.497988e-01	8.478928e-01	8.449269e-01	8.403784e-01	8.343627e-01	8.277382e-01	8.217783e-01	8.174060e-01	8.148393e-01	8.138119e-01	8.138854e-01	8.147426e-01	8.161790e-01	8.181425e-01	8.205475e-01	8.233073e-01	8.263102e-01	8.295791e-01	8.332816e-01	8.376669e-01	8.428002e-01	8.486014e-01	8.549233e-01	8.618331e-01	8.695117e-01	8.780165e-01	8.873868e-01	8.977351e-01	9.091205e-01	9.216958e-01	9.355795e-01	9.509630e-01	9.681251e-01	9.872953e-01	1.008834e+00	1.033227e+00	1.060789e+00	1.092051e+00	1.127472e+00	1.166890e+00	1.209827e+00	1.254563e+00	1.298060e+00	1.331735e+00	1.350883e+00	1.339623e+00	1.308548e+00	1.284721e+00	1.221932e+00	1.100831e+00	1.003551e+00	9.274335e-01	8.714126e-01	8.330818e-01	8.077741e-01	7.906852e-01	7.790716e-01	7.712334e-01	7.659958e-01	7.627947e-01	7.608872e-01	7.598950e-01	7.598124e-01	7.605091e-01	7.617466e-01	7.632014e-01	7.645416e-01	7.657780e-01	7.672341e-01	7.691736e-01	7.714509e-01	7.736649e-01	7.755809e-01	7.772866e-01	7.789290e-01	7.806131e-01	7.824112e-01	7.843802e-01	7.865047e-01	7.887126e-01	7.909048e-01	7.930409e-01	7.950989e-01	7.970708e-01	7.989147e-01	8.006391e-01	8.023758e-01	8.043924e-01	8.069298e-01	8.101073e-01	8.138626e-01	8.180275e-01	8.223716e-01	8.266553e-01	8.307794e-01	8.347957e-01	8.388978e-01	8.432261e-01	8.479284e-01	8.531397e-01	8.589588e-01	8.652733e-01	8.718343e-01	8.784879e-01	8.853016e-01	8.924643e-01	9.000152e-01	9.078912e-01	9.160041e-01	9.243094e-01	9.327971e-01	9.414361e-01	9.502123e-01	9.590755e-01	9.680085e-01	9.769372e-01	9.858644e-01	9.947070e-01	1.003384e+00	1.011834e+00	1.019971e+00	1.027749e+00	1.035146e+00	1.042209e+00	1.049117e+00	1.056132e+00	1.063643e+00	1.071948e+00	1.081146e+00	1.090853e+00	1.100204e+00	1.107944e+00	1.112735e+00	1.113482e+00	1.109818e+00	1.102508e+00	1.093723e+00	1.086557e+00	1.083993e+00	1.087884e+00	1.098117e+00	1.112728e+00	1.129932e+00	1.148429e+00	1.168612e+00	1.192707e+00	1.181130e+00	
SCALARS Conservative_2 float 1
LOOKUP_TABLE default
7.195395e-01	7.458928e-01	7.639555e-01	7.747322e-01	7.805889e-01	7.853300e-01	7.911110e-01	8.007637e-01	8.157783e-01	8.362095e-01	8.603400e-01	8.848358e-01	9.060425e-01	9.215709e-01	9.308284e-01	9.348102e-01	9.355745e-01	9.352199e-01	9.352084e-01	9.361528e-01	9.381066e-01	9.407683e-01	9.437615e-01	9.467955e-01	9.496837e-01	9.523607e-01	9.548219e-01	9.571097e-01	9.592345e-01	9.612290e-01	9.631282e-01	9.649242e-01	9.666315e-01	9.682476e-01	9.697598e-01	9.711561e-01	9.724509e-01	9.736254e-01	9.746896e-01	9.756591e-01	9.765147e-01	9.772914e-01	9.779629e-01	9.785663e-01	9.790691e-01	9.795125e-01	9.798737e-01	9.802051e-01	9.804746e-01	9.807215e-01	9.808868e-01	9.809977e-01	9.810388e-01	9.810665e-01	9.810998e-01	9.811725e-01	9.812141e-01	9.811438e-01	9.808258e-01	9.803281e-01	9.798157e-01	9.793923e-01	9.791341e-01	9.789766e-01	9.789204e-01	9.788743e-01	9.788608e-01	9.788079e-01	9.787295e-01	9.785579e-01	9.783073e-01	9.779243e-01	9.774116e-01	9.766892e-01	9.757444e-01	9.744364e-01	9.727853e-01	9.706967e-01	9.679384e-01	9.643563e-01	9.598593e-01	9.541541e-01	9.469764e-01	9.379067e-01	9.264272e-01	9.118064e-01	8.931075e-01	8.692505e-01	8.386573e-01	7.991716e-01	7.483039e-01	6.830102e-01	5.996429e-01	4.960376e-01	3.722775e-01	2.361881e-01	1.072708e-01	1.089033e-02	-2.143816e-02	5.238744e-03	7.270393e-02	2.095171e-01	4.119878e-01	5.887733e-01	7.141410e-01	7.960854e-01	8.479582e-01	8.810551e-01	9.024353e-01	9.168262e-01	9.268935e-01	9.340691e-01	9.395373e-01	9.438079e-01	9.472303e-01	9.501637e-01	9.526718e-01	9.548407e-01	9.567680e-01	9.584303e-01	9.599123e-01	9.613293e-01	9.626988e-01	9.639328e-01	9.650345e-01	9.660004e-01	9.668865e-01	9.676983e-01	9.684790e-01	9.692256e-01	9.699709e-01	9.706940e-01	9.713990e-01	9.720542e-01	9.726740e-01	9.732431e-01	9.737743e-01	9.742576e-01	9.747103e-01	9.751528e-01	9.756453e-01	9.761709e-01	9.767329e-01	9.772919e-01	9.778116e-01	9.782641e-01	9.786256e-01	9.789329e-01	9.791503e-01	9.793292e-01	9.794416e-01	9.794906e-01	9.794318e-01	9.792422e-01	9.788664e-01	9.782936e-01	9.775612e-01	9.766107e-01	9.754388e-01	9.739873e-01	9.722553e-01	9.702191e-01	9.678824e-01	9.652292e-01	9.622539e-01	9.589513e-01	9.553195e-01	9.513987e-01	9.471227e-01	9.426028e-01	9.378456e-01	9.328696e-01	9.277907e-01	9.226641e-01	9.175449e-01	9.124594e-01	9.073518e-01	9.020989e-01	8.964072e-01	8.899789e-01	8.824769e-01	8.738933e-01	8.646550e-01	8.558485e-01	8.490194e-01	8.457399e-01	8.470241e-01	8.527774e-01	8.615363e-01	8.706253e-01	8.767235e-01	8.771759e-01	8.706703e-01	8.579442e-01	8.397378e-01	8.176081e-01	7.912749e-01	7.597057e-01	7.213552e-01	6.623525e-01	
SCALARS Conservative_3 float 1
LOOKUP_TABLE default
1.010178e-01	1.066627e-01	1.128608e-01	1.197678e-01	1.302040e-01	1.448568e-01	1.633786e-01	1.838519e-01	2.031222e-01	2.172584e-01	2.230687e-01	2.189698e-01	2.059243e-01	1.877322e-01	1.691304e-01	1.537969e-01	1.433752e-01	1.376251e-01	1.351925e-01	1.344421e-01	1.340758e-01	1.333292e-01	1.319169e-01	1.298673e-01	1.273497e-01	1.245641e-01	1.216446e-01	1.186801e-01	1.156964e-01	1.126807e-01	1.096214e-01	1.064979e-01	1.032986e-01	1.000159e-01	9.663574e-02	9.317310e-02	8.962443e-02	8.600839e-02	8.233138e-02	7.860556e-02	7.484425e-02	7.105453e-02	6.725500e-02	6.344729e-02	5.963895e-02	5.582160e-02	5.199910e-02	4.818380e-02	4.439924e-02	4.064979e-02	3.689936e-02	3.309133e-02	2.920309e-02	2.522081e-02	2.117490e-02	1.710871e-02	1.306886e-02	9.046437e-03	4.936780e-03	5.980239e-04	-4.010356e-03	-8.866963e-03	-1.395936e-02	-1.927523e-02	-2.485272e-02	-3.072013e-02	-3.693422e-02	-4.351203e-02	-5.048730e-02	-5.788036e-02	-6.573901e-02	-7.412831e-02	-8.311897e-02	-9.274361e-02	-1.030450e-01	-1.140759e-01	-1.259484e-01	-1.387301e-01	-1.524974e-01	-1.673757e-01	-1.834843e-01	-2.009365e-01	-2.198891e-01	-2.404774e-01	-2.628229e-01	-2.870436e-01	-3.132093e-01	-3.412627e-01	-3.708118e-01	-4.011153e-01	-4.306822e-01	-4.563824e-01	-4.731136e-01	-4.724394e-01	-4.414510e-01	-3.648038e-01	-2.309267e-01	-3.854691e-02	1.848931e-01	3.505758e-01	4.948344e-01	6.596701e-01	7.231185e-01	6.889281e-01	6.123483e-01	5.288469e-01	4.542927e-01	3.923554e-01	3.419722e-01	3.007785e-01	2.670479e-01	2.389947e-01	2.154414e-01	1.954319e-01	1.782262e-01	1.633070e-01	1.502869e-01	1.388119e-01	1.286263e-01	1.194569e-01	1.111027e-01	1.034932e-01	9.657907e-02	9.026824e-02	8.443054e-02	7.891803e-02	7.370367e-02	6.876256e-02	6.408591e-02	5.962353e-02	5.534352e-02	5.121416e-02	4.720382e-02	4.327459e-02	3.940208e-02	3.556695e-02	3.175595e-02	2.794710e-02	2.410940e-02	2.021977e-02	1.628173e-02	1.230266e-02	8.282581e-03	4.199733e-03	3.461345e-05	-4.234981e-03	-8.633336e-03	-1.317171e-02	-1.785545e-02	-2.266247e-02	-2.757772e-02	-3.261517e-02	-3.774530e-02	-4.296742e-02	-4.824483e-02	-5.359372e-02	-5.901552e-02	-6.448060e-02	-6.993147e-02	-7.532949e-02	-8.063757e-02	-8.584261e-02	-9.088517e-02	-9.573599e-02	-1.003256e-01	-1.046303e-01	-1.085796e-01	-1.121387e-01	-1.152521e-01	-1.178756e-01	-1.199684e-01	-1.214963e-01	-1.224600e-01	-1.228850e-01	-1.228439e-01	-1.224826e-01	-1.219767e-01	-1.215045e-01	-1.211384e-01	-1.207143e-01	-1.196985e-01	-1.171923e-01	-1.120744e-01	-1.034571e-01	-9.114958e-02	-7.607612e-02	-6.040648e-02	-4.723796e-02	-3.982841e-02	-4.039221e-02	-4.902717e-02	-6.349001e-02	-7.995648e-02	-9.468020e-02	-1.049282e-01	-1.097776e-01	-1.102806e-01	-1.062018e-01	-1.003427e-01	2.580874e-03	
SCALARS Conservative_4 float 1
LOOKUP_TABLE default
3.446430e+00	3.400857e+00	3.375618e+00	3.360154e+00	3.349060e+00	3.338235e+00	3.321168e+00	3.293984e+00	3.253583e+00	3.200188e+00	3.136818e+00	3.069864e+00	3.010358e+00	2.968565e+00	2.947410e+00	2.942180e+00	2.944911e+00	2.948460e+00	2.948420e+00	2.943265e+00	2.933561e+00	2.920712e+00	2.906193e+00	2.891201e+00	2.876437e+00	2.862188e+00	2.848429e+00	2.835046e+00	2.821869e+00	2.808820e+00	2.795865e+00	2.782883e+00	2.769788e+00	2.756622e+00	2.743519e+00	2.730606e+00	2.717936e+00	2.705516e+00	2.693379e+00	2.681574e+00	2.670094e+00	2.658977e+00	2.648169e+00	2.637726e+00	2.627678e+00	2.618171e+00	2.609168e+00	2.600514e+00	2.591809e+00	2.583042e+00	2.574729e+00	2.567814e+00	2.562601e+00	2.558354e+00	2.553323e+00	2.545526e+00	2.533574e+00	2.517751e+00	2.500271e+00	2.484494e+00	2.472885e+00	2.466041e+00	2.463288e+00	2.463457e+00	2.465721e+00	2.469517e+00	2.474720e+00	2.481085e+00	2.488395e+00	2.496338e+00	2.504984e+00	2.514763e+00	2.526336e+00	2.539860e+00	2.555133e+00	2.571737e+00	2.589872e+00	2.610006e+00	2.632242e+00	2.656669e+00	2.683596e+00	2.713138e+00	2.745683e+00	2.781499e+00	2.821039e+00	2.864966e+00	2.913798e+00	2.968415e+00	3.029973e+00	3.099121e+00	3.177116e+00	3.264989e+00	3.362071e+00	3.467142e+00	3.575859e+00	3.681336e+00	3.762467e+00	3.809682e+00	3.781451e+00	3.703545e+00	3.650750e+00	3.501874e+00	3.194244e+00	2.946939e+00	2.751693e+00	2.607142e+00	2.507994e+00	2.442444e+00	2.398013e+00	2.367717e+00	2.347238e+00	2.333490e+00	2.325104e+00	2.320128e+00	2.317566e+00	2.317440e+00	2.319374e+00	2.322734e+00	2.326683e+00	2.330327e+00	2.333703e+00	2.337682e+00	2.342945e+00	2.349075e+00	2.355026e+00	2.360179e+00	2.364778e+00	2.369204e+00	2.373744e+00	2.378581e+00	2.383876e+00	2.389577e+00	2.395500e+00	2.401373e+00	2.407095e+00	2.412604e+00	2.417883e+00	2.422818e+00	2.427437e+00	2.432090e+00	2.437497e+00	2.444283e+00	2.452760e+00	2.462757e+00	2.473823e+00	2.485348e+00	2.496698e+00	2.507627e+00	2.518258e+00	2.529116e+00	2.540562e+00	2.552988e+00	2.566737e+00	2.582065e+00	2.598664e+00	2.615879e+00	2.633317e+00	2.651140e+00	2.669850e+00	2.689535e+00	2.710031e+00	2.731101e+00	2.752631e+00	2.774590e+00	2.796896e+00	2.819512e+00	2.842304e+00	2.865237e+00	2.888094e+00	2.910915e+00	2.933475e+00	2.955563e+00	2.977037e+00	2.997684e+00	3.017388e+00	3.036100e+00	3.053934e+00	3.071350e+00	3.088985e+00	3.107828e+00	3.128606e+00	3.151573e+00	3.175775e+00	3.199090e+00	3.218435e+00	3.230504e+00	3.232551e+00	3.223601e+00	3.205471e+00	3.183535e+00	3.165481e+00	3.158812e+00	3.168236e+00	3.193631e+00	3.229854e+00	3.272466e+00	3.317985e+00	3.367437e+00	3.426985e+00	3.383868e+00	
SCALARS Pressure float 1
LOOKUP_TABLE default
1.290570e+00	1.264250e+00	1.248411e+00	1.238541e+00	1.231670e+00	1.224943e+00	1.214876e+00	1.198963e+00	1.175433e+00	1.144413e+00	1.107777e+00	1.069449e+00	1.035662e+00	1.011964e+00	9.999235e-01	9.969628e-01	9.985877e-01	1.000721e+00	1.000846e+00	9.981132e-01	9.928310e-01	9.858021e-01	9.778690e-01	9.697012e-01	9.616942e-01	9.539999e-01	9.466052e-01	9.394367e-01	9.324091e-01	9.254745e-01	9.186031e-01	9.117419e-01	9.048435e-01	8.979301e-01	8.910725e-01	8.843374e-01	8.777455e-01	8.713090e-01	8.650406e-01	8.589579e-01	8.530672e-01	8.473726e-01	8.418602e-01	8.365417e-01	8.314479e-01	8.266344e-01	8.220943e-01	8.177266e-01	8.133483e-01	8.089352e-01	8.047745e-01	8.013276e-01	7.987573e-01	7.966698e-01	7.941765e-01	7.902636e-01	7.842584e-01	7.763313e-01	7.676573e-01	7.599041e-01	7.542513e-01	7.509620e-01	7.496591e-01	7.497804e-01	7.509004e-01	7.527754e-01	7.553243e-01	7.584542e-01	7.620403e-01	7.659528e-01	7.702119e-01	7.750513e-01	7.807910e-01	7.875333e-01	7.951635e-01	8.035190e-01	8.126634e-01	8.228444e-01	8.341857e-01	8.467533e-01	8.606815e-01	8.760893e-01	8.931915e-01	9.121893e-01	9.333832e-01	9.572125e-01	9.840655e-01	1.014482e+00	1.049228e+00	1.088899e+00	1.134324e+00	1.186296e+00	1.244835e+00	1.309283e+00	1.377183e+00	1.443434e+00	1.495250e+00	1.523635e+00	1.507408e+00	1.462629e+00	1.421358e+00	1.322339e+00	1.151859e+00	1.015101e+00	9.098348e-01	8.332132e-01	7.810310e-01	7.466656e-01	7.236289e-01	7.080746e-01	6.976076e-01	6.906782e-01	6.864257e-01	6.838712e-01	6.825162e-01	6.823156e-01	6.831321e-01	6.846580e-01	6.864522e-01	6.881000e-01	6.896050e-01	6.913753e-01	6.937695e-01	6.966296e-01	6.994197e-01	7.018312e-01	7.039665e-01	7.060245e-01	7.081337e-01	7.103948e-01	7.128745e-01	7.155603e-01	7.183548e-01	7.211367e-01	7.238473e-01	7.264634e-01	7.289699e-01	7.313148e-01	7.335040e-01	7.357072e-01	7.382614e-01	7.414940e-01	7.455610e-01	7.503905e-01	7.557678e-01	7.613931e-01	7.669546e-01	7.723077e-01	7.775334e-01	7.828703e-01	7.885123e-01	7.946513e-01	8.014769e-01	8.091224e-01	8.174533e-01	8.261421e-01	8.349723e-01	8.440494e-01	8.536186e-01	8.637450e-01	8.743433e-01	8.853029e-01	8.965631e-01	9.081131e-01	9.199138e-01	9.319466e-01	9.441473e-01	9.564818e-01	9.688748e-01	9.812992e-01	9.936494e-01	1.005821e+00	1.017705e+00	1.029184e+00	1.040187e+00	1.050679e+00	1.060729e+00	1.070589e+00	1.080647e+00	1.091457e+00	1.103470e+00	1.116815e+00	1.130935e+00	1.144537e+00	1.155753e+00	1.162599e+00	1.163499e+00	1.157985e+00	1.147254e+00	1.134508e+00	1.124267e+00	1.120818e+00	1.126754e+00	1.141760e+00	1.163219e+00	1.188531e+00	1.216037e+00	1.246269e+00	1.281850e+00	1.279259e+00	
SCALARS Temperature float 1
LOOKUP_TABLE default
1.075617e+00	1.069919e+00	1.065900e+00	1.063299e+00	1.061547e+00	1.059810e+00	1.057387e+00	1.053547e+00	1.047780e+00	1.039950e+00	1.030376e+00	1.020026e+00	1.010577e+00	1.003699e+00	1.000098e+00	9.992099e-01	9.997330e-01	1.000427e+00	1.000531e+00	9.997955e-01	9.983003e-01	9.962764e-01	9.939717e-01	9.915822e-01	9.892286e-01	9.869568e-01	9.847653e-01	9.826290e-01	9.805272e-01	9.784429e-01	9.763619e-01	9.742739e-01	9.721633e-01	9.700361e-01	9.679143e-01	9.658195e-01	9.637555e-01	9.617318e-01	9.597515e-01	9.578177e-01	9.559393e-01	9.541107e-01	9.523365e-01	9.506131e-01	9.489607e-01	9.473888e-01	9.459042e-01	9.444632e-01	9.430158e-01	9.415434e-01	9.401579e-01	9.390103e-01	9.381658e-01	9.374805e-01	9.366473e-01	9.353041e-01	9.332206e-01	9.304482e-01	9.274155e-01	9.247070e-01	9.227376e-01	9.216075e-01	9.211700e-01	9.212358e-01	9.216413e-01	9.223165e-01	9.232185e-01	9.243269e-01	9.255843e-01	9.269555e-01	9.284370e-01	9.301192e-01	9.321020e-01	9.344247e-01	9.370282e-01	9.398726e-01	9.429475e-01	9.463294e-01	9.500798e-01	9.542099e-01	9.587255e-01	9.636668e-01	9.690741e-01	9.749992e-01	9.815137e-01	9.887280e-01	9.967287e-01	1.005599e+00	1.015487e+00	1.026498e+00	1.038710e+00	1.052173e+00	1.066797e+00	1.082207e+00	1.097739e+00	1.111993e+00	1.122784e+00	1.127881e+00	1.125248e+00	1.117750e+00	1.106355e+00	1.082171e+00	1.046355e+00	1.011510e+00	9.810243e-01	9.561639e-01	9.375201e-01	9.243494e-01	9.151921e-01	9.088697e-01	9.045350e-01	9.016737e-01	8.998826e-01	8.987814e-01	8.981718e-01	8.980054e-01	8.982563e-01	8.988003e-01	8.994378e-01	9.000164e-01	9.005286e-01	9.011269e-01	9.019673e-01	9.030122e-01	9.040343e-01	9.049104e-01	9.056717e-01	9.064043e-01	9.071507e-01	9.079558e-01	9.088379e-01	9.097979e-01	9.107941e-01	9.117869e-01	9.127491e-01	9.136767e-01	9.145610e-01	9.153853e-01	9.161481e-01	9.169110e-01	9.177877e-01	9.189076e-01	9.203237e-01	9.220113e-01	9.238904e-01	9.258504e-01	9.277804e-01	9.296183e-01	9.314057e-01	9.332130e-01	9.351138e-01	9.371679e-01	9.394440e-01	9.419805e-01	9.447343e-01	9.475907e-01	9.504654e-01	9.534033e-01	9.564736e-01	9.597004e-01	9.630486e-01	9.664836e-01	9.699815e-01	9.735377e-01	9.771389e-01	9.807772e-01	9.844348e-01	9.880923e-01	9.917473e-01	9.953694e-01	9.989368e-01	1.002428e+00	1.005802e+00	1.009033e+00	1.012102e+00	1.015005e+00	1.017770e+00	1.020466e+00	1.023212e+00	1.026150e+00	1.029406e+00	1.032991e+00	1.036744e+00	1.040296e+00	1.043151e+00	1.044812e+00	1.044920e+00	1.043400e+00	1.040586e+00	1.037290e+00	1.034707e+00	1.033971e+00	1.035730e+00	1.039743e+00	1.045376e+00	1.051860e+00	1.058870e+00	1.066452e+00	1.074740e+00	1.083081e+00	
SCALARS Pressure_Coefficient float 1
LOOKUP_TABLE default
6.485941e-01	5.898435e-01	5.544890e-01	5.324586e-01	5.171209e-01	5.021045e-01	4.796337e-01	4.441133e-01	3.915924e-01	3.223503e-01	2.405737e-01	1.550193e-01	7.960181e-02	2.670441e-02	-1.706924e-04	-6.779505e-03	-3.152463e-03	1.609472e-03	1.888187e-03	-4.211704e-03	-1.600221e-02	-3.169178e-02	-4.939962e-02	-6.763121e-02	-8.550397e-02	-1.026787e-01	-1.191849e-01	-1.351860e-01	-1.508725e-01	-1.663516e-01	-1.816896e-01	-1.970047e-01	-2.124030e-01	-2.278347e-01	-2.431417e-01	-2.581754e-01	-2.728895e-01	-2.872567e-01	-3.012487e-01	-3.148262e-01	-3.279749e-01	-3.406861e-01	-3.529905e-01	-3.648623e-01	-3.762323e-01	-3.869769e-01	-3.971110e-01	-4.068602e-01	-4.166332e-01	-4.264840e-01	-4.357713e-01	-4.434652e-01	-4.492024e-01	-4.538620e-01	-4.594275e-01	-4.681616e-01	-4.815661e-01	-4.992606e-01	-5.186222e-01	-5.359283e-01	-5.485463e-01	-5.558884e-01	-5.587966e-01	-5.585260e-01	-5.560258e-01	-5.518407e-01	-5.461511e-01	-5.391648e-01	-5.311599e-01	-5.224268e-01	-5.129199e-01	-5.021177e-01	-4.893059e-01	-4.742561e-01	-4.572244e-01	-4.385737e-01	-4.181621e-01	-3.954365e-01	-3.701213e-01	-3.420685e-01	-3.109787e-01	-2.765864e-01	-2.384117e-01	-1.960061e-01	-1.486982e-01	-9.550790e-02	-3.556808e-02	3.232537e-02	1.098835e-01	1.984346e-01	2.998305e-01	4.158400e-01	5.465061e-01	6.903644e-01	8.419256e-01	9.898089e-01	1.105469e+00	1.168829e+00	1.132607e+00	1.032655e+00	9.405317e-01	7.195069e-01	3.389713e-01	3.370866e-02	-2.012616e-01	-3.722919e-01	-4.887701e-01	-5.654786e-01	-6.168998e-01	-6.516192e-01	-6.749831e-01	-6.904503e-01	-6.999427e-01	-7.056446e-01	-7.086692e-01	-7.091170e-01	-7.072944e-01	-7.038883e-01	-6.998836e-01	-6.962054e-01	-6.928460e-01	-6.888945e-01	-6.835503e-01	-6.771660e-01	-6.709383e-01	-6.655554e-01	-6.607891e-01	-6.561952e-01	-6.514874e-01	-6.464402e-01	-6.409051e-01	-6.349099e-01	-6.286723e-01	-6.224627e-01	-6.164122e-01	-6.105728e-01	-6.049779e-01	-5.997438e-01	-5.948572e-01	-5.899394e-01	-5.842380e-01	-5.770224e-01	-5.679443e-01	-5.571641e-01	-5.451611e-01	-5.326046e-01	-5.201907e-01	-5.082416e-01	-4.965772e-01	-4.846644e-01	-4.720708e-01	-4.583677e-01	-4.431318e-01	-4.260660e-01	-4.074703e-01	-3.880757e-01	-3.683653e-01	-3.481040e-01	-3.267443e-01	-3.041406e-01	-2.804836e-01	-2.560202e-01	-2.308860e-01	-2.051047e-01	-1.787637e-01	-1.519049e-01	-1.246713e-01	-9.713894e-02	-6.947580e-02	-4.174281e-02	-1.417536e-02	1.299272e-02	3.951992e-02	6.514355e-02	8.970303e-02	1.131223e-01	1.355568e-01	1.575643e-01	1.800162e-01	2.041456e-01	2.309599e-01	2.607467e-01	2.922649e-01	3.226280e-01	3.476638e-01	3.629452e-01	3.649535e-01	3.526441e-01	3.286916e-01	3.002422e-01	2.773828e-01	2.696821e-01	2.829327e-01	3.164281e-01	3.643272e-01	4.208271e-01	4.822259e-01	5.497067e-01	6.291289e-01	6.233467e-01	
SCALARS Mach float 1
LOOKUP_TABLE default
4.934875e-01	5.210154e-01	5.397504e-01	5.516115e-01	5.594905e-01	5.672199e-01	5.778668e-01	5.944521e-01	6.187381e-01	6.506674e-01	6.883031e-01	7.275308e-01	7.622338e-01	7.869203e-01	7.996745e-01	8.028018e-01	8.009602e-01	7.985124e-01	7.981478e-01	8.007399e-01	8.059987e-01	8.130872e-01	8.211193e-01	8.294039e-01	8.375222e-01	8.453208e-01	8.528096e-01	8.600790e-01	8.672020e-01	8.742383e-01	8.812367e-01	8.882331e-01	8.952799e-01	9.023573e-01	9.093921e-01	9.163146e-01	9.231136e-01	9.297595e-01	9.362441e-01	9.425591e-01	9.486773e-01	9.546185e-01	9.603690e-01	9.659430e-01	9.712759e-01	9.763392e-01	9.811123e-01	9.857378e-01	9.903759e-01	9.950866e-01	9.995123e-01	1.003173e+00	1.005864e+00	1.008047e+00	1.010698e+00	1.014967e+00	1.021577e+00	1.030353e+00	1.039928e+00	1.048457e+00	1.054647e+00	1.058194e+00	1.059567e+00	1.059361e+00	1.058088e+00	1.055969e+00	1.053136e+00	1.049653e+00	1.045697e+00	1.041378e+00	1.036706e+00	1.031393e+00	1.025121e+00	1.017759e+00	1.009486e+00	1.000423e+00	9.905945e-01	9.797462e-01	9.676653e-01	9.542964e-01	9.395967e-01	9.234052e-01	9.055497e-01	8.858056e-01	8.638622e-01	8.392436e-01	8.115059e-01	7.801471e-01	7.443238e-01	7.031622e-01	6.556228e-01	6.003024e-01	5.356134e-01	4.600030e-01	3.712975e-01	2.683290e-01	1.525008e-01	2.359671e-02	1.107006e-01	2.141926e-01	3.128076e-01	4.601898e-01	6.246375e-01	7.588504e-01	8.655199e-01	9.479466e-01	1.007921e+00	1.049582e+00	1.078274e+00	1.097973e+00	1.111432e+00	1.120299e+00	1.125841e+00	1.129247e+00	1.131131e+00	1.131645e+00	1.130870e+00	1.129188e+00	1.127217e+00	1.125428e+00	1.123843e+00	1.121991e+00	1.119389e+00	1.116153e+00	1.112985e+00	1.110268e+00	1.107906e+00	1.105633e+00	1.103315e+00	1.100813e+00	1.098071e+00	1.095086e+00	1.091986e+00	1.088894e+00	1.085896e+00	1.083003e+00	1.080244e+00	1.077671e+00	1.075288e+00	1.072903e+00	1.070162e+00	1.066657e+00	1.062220e+00	1.056927e+00	1.051025e+00	1.044859e+00	1.038777e+00	1.032976e+00	1.027325e+00	1.021601e+00	1.015571e+00	1.009041e+00	1.001790e+00	9.936890e-01	9.848682e-01	9.756893e-01	9.664202e-01	9.569130e-01	9.469387e-01	9.364112e-01	9.254373e-01	9.141225e-01	9.025385e-01	8.906942e-01	8.786267e-01	8.663562e-01	8.539364e-01	8.414273e-01	8.288328e-01	8.162533e-01	8.037623e-01	7.914352e-01	7.794189e-01	7.678160e-01	7.566969e-01	7.460907e-01	7.359041e-01	7.258901e-01	7.155996e-01	7.044872e-01	6.920395e-01	6.781600e-01	6.634298e-01	6.492792e-01	6.377501e-01	6.309744e-01	6.305343e-01	6.367363e-01	6.481157e-01	6.612665e-01	6.714530e-01	6.743363e-01	6.674327e-01	6.514962e-01	6.286642e-01	6.016302e-01	5.713673e-01	5.372086e-01	4.978072e-01	4.554076e-01	