# vtk DataFile Version 3.0
vtk output
ASCII
DATASET UNSTRUCTURED_GRID
POINTS 5233 float
9.997500e-01	-3.633243e-05	0.0	9.990000e-01	-1.454723e-04	0.0	9.977600e-01	-3.275074e-04	0.0	9.960200e-01	-5.899273e-04	0.0	9.937800e-01	-9.470952e-04	0.0	9.910500e-01	-1.422098e-03	0.0	9.878400e-01	-2.045520e-03	0.0	9.841300e-01	-2.853681e-03	0.0	9.799500e-01	-3.858896e-03	0.0	9.752800e-01	-5.058325e-03	0.0	9.701500e-01	-6.405149e-03	0.0	9.645400e-01	-7.840896e-03	0.0	9.584700e-01	-9.290226e-03	0.0	9.519400e-01	-1.069778e-02	0.0	9.449600e-01	-1.203562e-02	0.0	9.375400e-01	-1.330813e-02	0.0	9.296900e-01	-1.454263e-02	0.0	9.214000e-01	-1.577739e-02	0.0	9.127000e-01	-1.703967e-02	0.0	9.035800e-01	-1.835050e-02	0.0	8.940600e-01	-1.971353e-02	0.0	8.841500e-01	-2.112415e-02	0.0	8.738500e-01	-2.257414e-02	0.0	8.631800e-01	-2.405141e-02	0.0	8.521600e-01	-2.554530e-02	0.0	8.407700e-01	-2.705266e-02	0.0	8.290500e-01	-2.856423e-02	0.0	8.170100e-01	-3.007618e-02	0.0	8.046400e-01	-3.158769e-02	0.0	7.919700e-01	-3.309309e-02	0.0	7.790100e-01	-3.458912e-02	0.0	7.657800e-01	-3.607118e-02	0.0	7.522800e-01	-3.753670e-02	0.0	7.385200e-01	-3.898183e-02	0.0	7.245300e-01	-4.040071e-02	0.0	7.103200e-01	-4.178971e-02	0.0	6.958900e-01	-4.314626e-02	0.0	6.812700e-01	-4.446517e-02	0.0	6.664700e-01	-4.574343e-02	0.0	6.515000e-01	-4.697827e-02	0.0	6.363800e-01	-4.816639e-02	0.0	6.211300e-01	-4.930487e-02	0.0	6.057600e-01	-5.039185e-02	0.0	5.902800e-01	-5.142569e-02	0.0	5.747100e-01	-5.240435e-02	0.0	5.590600e-01	-5.332667e-02	0.0	5.433600e-01	-5.419055e-02	0.0	5.276100e-01	-5.499580e-02	0.0	5.118400e-01	-5.574077e-02	0.0	4.960500e-01	-5.642541e-02	0.0	4.802700e-01	-5.704838e-02	0.0	4.645100e-01	-5.760928e-02	0.0	4.487800e-01	-5.810764e-02	0.0	4.331100e-01	-5.854239e-02	0.0	4.175000e-01	-5.891329e-02	0.0	4.019700e-01	-5.921946e-02	0.0	3.865400e-01	-5.946000e-02	0.0	3.712300e-01	-5.963402e-02	0.0	3.560400e-01	-5.974074e-02	0.0	3.409900e-01	-5.977900e-02	0.0	3.261100e-01	-5.974770e-02	0.0	3.114000e-01	-5.964567e-02	0.0	2.968700e-01	-5.947157e-02	0.0	2.825500e-01	-5.922430e-02	0.0	2.684500e-01	-5.890258e-02	0.0	2.545700e-01	-5.850471e-02	0.0	2.409400e-01	-5.802985e-02	0.0	2.275700e-01	-5.747670e-02	0.0	2.144700e-01	-5.684398e-02	0.0	2.016600e-01	-5.613101e-02	0.0	1.891400e-01	-5.533611e-02	0.0	1.769300e-01	-5.445886e-02	0.0	1.650400e-01	-5.349842e-02	0.0	1.534900e-01	-5.245501e-02	0.0	1.422900e-01	-5.132836e-02	0.0	1.314400e-01	-5.011721e-02	0.0	1.209500e-01	-4.882129e-02	0.0	1.108500e-01	-4.744341e-02	0.0	1.011300e-01	-4.598140e-02	0.0	9.181000e-02	-4.443735e-02	0.0	8.290000e-02	-4.281240e-02	0.0	7.440000e-02	-4.110589e-02	0.0	6.633000e-02	-3.932138e-02	0.0	5.869000e-02	-3.745855e-02	0.0	5.149000e-02	-3.551943e-02	0.0	4.474000e-02	-3.350655e-02	0.0	3.844000e-02	-3.141959e-02	0.0	3.260000e-02	-2.926139e-02	0.0	2.723000e-02	-2.703566e-02	0.0	2.232000e-02	-2.473734e-02	0.0	1.790000e-02	-2.238045e-02	0.0	1.395000e-02	-1.995416e-02	0.0	1.049000e-02	-1.746973e-02	0.0	7.520000e-03	-1.492807e-02	0.0	5.040000e-03	-1.232936e-02	0.0	3.050000e-03	-9.672075e-03	0.0	1.560000e-03	-6.971438e-03	0.0	5.600000e-04	-4.206306e-03	0.0	6.000000e-05	-1.384028e-03	0.0	0.000000e+00	0.000000e+00	0.0	6.000000e-05	1.263733e-03	0.0	5.600000e-04	3.625031e-03	0.0	1.560000e-03	5.788824e-03	0.0	3.050000e-03	7.806863e-03	0.0	5.040000e-03	9.724169e-03	0.0	7.520000e-03	1.154849e-02	0.0	1.049000e-02	1.329482e-02	0.0	1.395000e-02	1.497367e-02	0.0	1.790000e-02	1.659294e-02	0.0	2.232000e-02	1.815227e-02	0.0	2.723000e-02	1.966479e-02	0.0	3.260000e-02	2.112639e-02	0.0	3.844000e-02	2.254474e-02	0.0	4.474000e-02	2.392122e-02	0.0	5.149000e-02	2.525721e-02	0.0	5.869000e-02	2.655572e-02	0.0	6.633000e-02	2.781748e-02	0.0	7.440000e-02	2.904315e-02	0.0	8.290000e-02	3.023466e-02	0.0	9.181000e-02	3.139090e-02	0.0	1.011300e-01	3.251337e-02	0.0	1.108500e-01	3.360205e-02	0.0	1.209500e-01	3.465581e-02	0.0	1.314400e-01	3.567650e-02	0.0	1.422900e-01	3.666183e-02	0.0	1.534900e-01	3.761155e-02	0.0	1.650400e-01	3.852601e-02	0.0	1.769300e-01	3.940453e-02	0.0	1.891400e-01	4.024564e-02	0.0	2.016600e-01	4.104855e-02	0.0	2.144700e-01	4.181177e-02	0.0	2.275700e-01	4.253489e-02	0.0	2.409400e-01	4.321619e-02	0.0	2.545700e-01	4.385444e-02	0.0	2.684500e-01	4.444821e-02	0.0	2.825500e-01	4.499522e-02	0.0	2.968700e-01	4.549428e-02	0.0	3.114000e-01	4.594362e-02	0.0	3.261100e-01	4.634077e-02	0.0	3.409900e-01	4.668386e-02	0.0	3.560400e-01	4.697102e-02	0.0	3.712300e-01	4.719969e-02	0.0	3.865400e-01	4.736755e-02	0.0	4.019700e-01	4.747246e-02	0.0	4.175000e-01	4.751197e-02	0.0	4.331100e-01	4.748373e-02	0.0	4.487800e-01	4.738550e-02	0.0	4.645100e-01	4.721494e-02	0.0	4.802700e-01	4.697007e-02	0.0	4.960500e-01	4.664887e-02	0.0	5.118400e-01	4.624941e-02	0.0	5.276100e-01	4.577056e-02	0.0	5.433600e-01	4.521063e-02	0.0	5.590600e-01	4.456925e-02	0.0	5.747100e-01	4.384530e-02	0.0	5.902800e-01	4.303942e-02	0.0	6.057600e-01	4.215189e-02	0.0	6.211300e-01	4.118408e-02	0.0	6.363800e-01	4.013739e-02	0.0	6.515000e-01	3.901377e-02	0.0	6.664700e-01	3.781656e-02	0.0	6.812700e-01	3.655000e-02	0.0	6.958900e-01	3.521821e-02	0.0	7.103200e-01	3.382601e-02	0.0	7.245300e-01	3.238097e-02	0.0	7.385200e-01	3.088843e-02	0.0	7.522800e-01	2.935532e-02	0.0	7.657800e-01	2.779156e-02	0.0	7.790100e-01	2.620551e-02	0.0	7.919700e-01	2.460482e-02	0.0	8.046400e-01	2.300002e-02	0.0	8.170100e-01	2.140074e-02	0.0	8.290500e-01	1.981933e-02	0.0	8.407700e-01	1.826260e-02	0.0	8.521600e-01	1.673897e-02	0.0	8.631800e-01	1.525930e-02	0.0	8.738500e-01	1.382406e-02	0.0	8.841500e-01	1.243647e-02	0.0	8.940600e-01	1.109774e-02	0.0	9.035800e-01	9.806185e-03	0.0	9.127000e-01	8.564500e-03	0.0	9.214000e-01	7.383634e-03	0.0	9.296900e-01	6.280150e-03	0.0	9.375400e-01	5.285008e-03	0.0	9.449600e-01	4.427353e-03	0.0	9.519400e-01	3.732099e-03	0.0	9.584700e-01	3.205363e-03	0.0	9.645400e-01	2.826969e-03	0.0	9.701500e-01	2.552059e-03	0.0	9.752800e-01	2.324834e-03	0.0	9.799500e-01	2.093061e-03	0.0	9.841300e-01	1.827023e-03	0.0	9.878400e-01	1.519899e-03	0.0	9.910500e-01	1.190201e-03	0.0	9.937800e-01	8.630213e-04	0.0	9.960200e-01	5.666262e-04	0.0	9.977600e-01	3.231882e-04	0.0	9.990000e-01	1.450783e-04	0.0	9.997500e-01	3.632619e-05	0.0	1.000000e+00	0.000000e+00	0.0	1.984229e+01	2.506660e+00	0.0	1.937166e+01	4.973800e+00	0.0	1.859553e+01	7.362490e+00	0.0	1.752613e+01	9.635070e+00	0.0	1.618034e+01	1.175571e+01	0.0	1.457937e+01	1.369094e+01	0.0	1.274848e+01	1.541027e+01	0.0	1.071654e+01	1.688656e+01	0.0	8.515590e+00	1.809654e+01	0.0	6.180340e+00	1.902113e+01	0.0	3.747630e+00	1.964575e+01	0.0	1.255810e+00	1.996053e+01	0.0	-1.255810e+00	1.996053e+01	0.0	-3.747630e+00	1.964574e+01	0.0	-6.180340e+00	1.902113e+01	0.0	-8.515590e+00	1.809654e+01	0.0	-1.071654e+01	1.688656e+01	0.0	-1.274848e+01	1.541026e+01	0.0	-1.457937e+01	1.369094e+01	0.0	-1.618034e+01	1.175570e+01	0.0	-1.752613e+01	9.635070e+00	0.0	-1.859553e+01	7.362490e+00	0.0	-1.937166e+01	4.973800e+00	0.0	-1.984229e+01	2.506660e+00	0.0	-2.000000e+01	0.000000e+00	0.0	-1.984229e+01	-2.506670e+00	0.0	-1.937166e+01	-4.973800e+00	0.0	-1.859553e+01	-7.362490e+00	0.0	-1.752613e+01	-9.635080e+00	0.0	-1.618034e+01	-1.175571e+01	0.0	-1.457937e+01	-1.369094e+01	0.0	-1.274848e+01	-1.541027e+01	0.0	-1.071653e+01	-1.688656e+01	0.0	-8.515580e+00	-1.809654e+01	0.0	-6.180340e+00	-1.902113e+01	0.0	-3.747620e+00	-1.964575e+01	0.0	-1.255810e+00	-1.996053e+01	0.0	1.255810e+00	-1.996053e+01	0.0	3.747630e+00	-1.964574e+01	0.0	6.180340e+00	-1.902113e+01	0.0	8.515590e+00	-1.809654e+01	0.0	1.071654e+01	-1.688656e+01	0.0	1.274848e+01	-1.541026e+01	0.0	1.457937e+01	-1.369094e+01	0.0	1.618034e+01	-1.175570e+01	0.0	1.752614e+01	-9.635070e+00	0.0	1.859553e+01	-7.362490e+00	0.0	1.937166e+01	-4.973790e+00	0.0	1.984229e+01	-2.506660e+00	0.0	2.000000e+01	0.000000e+00	0.0	6.074235e-02	-4.532163e-02	0.0	6.601883e-01	-6.002208e-02	0.0	4.255533e-01	6.172203e-02	0.0	6.897642e-01	4.910585e-02	0.0	3.791232e-01	-7.360592e-02	0.0	9.994675e-01	-7.275897e-04	0.0	9.985544e-01	-1.331422e-03	0.0	7.738131e-01	-4.740022e-02	0.0	6.898600e-01	-5.714829e-02	0.0	-1.127182e-03	5.516669e-03	0.0	7.467800e-01	-5.080762e-02	0.0	5.833311e-01	5.753358e-02	0.0	9.928160e-01	-3.736235e-03	0.0	9.899359e-01	-4.744186e-03	0.0	5.989072e-01	5.659876e-02	0.0	7.187646e-01	-5.406374e-02	0.0	-1.468687e-03	5.998066e-04	0.0	9.865725e-01	-5.906486e-03	0.0	9.827328e-01	-7.226388e-03	0.0	-1.302065e-03	-6.473111e-03	0.0	6.451051e-01	-6.137269e-02	0.0	8.244819e-01	-4.029801e-02	0.0	7.997421e-01	-4.389434e-02	0.0	3.484809e-01	6.060742e-02	0.0	8.479020e-01	-3.666759e-02	0.0	2.473656e-01	5.609737e-02	0.0	8.699420e-01	-3.302729e-02	0.0	1.046396e-02	1.734358e-02	0.0	8.904957e-01	-2.943325e-02	0.0	7.702147e-02	-4.969962e-02	0.0	9.094909e-01	-2.594026e-02	0.0	-1.766778e-03	-3.207012e-03	0.0	9.424825e-01	-1.916830e-02	0.0	9.268474e-01	-2.255021e-02	0.0	1.794781e-02	-2.749714e-02	0.0	4.257416e-01	-7.303674e-02	0.0	8.591035e-01	-3.484323e-02	0.0	9.563355e-01	-1.566696e-02	0.0	9.784088e-01	-8.725350e-03	0.0	9.683300e-01	-1.208068e-02	0.0	1.582633e-01	-6.357412e-02	0.0	9.001950e-01	-2.767216e-02	0.0	7.604294e-01	-4.911974e-02	0.0	9.971359e-01	-2.087282e-03	0.0	5.990500e-01	-6.504533e-02	0.0	4.414441e-01	-7.268690e-02	0.0	5.363196e-01	-6.898035e-02	0.0	4.730157e-01	-7.175444e-02	0.0	5.046766e-01	-7.051701e-02	0.0	4.888342e-01	-7.117266e-02	0.0	1.249493e-01	-5.906572e-02	0.0	2.784415e-02	-3.297687e-02	0.0	3.945689e-01	-7.349794e-02	0.0	4.621899e-02	-4.062353e-02	0.0	4.101097e-01	-7.330854e-02	0.0	3.187146e-01	-7.321389e-02	0.0	3.486125e-01	-7.358062e-02	0.0	3.350771e-02	-3.559022e-02	0.0	2.895104e-01	-7.250844e-02	0.0	9.348849e-01	-2.086612e-02	0.0	1.468045e-01	-6.216201e-02	0.0	1.946434e-01	-6.723401e-02	0.0	8.579567e-02	-5.175731e-02	0.0	1.045869e-01	-5.560455e-02	0.0	5.678223e-01	-6.716059e-02	0.0	1.700658e-01	-6.489243e-02	0.0	6.145275e-01	-6.388363e-02	0.0	8.804131e-01	-3.122183e-02	0.0	2.266813e-02	-3.027751e-02	0.0	9.952218e-01	-2.870137e-03	0.0	6.736353e-03	-1.882173e-02	0.0	1.849214e-02	2.151229e-02	0.0	9.183775e-01	-2.423576e-02	0.0	9.49640
[...]
POINT_DATA 5233

SCALARS Conservative_1 float 1
LOOKUP_TABLE default
1.199829e+00	1.181604e+00	1.171179e+00	1.164740e+00	1.160167e+00	1.155702e+00	1.148817e+00	1.137899e+00	1.121718e+00	1.100363e+00	1.075074e+00	1.048463e+00	1.024896e+00	1.008361e+00	9.999874e-01	9.979291e-01	9.990385e-01	1.000481e+00	1.000508e+00	9.985200e-01	9.947364e-01	9.897147e-01	9.840403e-01	9.781848e-01	9.724257e-01	9.668741e-01	9.615212e-01	9.563206e-01	9.512074e-01	9.461505e-01	9.411337e-01	9.361132e-01	9.310551e-01	9.259757e-01	9.209264e-01	9.159555e-01	9.110817e-01	9.063094e-01	9.016501e-01	8.971202e-01	8.927195e-01	8.884586e-01	8.843198e-01	8.803198e-01	8.764736e-01	8.728327e-01	8.693866e-01	8.660715e-01	8.627401e-01	8.593830e-01	8.562023e-01	8.535520e-01	8.515458e-01	8.498917e-01	8.479169e-01	8.448703e-01	8.402521e-01	8.342103e-01	8.276246e-01	8.217516e-01	8.174777e-01	8.149959e-01	8.140335e-01	8.141578e-01	8.150589e-01	8.165379e-01	8.185453e-01	8.209976e-01	8.238085e-01	8.268655e-01	8.301877e-01	8.339380e-01	8.383632e-01	8.435316e-01	8.493667e-01	8.557220e-01	8.626623e-01	8.703659e-01	8.788899e-01	8.882735e-01	8.986286e-01	9.100140e-01	9.225812e-01	9.364479e-01	9.518042e-01	9.689270e-01	9.880447e-01	1.009516e+00	1.033826e+00	1.061291e+00	1.092440e+00	1.127742e+00	1.167043e+00	1.209885e+00	1.254555e+00	1.298041e+00	1.331744e+00	1.350900e+00	1.339534e+00	1.308270e+00	1.284257e+00	1.221093e+00	1.099449e+00	1.001969e+00	9.259734e-01	8.702672e-01	8.322883e-01	8.072870e-01	7.904572e-01	7.790594e-01	7.713984e-01	7.663052e-01	7.632203e-01	7.614062e-01	7.604889e-01	7.604649e-01	7.612057e-01	7.624746e-01	7.639499e-01	7.653048e-01	7.665560e-01	7.680274e-01	7.699775e-01	7.722563e-01	7.744646e-01	7.763745e-01	7.780778e-01	7.797216e-01	7.814089e-01	7.832099e-01	7.851800e-01	7.873029e-01	7.895059e-01	7.916887e-01	7.938079e-01	7.958382e-01	7.977696e-01	7.995637e-01	8.012297e-01	8.028834e-01	8.047378e-01	8.069497e-01	8.095680e-01	8.125535e-01	8.159060e-01	8.196836e-01	8.239158e-01	8.285742e-01	8.334943e-01	8.384771e-01	8.433206e-01	8.480791e-01	8.530452e-01	8.585662e-01	8.647024e-01	8.712246e-01	8.779125e-01	8.847654e-01	8.919512e-01	8.995176e-01	9.074130e-01	9.155496e-01	9.238781e-01	9.323864e-01	9.410449e-01	9.498403e-01	9.587224e-01	9.676735e-01	9.766192e-01	9.855622e-01	9.944194e-01	1.003110e+00	1.011572e+00	1.019720e+00	1.027509e+00	1.034918e+00	1.041993e+00	1.048913e+00	1.055940e+00	1.063461e+00	1.071775e+00	1.080976e+00	1.090684e+00	1.100037e+00	1.107783e+00	1.112588e+00	1.113362e+00	1.109742e+00	1.102492e+00	1.093778e+00	1.086676e+00	1.084159e+00	1.088063e+00	1.098279e+00	1.112852e+00	1.130017e+00	1.148479e+00	1.168636e+00	1.192714e+00	1.181127e+00	9.999764e-01	9.999694e-01	9.999527e-01	9.999288e-01	9.999046e-01	9.998764e-01	9.998368e-01	9.997815e-01	9.997188e-01	9.996667e-01	9.996323e-01	9.996438e-01	9.996982e-01	9.998089e-01	9.999040e-01	9.999809e-01	1.000023e+00	1.000049e+00	1.000064e+00	1.000070e+00	1.000073e+00	1.000074e+00	1.000074e+00	1.000076e+00	1.000077e+00	1.000080e+00	1.000085e+00	1.000092e+00	1.000101e+00	1.000114e+00	1.000129e+00	1.000150e+00	1.000169e+00	1.000196e+00	1.000213e+00	1.000224e+00	1.000226e+00	1.000213e+00	1.000203e+00	1.000190e+00	1.000183e+00	1.000168e+00	1.000151e+00	1.000130e+00	1.000106e+00	1.000078e+00	1.000060e+00	1.000046e+00	1.000013e+00	9.999797e-01	9.443277e-01	9.020656e-01	8.214409e-01	9.232646e-01	8.406850e-01	1.183062e+00	1.173570e+00	9.408027e-01	9.112709e-01	1.217009e+00	9.308296e-01	8.720778e-01	1.151718e+00	1.144987e+00	8.786911e-01	9.208884e-01	1.307638e+00	1.136015e+00	1.123648e+00	1.337687e+00	8.976486e-01	9.609024e-01	9.507417e-01	8.073143e-01	9.714732e-01	7.943513e-01	9.825792e-01	8.784223e-01	9.931892e-01	9.171280e-01	1.000618e+00	1.344665e+00	1.006088e+00	1.003001e+00	1.100367e+00	8.522889e-01	9.769828e-01	1.025355e+00	1.107396e+00	1.065588e+00	8.484486e-01	9.974979e-01	9.358359e-01	1.164147e+00	8.851341e-01	8.538361e-01	8.706347e-01	8.576905e-01	8.639692e-01	8.606401e-01	8.683294e-01	1.042988e+00	8.461743e-01	9.775490e-01	8.499733e-01	8.197378e-01	8.278152e-01	1.018710e+00	8.182280e-01	1.003612e+00	8.544715e-01	8.348243e-01	9.053923e-01	8.849975e-01	8.774971e-01	8.431822e-01	8.891876e-01	9.880854e-01	1.070114e+00	1.157649e+00	1.209199e+00	8.234959e-01	1.002356e+00	1.012767e+00	1.087634e+00	1.133871e+00	9.661198e-01	8.225121e-01	8.739860e-01	9.258243e-01	9.457552e-01	8.762316e-01	8.280110e-01	8.812289e-01	9.066145e-01	9.600908e-01	1.248743e+00	1.133829e+00	8.341474e-01	8.387144e-01	1.211158e+00	8.250555e-01	8.947147e-01	8.183308e-01	8.204866e-01	8.554532e-01	9.160305e-01	1.279729e+00	1.318486e+00	8.546392e-01	1.324587e+00	7.951264e-01	7.745862e-01	7.811476e-01	7.756139e-01	8.178327e-01	1.140214e+00	8.498273e-01	8.349035e-01	1.097231e+00	1.105871e+00	1.052285e+00	8.399923e-01	8.254991e-01	8.117799e-01	1.083647e+00	1.067049e+00	7.730627e-01	1.092477e+00	1.106616e+00	1.099062e+00	7.739953e-01	7.731891e-01	8.004061e-01	7.964353e-01	7.836673e-01	8.039656e-01	8.300176e-01	8.146199e-01	7.807945e-01	7.772161e-01	8.923380e-01	7.865726e-01	7.901804e-01	9.072737e-01	8.656825e-01	9.569831e-01	9.398899e-01	9.915038e-01	9.742818e-01	1.023931e+00	1.008232e+00	1.059447e+00	1.038437e+00	1.104231e+00	1.075185e+00	1.102347e+00	1.031325e+00	1.045365e+00	9.999599e-01	1.016230e+00	9.656283e-01	9.829355e-01	9.315028e-01	9.483890e-01	8.996266e-01	9.151734e-01	8.598321e-01	8.853966e-01	7.882760e-01	7.922416e-01	7.822937e-01	7.850637e-01	7.771696e-01	7.790783e-01	8.464866e-01	7.868942e-01	8.312922e-01	9.814640e-01	1.043720e+00	9.557835e-01	8.228452e-01	8.673388e-01	1.053428e+00	8.069078e-01	9.226161e-01	7.735439e-01	7.727976e-01	7.984566e-01	7.745709e-01	1.090301e+00	1.092375e+00	8.022513e-01	1.099372e+00	1.110420e+00	8.055946e-01	8.093355e-01	1.091889e+00	1.206471e+00	1.157952e+00	1.174455e+00	8.933521e-01	9.969996e-01	1.124415e+00	8.450056e-01	1.286683e+00	1.170398e+00	9.300549e-01	8.611222e-01	8.190174e-01	7.851178e-01	1.199587e+00	1.259539e+00	8.238802e-01	9.165113e-01	1.003319e+00	1.199631e+00	8.735094e-01	9.118634e-01	9.456818e-01	1.133353e+00	8.258180e-01	9.762946e-01	9.657737e-01	9.126316e-01	1.317253e+00	8.363979e-01	1.132826e+00	1.041624e+00	8.603824e-01	9.212408e-01	9.028911e-01	8.580271e-01	9.245762e-01	8.471613e-01	9.965499e-01	9.505748e-01	9.565249e-01	8.548444e-01	9.153170e-01	1.020540e+00	7.830620e-01	9.231562e-01	7.883533e-01	1.041857e+00	1.100606e+00	8.103987e-01	8.519226e-01	1.099646e+00	1.048671e+00	1.108354e+00	1.100928e+00	1.094589e+00	7.975271e-01	8.087047e-01	7.955974e-01	7.829277e-01	9.073318e-01	8.402408e-01	9.139802e-01	7.860478e-01	7.939960e-01	1.098098e+00	1.119028e+00	1.055546e+00	8.542389e-01	1.215365e+00	1.145818e+00	1.131612e+00	1.009092e+00	1.133514e+00	1.234089e+00	1.331025e+00	1.315060e+00	1.102264e+00	1.217657e+00	9.519858e-01	1.163047e+00	1.148576e+00	8.238398e-01	8.755332e-01	1.123031e+00	9.869509e-01	8.799746e-01	1.141661e+00	1.332380e+00	8.564855e-01	8.203900e-01	9.709825e-01	8.033974e-01	9.816526e-01	9.919995e-01	9.376462e-01	1.000358e+00	1.005625e+00	1.017435e+00	1.048645e+00	1.027463e+00	1.058816e+00	1.110019e+00	8.747650e-01	9.359154e-01	9.408168e-01	1.155386e+00	8.599543e-01	8.625932e-01	8.657141e-01	1.074343e+00	8.516674e-01	8.546381e-01	8.296459e-01	1.004273e+00	1.007901e+00	1.011330e+00	8.672680e-01	9.017279e-01	8.789460e-01	8.903292e-01	1.077036e+00	1.094514e+00	9.260435e-01	9.309749e-01	8.918710e-01	8.829163e-01	8.825737e-01	8.863662e-01	9.852005e-01	9.678236e-01	1.165344e+00	8.350761e-01	8.413115e-01	8.489967e-01	8.443967e-01	8.329291e-01	8.298583e-01	8.232764e-01	8.238091e-01	8.272959e-01	1.298359e+00	1.267562e+00	8.001597e-01	1.095900e+00	8.567036e-01	8.470030e-01	8.419165e-01	8.368435e-01	1.095746e+00	1.100203e+00	1.077312e+00	8.320899e-01	8.277366e-01	8.173384e-01	1.069903e+00	1.096249e+00	7.868044e-01	7.896305e-01	7.995005e-01	8.014591e-01	7.871950e-01	7.849454e-01	7.838425e-01	9.889529e-01	9.557116e-01	9.474235e-01	9.807209e-01	1.012979e+00	1.062591e+00	1.034943e+00	1.027848e+00	1.005209e+00	9.971741e-01	9.723789e-01	9.640338e-01	9.392271e-01	9.311230e-01	9.076772e-01	9.002932e-01	8.672960e-01	8.616940e-01	8.932646e-01	8.865175e-01	7.937740e-01	7.921603e-01	7.907565e-01	7.895319e-01	8.808001e-01	8.086121e-01	8.199822e-01	9.555554e-01	9.606329e-01	8.689902e-01	8.722302e-01	1.069723e+00	8.350098e-01	7.833643e-01	7.840837e-01	8.070380e-01	8.052667e-01	8.146605e-01	8.123360e-01	1.091039e+00	1.084526e+00	8.943910e-01	8.985911e-01	1.025305e+00	1.297444e+00	8.252586e-01	1.311609e+00	8.534823e-01	8.292056e-01	9.510667e-01	8.777084e-01	1.007442e+00	1.107321e+00	1.101255e+00	1.096613e+00	1.081186e+00	1.115974e+00	1.160563e+00	1.181452e+00	1.153144e+00	1.200927e+00	1.103906e+00	1.283259e+00	9.202848e-01	1.010849e+00	1.131558e+00	8.756503e-01	1.172914e+00	1.220862e+00	9.222686e-01	1.275977e+00	9.269362e-01	1.131352e+00	9.863621e-01	1.190709e+00	8.325203e-01	9.812344e-01	9.176630e-01	1.139453e+00	1.160738e+00	1.095994e+00	8.593350e-01	1.093256e+00	9.162924e-01	1.125966e+00	8.544305e-01	8.065613e-01	8.136987e-01	7.935535e-01	7.998229e-01	1.171571e+00	1.293314e+00	1.184885e+00	9.088699e-01	1.240742e+00	1.055117e+00	9.323246e-01	1.312120e+00	8.665427e-01	8.627446e-01	1.078027e+00	9.819605e-01	1.017742e+00	9.871789e-01	9.238616e-01	1.097524e+00	1.095649e+00	1.051740e+00	1.045114e+00	8.120064e-01	8.084493e-01	8.009991e-01	7.917972e-01	9.087121e-01	9.131383e-01	8.458263e-01	9.421830e-01	7.926953e-01	1.095971e+00	1.136242e+00	1.028972e+00	1.134220e+00	1.249581e+00	1.315000e+00	1.053693e+00	1.186192e+00	1.178452e+00	1.070322e+00	1.122723e+00	8.819622e-01	8.611110e-01	8.265698e-01	9.708769e-01	9.760466e-01	9.913488e-01	9.960366e-01	9.598048e-01	9.454927e-01	1.000284e+00	1.004063e+00	1.029628e+00	1.041165e+00	1.112210e+00	9.414404e-01	9.462664e-01	1.145974e+00	8.650179e-01	8.679875e-01	8.572350e-01	8.595389e-01	1.031620e+00	1.015033e+00	1.021002e+00	8.815521e-01	8.736971e-01	8.810453e-01	8.845616e-01	1.085511e+00	1.099623e+00	9.317144e-01	9.366248e-01	9.092616e-01	8.990489e-01	8.898623e-01	8.882489e-01	8.921123e-01	1.011541e+00	9.928099e-01	9.755054e-01	8.368374e-01	8.424611e-01	8.483580e-01	8.605056e-01	8.551644e-01	8.503134e-01	8.417981e-01	8.381812e-01	8.289200e-01	8.298749e-01	8.350761e-01	8.181443e-01	8.492922e-01	8.440626e-01	1.096482e+00	8.390956e-01	8.344816e-01	8.303022e-01	8.232967e-01	1.071764e+00	8.042092e-01	8.101970e-01	8.046549e-01	8.028042e-01	7.921194e-01	7.919385e-01	7.917692e-01	9.552713e-01	1.065110e+00	1.058364e+00	1.038449e+00	1.031737e+00	1.024907e+00	1.010341e+00	1.002818e+00	9.950648e-01	9.792994e-01	9.713070e-01	9.632875e-01	9.473136e-01	9.393938e-01	9.315861e-01	9.089003e-01	8.695563e-01	8.642852e-01	9.018046e-01	8.949900e-01	8.883926e-01	7.993197e-01	7.977847e-01	7.965024e-01	7.954040e-01	7.944697e-01	8.287496e-01	8.425671e-01	9.559164e-01	9.608717e-01	9.658231e-01	8.711923e-01	8.744251e-01	8.600687e-01	8.817366e-01	7.926736e-01	7.944728e-01	7.967743e-01	8.102848e-01	8.204226e-01	8.178855e-01	8.156056e-01	1.089390e+00	1.084278e+00	1.078288e+00	8.960873e-01	9.001859e-01	9.043886e-01	8.324635e-01	8.304906e-01	1.289945e+00	9.281008e-01	1.129356e+00	1.097677e+00	8.830960e-01	1.261894e+00	1.159456e+00	1.013179e+00	1.018103e+00	1.057419e+00	1.112694e+00	8.576041e-01	1.271270e+00	9.660522e-01	1.206348e+00	1.092415e+00	1.120629e+00	1.172031e+00	9.172794e-01	1.130612e+00	1.185407e+00	1.188067e+00	9.563952e-01	8.739539e-01	1.104105e+00	8.600135e-01	9.402530e-01	8.662797e-01	8.357806e-01	1.101034e+00	8.780687e-01	1.090332e+00	1.087298e+00	9.861656e-01	7.998753e-01	8.103140e-01	1.122118e+00	8.186873e-01	9.865900e-01	1.146693e+00	1.106000e+00	1.144057e+00	1.078630e+00	1.128381e+00	9.234009e-01	1.231575e+00	9.285108e-01	9.326038e-01	1.154393e+00	1.129950e+00	1.180681e+00	1.015149e+00	8.615442e-01	8.157874e-01	1.219411e+00	1.002401e+00	9.253570e-01	1.048416e+00	8.175527e-01	8.140186e-01	8.121408e-01	9.144778e-01	9.194773e-01	1.095702e+00	1.042547e+00	1.086582e+00	1.254719e+00	1.296767e+00	1.080052e+00	1.065698e+00	1.113091e+00	8.850290e-01	9.764873e-01	9.814731e-01	9.914628e-01	9.961962e-01	9.674021e-01	9.532873e-01	1.000616e+00	1.004880e+00	1.009007e+00	1.041510e+00	1.053086e+00	9.468060e-01	9.520323e-01	1.137239e+00	8.682061e-01	8.708982e-01	8.628963e-01	8.647498e-01	1.024026e+00	1.031681e+00	8.891084e-01	8.806300e-01	8.871887e-01	1.091098e+00	1.102743e+00	9.377234e-01	9.429963e-01	9.169112e-01	9.067769e-01	8.977965e-01	8.901681e-01	8.945550e-01	1.037361e+00	1.017933e+00	9.994135e-01	9.825743e-01	8.403619e-01	8.449254e-01	8.502782e-01	8.555053e-01	8.679466e-01	8.623779e-01	8.571410e-01	8.524398e-01	8.482174e-01	8.373005e-01	8.358075e-01	8.445400e-01	8.519853e-01	1.094599e+00	1.093693e+00	8.468605e-01	8.420338e-01	8.375883e-01	8.335790e-01	8.300189e-01	8.268044e-01	8.370768e-01	8.085047e-01	8.068810e-01	7.996672e-01	7.999736e-01	8.007412e-01	8.014956e-01	1.067028e+00	1.060914e+00	1.054738e+00	1.042056e+00	1.035723e+00	1.029368e+00	1.021897e+00	1.008908e+00	1.000845e+00	9.934063e-01	9.781921e-01	9.709369e-01	9.627656e-01	9.555926e-01	9.473343e-01	9.403324e-01	9.321170e-01	8.673636e-01	8.717324e-01	9.108724e-01	9.031610e-01	8.972446e-01	8.900178e-01	8.053005e-01	8.039397e-01	8.026156e-01	8.015967e-01	8.007038e-01	8.001103e-01	8.492053e-01	8.647094e-01	9.616012e-01	9.667658e-01	9.715210e-01	8.740797e-01	8.764165e-01	8.803359e-01	8.841573e-01	9.071235e-01	9.339714e-01	8.026036e-01	8.048923e-01	8.086857e-01	8.131205e-01	8.268869e-01	8.241601e-01	8.217162e-01	8.193704e-01	1.072927e+00	1.083239e+00	1.078467e+00	8.978117e-01	9.024300e-01	9.059264e-01	9.107492e-01	8.413368e-01	8.387465e-01	8.368136e-01	1.148052e+00	1.125343e+00	1.073701e+00	1.177465e+00	1.171259e+00	9.363802e-01	9.362941e-01	1.193494e+00	1.096515e+00	1.235366e+00	1.081065e+00	8.826962e-01	8.076743e-01	1.018707e+00	1.127167e+00	1.234989e+00	1.292320e+00	1.294372e+00	1.281517e+00	1.250850e+00	1.138724e+00	8.218745e-01	1.084565e+00	1.121530e+00	1.026545e+00	9.595734e-01	8.664524e-01	1.115925e+00	1.068626e+00	1.081997e+00	8.773884e-01	8.678123e-01	9.226591e-01	9.813154e-01	8.606228e-01	8.874905e-01	8.229567e-01	1.109673e+00	9.483822e-01	1.165199e+00	1.099799e+00	1.292576e+00	1.182391e+00	1.173230e+00	1.019720e+00	1.061230e+00	1.266771e+00	9.858880e-01	1.215152e+00	1.088026e+00	1.162028e+00	1.177068e+00	1.178082e+00	1.125471e+00	8.423683e-01	8.430931e-01	1.104119e+00	8.873889e-01	1.085384e+00	1.113477e+00	9.275527e-01	1.200182e+00	8.193603e-01	8.182283e-01	8.156991e-01	9.187705e-01	1.053287e+00	1.090003e+00	1.275307e+00	1.103694e+00	9.825622e-01	9.866800e-01	9.920576e-01	9.964853e-01	9.611977e-01	9.754558e-01	1.001611e+00	1.005604e+00	1.010546e+00	1.015615e+00	1.052037e+00	1.062704e+00	9.507964e-01	1.128574e+00	8.712882e-01	8.741592e-01	8.679889e-01	8.702931e-01	1.033977e+00	1.042187e+00	8.964394e-01	8.873701e-01	1.095029e+00	1.104728e+00	9.443564e-01	9.247688e-01	9.139030e-01	9.071988e-01	8.946966e-01	1.042325e+00	1.023731e+00	1.005929e+00	9.904275e-01	8.452042e-01	8.475743e-01	8.527400e-01	8.570487e-01	8.623093e-01	8.749195e-01	8.704797e-01	8.634218e-01	8.598964e-01	8.541880e-01	1.094057e+00	1.092109e+00	1.090214e+00	8.543511e-01	8.501515e-01	8.447139e-01	8.412221e-01	8.365603e-01	8.442518e-01	8.563795e-01	8.147471e-01	8.124317e-01	8.070589e-01	8.098470e-01	8.118346e-01	1.062732e+00	1.057299e+00	1.051225e+00	1.045389e+00	1.039175e+00	1.033230e+00	1.026391e+00	1.016497e+00	1.007092e+00	9.954007e-01	9.666349e-01	9.518464e-01	9.371547e-01	9.086564e-01	8.962898e-01	8.118508e-01	8.097705e-01	8.095571e-01	8.076355e-01	8.080037e-01	8.072838e-01	8.072609e-01	8.706269e-01	8.867896e-01	9.677439e-01	9.722233e-01	9.772688e-01	8.772646e-01	8.811116e-01	9.067085e-01	9.305697e-01	9.565291e-01	8.138213e-01	8.168072e-01	8.216765e-01	8.286894e-01	8.357925e-01	8.339604e-01	8.301888e-01	8.285685e-01	8.257734e-01	1.078201e+00	1.072942e+00	9.023148e-01	9.103396e-01	8.516330e-01	8.471329e-01	8.457377e-01	8.427912e-01	1.166078e+00	1.154375e+00	1.181134e+00	1.254996e+00	1.180682e+00	1.088606e+00	1.106554e+00	1.183411e+00	1.086403e+00	1.141045e+00	1.105939e+00	1.255339e+00	1.081815e+00	1.161524e+00	8.282860e-01	1.177728e+00	1.060980e+00	1.152352e+00	1.141413e+00	1.079418e+00	8.887997e-01	1.101715e+00	8.496558e-01	1.035165e+00	1.024796e+00	9.106094e-01	9.442013e-01	8.864940e-01	1.231222e+00	8.726342e-01	9.701548e-01	9.573017e-01	8.172469e-01	1.094246e+00	1.066031e+00	1.212905e+00	1.031031e+00	1.070053e+00	1.170731e+00	1.097582e+00	1.291357e+00	1.244999e+00	1.113742e+00	9.441406e-01	8.700703e-01	8.599707e-01	1.112130e+00	1.173869e+00	1.129521e+00	1.275257e+00	1.176732e+00	1.064257e+00	1.216966e+00	1.199795e+00	8.879912e-01	1.101541e+00	1.083946e+00	1.080338e+00	8.786831e-01	8.245639e-01	8.210618e-01	9.358640e-01	1.091855e+00	1.122782e+00	1.122176e+00	9.901248e-01	9.994888e-01	9.830041e-01	1.009059e+00	1.017510e+00	1.060615e+00	1.120995e+00	8.760567e-01	1.043362e+00	1.051497e+00	8.996433e-01	1.097454e+00	9.513560e-01	9.587459e-01	9.280339e-01	9.145873e-01	8.954350e-01	1.046654e+00	1.028097e+00	1.011329e+00	9.997708e-01	8.534494e-01	8.612415e-01	8.688091e-01	8.740464e-01	8.636744e-01	1.091457e+00	1.088962e+00	8.503552e-01	8.422123e-01	8.759945e-01	8.182394e-01	8.225103e-01	1.003199e+00	1.056070e+00	1.044842e+00	1.033302e+00	1.022714e+00	1.013322e+00	9.908546e-01	9.771688e-01	9.630725e-01	9.489373e-01	9.347848e-01	9.208116e-01	9.080922e-01	8.975920e-01	8.161867e-01	8.148760e-01	8.150882e-01	8.138238e-01	8.158863e-01	8.921829e-01	9.090284e-01	9.672447e-01	9.753265e-01	9.832587e-01	8.800644e-01	8.837880e-01	9.281703e-01	9.512347e-01	9.763583e-01	1.002457e+00	8.263258e-01	8.299274e-01	8.354788e-01	8.439583e-01	8.548040e-01	8.607948e-01	8.360369e-01	8.325515e-01	1.077797e+00	1.073291e+00	9.028460e-01	9.187240e-01	9.272088e-01	8.557839e-01	8.507870e-01	1.117389e+00	1.166019e+00	1.161177e+00	1.136253e+00	1.025472e+00	1.108370e+00	1.173798e+00	1.135620e+00	1.185597e+00	1.135184e+00	1.147604e+00	1.126775e+00	1.092509e+00	1.193614e+00	1.235631e+00	1.088367e+00	9.515843e-01	8.359012e-01	1.125044e+00	1.017128e+00	1.099451e+00	8.876444e-01	1.066667e+00	1.169561e+00	8.756815e-01	1.043570e+00	9.189947e-01	8.966372e-01	1.083528e+00	1.091447e+00	1.082185e+00	1.067014e+00	1.171389e+00	1.098736e+00	1.103073e+00	1.082831e+00	8.283497e-01	8.985338e-01	9.355838e-01	9.897512e-01	1.150518e+00	1.157258e+00	1.272005e+00	1.075361e+00	1.085452e+00	1.175645e+00	1.099194e+00	1.169041e+00	1.152264e+00	8.908614e-01	1.224909e+00	9.799740e-01	9.646805e-01	1.094849e+00	1.233601e+00	1.067210e+00	1.106562e+00	9.439000e-01	1.254313e+00	1.176116e+00	1.005256e+00	1.213096e+00	1.200148e+00	8.801748e-01	1.117597e+00	1.079350e+00	8.891255e-01	8.319066e-01	9.086257e-01	1.118332e+00	1.143435e+00	9.980311e-01	1.007579e+00	1.025398e+00	1.034305e+00	1.114269e+00	8.793722e-01	1.051245e+00	1.059001e+00	8.698631e-01	9.748681e-01	9.828003e-01	9.588328e-01	9.500513e-01	9.347803e-01	9.199766e-01	1.049058e+00	8.581109e-01	8.628193e-01	9.055697e-01	8.916437e-01	9.271657e-01	1.091450e+00	8.707188e-01	8.609241e-01	8.331981e-01	1.059486e+00	1.049544e+00	1.009807e+00	1.038878e+00	1.028573e+00	1.019146e+00	9.991168e-01	9.867732e-01	9.735540e-01	9.600772e-01	9.464821e-01	9.328362e-01	9.199173e-01	8.255078e-01	8.236922e-01	8.228087e-01	8.228435e-01	8.230258e-01	8.273962e-01	9.123110e-01	9.305346e-01	9.666063e-01	9.900210e-01	8.826184e-01	8.863456e-01	9.484970e-01	9.694030e-01	9.929337e-01	1.016439e+00	1.041008e+00	8.402581e-01	8.460609e-01	8.514091e-01	8.596193e-01	8.717109e-01	8.521109e-01	8.451198e-01	8.401007e-01	1.074558e+00	1.067818e+00	9.035856e-01	9.111406e-01	8.791534e-01	8.690394e-01	8.617362e-01	8.577953e-01	1.152328e+00	1.152977e+00	1.149675e+00	1.121132e+00	1.156072e+00	1.140384e+00	1.113591e+00	1.050483e+00	1.172800e+00	1.120684e+00	1.117931e+00	1.071726e+00	1.166005e+00	1.084786e+00	8.331510e-01	1.137606e+00	1.141597e+00	1.128290e+00	1.169441e+00	1.070947e+00	9.260622e-01	1.027034e+00	1.024946e+00	9.594707e-01	1.132801e+00	1.131997e+00	1.128187e+00	1.171839e+00	1.172190e+00	9.002099e-01	9.