# vtk DataFile Version 3.0
vtk output
ASCII
DATASET UNSTRUCTURED_GRID
POINTS 200 float
9.997500e-01	-3.633243e-05	0.0	9.990000e-01	-1.454723e-04	0.0	9.977600e-01	-3.275074e-04	0.0	9.960200e-01	-5.899273e-04	0.0	9.937800e-01	-9.470952e-04	0.0	9.910500e-01	-1.422098e-03	0.0	9.878400e-01	-2.045520e-03	0.0	9.841300e-01	-2.853681e-03	0.0	9.799500e-01	-3.858896e-03	0.0	9.752800e-01	-5.058325e-03	0.0	9.701500e-01	-6.405149e-03	0.0	9.645400e-01	-7.840896e-03	0.0	9.584700e-01	-9.290226e-03	0.0	9.519400e-01	-1.069778e-02	0.0	9.449600e-01	-1.203562e-02	0.0	9.375400e-01	-1.330813e-02	0.0	9.296900e-01	-1.454263e-02	0.0	9.214000e-01	-1.577739e-02	0.0	9.127000e-01	-1.703967e-02	0.0	9.035800e-01	-1.835050e-02	0.0	8.940600e-01	-1.971353e-02	0.0	8.841500e-01	-2.112415e-02	0.0	8.738500e-01	-2.257414e-02	0.0	8.631800e-01	-2.405141e-02	0.0	8.521600e-01	-2.554530e-02	0.0	8.407700e-01	-2.705266e-02	0.0	8.290500e-01	-2.856423e-02	0.0	8.170100e-01	-3.007618e-02	0.0	8.046400e-01	-3.158769e-02	0.0	7.919700e-01	-3.309309e-02	0.0	7.790100e-01	-3.458912e-02	0.0	7.657800e-01	-3.607118e-02	0.0	7.522800e-01	-3.753670e-02	0.0	7.385200e-01	-3.898183e-02	0.0	7.245300e-01	-4.040071e-02	0.0	7.103200e-01	-4.178971e-02	0.0	6.958900e-01	-4.314626e-02	0.0	6.812700e-01	-4.446517e-02	0.0	6.664700e-01	-4.574343e-02	0.0	6.515000e-01	-4.697827e-02	0.0	6.363800e-01	-4.816639e-02	0.0	6.211300e-01	-4.930487e-02	0.0	6.057600e-01	-5.039185e-02	0.0	5.902800e-01	-5.142569e-02	0.0	5.747100e-01	-5.240435e-02	0.0	5.590600e-01	-5.332667e-02	0.0	5.433600e-01	-5.419055e-02	0.0	5.276100e-01	-5.499580e-02	0.0	5.118400e-01	-5.574077e-02	0.0	4.960500e-01	-5.642541e-02	0.0	4.802700e-01	-5.704838e-02	0.0	4.645100e-01	-5.760928e-02	0.0	4.487800e-01	-5.810764e-02	0.0	4.331100e-01	-5.854239e-02	0.0	4.175000e-01	-5.891329e-02	0.0	4.019700e-01	-5.921946e-02	0.0	3.865400e-01	-5.946000e-02	0.0	3.712300e-01	-5.963402e-02	0.0	3.560400e-01	-5.974074e-02	0.0	3.409900e-01	-5.977900e-02	0.0	3.261100e-01	-5.974770e-02	0.0	3.114000e-01	-5.964567e-02	0.0	2.968700e-01	-5.947157e-02	0.0	2.825500e-01	-5.922430e-02	0.0	2.684500e-01	-5.890258e-02	0.0	2.545700e-01	-5.850471e-02	0.0	2.409400e-01	-5.802985e-02	0.0	2.275700e-01	-5.747670e-02	0.0	2.144700e-01	-5.684398e-02	0.0	2.016600e-01	-5.613101e-02	0.0	1.891400e-01	-5.533611e-02	0.0	1.769300e-01	-5.445886e-02	0.0	1.650400e-01	-5.349842e-02	0.0	1.534900e-01	-5.245501e-02	0.0	1.422900e-01	-5.132836e-02	0.0	1.314400e-01	-5.011721e-02	0.0	1.209500e-01	-4.882129e-02	0.0	1.108500e-01	-4.744341e-02	0.0	1.011300e-01	-4.598140e-02	0.0	9.181000e-02	-4.443735e-02	0.0	8.290000e-02	-4.281240e-02	0.0	7.440000e-02	-4.110589e-02	0.0	6.633000e-02	-3.932138e-02	0.0	5.869000e-02	-3.745855e-02	0.0	5.149000e-02	-3.551943e-02	0.0	4.474000e-02	-3.350655e-02	0.0	3.844000e-02	-3.141959e-02	0.0	3.260000e-02	-2.926139e-02	0.0	2.723000e-02	-2.703566e-02	0.0	2.232000e-02	-2.473734e-02	0.0	1.790000e-02	-2.238045e-02	0.0	1.395000e-02	-1.995416e-02	0.0	1.049000e-02	-1.746973e-02	0.0	7.520000e-03	-1.492807e-02	0.0	5.040000e-03	-1.232936e-02	0.0	3.050000e-03	-9.672075e-03	0.0	1.560000e-03	-6.971438e-03	0.0	5.600000e-04	-4.206306e-03	0.0	6.000000e-05	-1.384028e-03	0.0	0.000000e+00	0.000000e+00	0.0	6.000000e-05	1.263733e-03	0.0	5.600000e-04	3.625031e-03	0.0	1.560000e-03	5.788824e-03	0.0	3.050000e-03	7.806863e-03	0.0	5.040000e-03	9.724169e-03	0.0	7.520000e-03	1.154849e-02	0.0	1.049000e-02	1.329482e-02	0.0	1.395000e-02	1.497367e-02	0.0	1.790000e-02	1.659294e-02	0.0	2.232000e-02	1.815227e-02	0.0	2.723000e-02	1.966479e-02	0.0	3.260000e-02	2.112639e-02	0.0	3.844000e-02	2.254474e-02	0.0	4.474000e-02	2.392122e-02	0.0	5.149000e-02	2.525721e-02	0.0	5.869000e-02	2.655572e-02	0.0	6.633000e-02	2.781748e-02	0.0	7.440000e-02	2.904315e-02	0.0	8.290000e-02	3.023466e-02	0.0	9.181000e-02	3.139090e-02	0.0	1.011300e-01	3.251337e-02	0.0	1.108500e-01	3.360205e-02	0.0	1.209500e-01	3.465581e-02	0.0	1.314400e-01	3.567650e-02	0.0	1.422900e-01	3.666183e-02	0.0	1.534900e-01	3.761155e-02	0.0	1.650400e-01	3.852601e-02	0.0	1.769300e-01	3.940453e-02	0.0	1.891400e-01	4.024564e-02	0.0	2.016600e-01	4.104855e-02	0.0	2.144700e-01	4.181177e-02	0.0	2.275700e-01	4.253489e-02	0.0	2.409400e-01	4.321619e-02	0.0	2.545700e-01	4.385444e-02	0.0	2.684500e-01	4.444821e-02	0.0	2.825500e-01	4.499522e-02	0.0	2.968700e-01	4.549428e-02	0.0	3.114000e-01	4.594362e-02	0.0	3.261100e-01	4.634077e-02	0.0	3.409900e-01	4.668386e-02	0.0	3.560400e-01	4.697102e-02	0.0	3.712300e-01	4.719969e-02	0.0	3.865400e-01	4.736755e-02	0.0	4.019700e-01	4.747246e-02	0.0	4.175000e-01	4.751197e-02	0.0	4.331100e-01	4.748373e-02	0.0	4.487800e-01	4.738550e-02	0.0	4.645100e-01	4.721494e-02	0.0	4.802700e-01	4.697007e-02	0.0	4.960500e-01	4.664887e-02	0.0	5.118400e-01	4.624941e-02	0.0	5.276100e-01	4.577056e-02	0.0	5.433600e-01	4.521063e-02	0.0	5.590600e-01	4.456925e-02	0.0	5.747100e-01	4.384530e-02	0.0	5.902800e-01	4.303942e-02	0.0	6.057600e-01	4.215189e-02	0.0	6.211300e-01	4.118408e-02	0.0	6.363800e-01	4.013739e-02	0.0	6.515000e-01	3.901377e-02	0.0	6.664700e-01	3.781656e-02	0.0	6.812700e-01	3.655000e-02	0.0	6.958900e-01	3.521821e-02	0.0	7.103200e-01	3.382601e-02	0.0	7.245300e-01	3.238097e-02	0.0	7.385200e-01	3.088843e-02	0.0	7.522800e-01	2.935532e-02	0.0	7.657800e-01	2.779156e-02	0.0	7.790100e-01	2.620551e-02	0.0	7.919700e-01	2.460482e-02	0.0	8.046400e-01	2.300002e-02	0.0	8.170100e-01	2.140074e-02	0.0	8.290500e-01	1.981933e-02	0.0	8.407700e-01	1.826260e-02	0.0	8.521600e-01	1.673897e-02	0.0	8.631800e-01	1.525930e-02	0.0	8.738500e-01	1.382406e-02	0.0	8.841500e-01	1.243647e-02	0.0	8.940600e-01	1.109774e-02	0.0	9.035800e-01	9.806185e-03	0.0	9.127000e-01	8.564500e-03	0.0	9.214000e-01	7.383634e-03	0.0	9.296900e-01	6.280150e-03	0.0	9.375400e-01	5.285008e-03	0.0	9.449600e-01	4.427353e-03	0.0	9.519400e-01	3.732099e-03	0.0	9.584700e-01	3.205363e-03	0.0	9.645400e-01	2.826969e-03	0.0	9.701500e-01	2.552059e-03	0.0	9.752800e-01	2.324834e-03	0.0	9.799500e-01	2.093061e-03	0.0	9.841300e-01	1.827023e-03	0.0	9.878400e-01	1.519899e-03	0.0	9.910500e-01	1.190201e-03	0.0	9.937800e-01	8.630213e-04	0.0	9.960200e-01	5.666262e-04	0.0	9.977600e-01	3.231882e-04	0.0	9.990000e-01	1.450783e-04	0.0	9.997500e-01	3.632619e-05	0.0	1.000000e+00	0.000000e+00	0.0	
CELLS 200	600
2	149	150	2	150	151	2	151	152	2	152	153	2	153	154	2	154	155	2	155	156	2	156	157	2	157	158	2	158	159	2	159	160	2	160	161	2	161	162	2	162	163	2	163	164	2	164	165	2	165	166	2	166	167	2	167	168	2	168	169	2	169	170	2	170	171	2	171	172	2	172	173	2	173	174	2	174	175	2	175	176	2	176	177	2	177	178	2	178	179	2	179	180	2	180	181	2	181	182	2	31	32	2	32	33	2	33	34	2	34	35	2	35	36	2	36	37	2	37	38	2	38	39	2	39	40	2	40	41	2	41	42	2	42	43	2	43	44	2	44	45	2	45	46	2	46	47	2	47	48	2	48	49	2	49	50	2	50	51	2	51	52	2	52	53	2	53	54	2	54	55	2	55	56	2	56	57	2	57	58	2	58	59	2	59	60	2	60	61	2	61	62	2	62	63	2	63	64	2	64	65	2	65	66	2	66	67	2	67	68	2	68	69	2	69	70	2	70	71	2	71	72	2	72	73	2	73	74	2	74	75	2	75	76	2	76	77	2	77	78	2	78	79	2	79	80	2	80	81	2	81	82	2	82	83	2	83	84	2	113	114	2	114	115	2	115	116	2	116	117	2	117	118	2	118	119	2	119	120	2	120	121	2	121	122	2	122	123	2	123	124	2	124	125	2	125	126	2	126	127	2	127	128	2	128	129	2	129	130	2	130	131	2	131	132	2	132	133	2	133	134	2	134	135	2	135	136	2	136	137	2	137	138	2	138	139	2	139	140	2	140	141	2	141	142	2	142	143	2	143	144	2	144	145	2	145	146	2	146	147	2	147	148	2	148	149	2	84	85	2	85	86	2	86	87	2	87	88	2	88	89	2	89	90	2	90	91	2	91	92	2	92	93	2	93	94	2	94	95	2	95	96	2	96	97	2	97	98	2	98	99	2	99	100	2	100	101	2	101	102	2	102	103	2	103	104	2	104	105	2	105	106	2	106	107	2	107	108	2	108	109	2	109	110	2	110	111	2	111	112	2	112	113	2	199	0	2	0	1	2	1	2	2	2	3	2	3	4	2	4	5	2	5	6	2	6	7	2	182	183	2	183	184	2	184	185	2	185	186	2	186	187	2	187	188	2	188	189	2	189	190	2	190	191	2	191	192	2	192	193	2	193	194	2	194	195	2	195	196	2	196	197	2	197	198	2	198	199	2	7	8	2	8	9	2	9	10	2	10	11	2	11	12	2	12	13	2	13	14	2	14	15	2	15	16	2	16	17	2	17	18	2	18	19	2	19	20	2	20	21	2	21	22	2	22	23	2	23	24	2	24	25	2	25	26	2	26	27	2	27	28	2	28	29	2	29	30	2	30	31	
CELL_TYPES 200
3	3	3	3	3	3	3	3	3	3	3	3	3	3	3	3	3	3	3	3	3	3	3	3	3	3	3	3	3	3	3	3	3	3	3	3	3	3	3	3	3	3	3	3	3	3	3	3	3	3	3	3	3	3	3	3	3	3	3	3	3	3	3	3	3	3	3	3	3	3	3	3	3	3	3	3	3	3	3	3	3	3	3	3	3	3	3	3	3	3	3	3	3	3	3	3	3	3	3	3	3	3	3	3	3	3	3	3	3	3	3	3	3	3	3	3	3	3	3	3	3	3	3	3	3	3	3	3	3	3	3	3	3	3	3	3	3	3	3	3	3	3	3	3	3	3	3	3	3	3	3	3	3	3	3	3	3	3	3	3	3	3	3	3	3	3	3	3	3	3	3	3	3	3	3	3	3	3	3	3	3	3	3	3	3	3	3	3	3	3	3	3	3	3	3	3	3	3	3	3	
POINT_DATA 200

SCALARS Conservative_1 float 1
LOOKUP_TABLE default
1.199829e+00	1.181604e+00	1.171179e+00	1.164740e+00	1.160167e+00	1.155702e+00	1.148817e+00	1.137899e+00	1.121718e+00	1.100363e+00	1.075074e+00	1.048463e+00	1.024896e+00	1.008361e+00	9.999874e-01	9.979291e-01	9.990385e-01	1.000481e+00	1.000508e+00	9.985200e-01	9.947364e-01	9.897147e-01	9.840403e-01	9.781848e-01	9.724257e-01	9.668741e-01	9.615212e-01	9.563206e-01	9.512074e-01	9.461505e-01	9.411337e-01	9.361132e-01	9.310551e-01	9.259757e-01	9.209264e-01	9.159555e-01	9.110817e-01	9.063094e-01	9.016501e-01	8.971202e-01	8.927195e-01	8.884586e-01	8.843198e-01	8.803198e-01	8.764736e-01	8.728327e-01	8.693866e-01	8.660715e-01	8.627401e-01	8.593830e-01	8.562023e-01	8.535520e-01	8.515458e-01	8.498917e-01	8.479169e-01	8.448703e-01	8.402521e-01	8.342103e-01	8.276246e-01	8.217516e-01	8.174777e-01	8.149959e-01	8.140335e-01	8.141578e-01	8.150589e-01	8.165379e-01	8.185453e-01	8.209976e-01	8.238085e-01	8.268655e-01	8.301877e-01	8.339380e-01	8.383632e-01	8.435316e-01	8.493667e-01	8.557220e-01	8.626623e-01	8.703659e-01	8.788899e-01	8.882735e-01	8.986286e-01	9.100140e-01	9.225812e-01	9.364479e-01	9.518042e-01	9.689270e-01	9.880447e-01	1.009516e+00	1.033826e+00	1.061291e+00	1.092440e+00	1.127742e+00	1.167043e+00	1.209885e+00	1.254555e+00	1.298041e+00	1.331744e+00	1.350900e+00	1.339534e+00	1.308270e+00	1.284257e+00	1.221093e+00	1.099449e+00	1.001969e+00	9.259734e-01	8.702672e-01	8.322883e-01	8.072870e-01	7.904572e-01	7.790594e-01	7.713984e-01	7.663052e-01	7.632203e-01	7.614062e-01	7.604889e-01	7.604649e-01	7.612057e-01	7.624746e-01	7.639499e-01	7.653048e-01	7.665560e-01	7.680274e-01	7.699775e-01	7.722563e-01	7.744646e-01	7.763745e-01	7.780778e-01	7.797216e-01	7.814089e-01	7.832099e-01	7.851800e-01	7.873029e-01	7.895059e-01	7.916887e-01	7.938079e-01	7.958382e-01	7.977696e-01	7.995637e-01	8.012297e-01	8.028834e-01	8.047378e-01	8.069497e-01	8.095680e-01	8.125535e-01	8.159060e-01	8.196836e-01	8.239158e-01	8.285742e-01	8.334943e-01	8.384771e-01	8.433206e-01	8.480791e-01	8.530452e-01	8.585662e-01	8.647024e-01	8.712246e-01	8.779125e-01	8.847654e-01	8.919512e-01	8.995176e-01	9.074130e-01	9.155496e-01	9.238781e-01	9.323864e-01	9.410449e-01	9.498403e-01	9.587224e-01	9.676735e-01	9.766192e-01	9.855622e-01	9.944194e-01	1.003110e+00	1.011572e+00	1.019720e+00	1.027509e+00	1.034918e+00	1.041993e+00	1.048913e+00	1.055940e+00	1.063461e+00	1.071775e+00	1.080976e+00	1.090684e+00	1.100037e+00	1.107783e+00	1.112588e+00	1.113362e+00	1.109742e+00	1.102492e+00	1.093778e+00	1.086676e+00	1.084159e+00	1.088063e+00	1.098279e+00	1.112852e+00	1.130017e+00	1.148479e+00	1.168636e+00	1.192714e+00	1.181127e+00	
SCALARS Conservative_2 float 1
LOOKUP_TABLE default
7.195755e-01	7.459509e-01	7.640416e-01	7.748508e-01	7.807425e-01	7.855159e-01	7.913218e-01	8.009869e-01	8.159963e-01	8.364032e-01	8.604919e-01	8.849349e-01	9.060894e-01	9.215744e-01	9.308008e-01	9.347637e-01	9.355178e-01	9.351572e-01	9.351407e-01	9.360801e-01	9.380289e-01	9.406861e-01	9.436761e-01	9.467085e-01	9.495966e-01	9.522746e-01	9.547376e-01	9.570276e-01	9.591550e-01	9.611521e-01	9.630540e-01	9.648529e-01	9.665630e-01	9.681821e-01	9.696976e-01	9.710974e-01	9.723961e-01	9.735746e-01	9.746432e-01	9.756172e-01	9.764775e-01	9.772592e-01	9.779357e-01	9.785442e-01	9.790520e-01	9.795002e-01	9.798659e-01	9.802012e-01	9.804743e-01	9.807243e-01	9.808923e-01	9.810053e-01	9.810481e-01	9.810777e-01	9.811132e-01	9.811869e-01	9.812257e-01	9.811488e-01	9.808247e-01	9.803293e-01	9.798253e-01	9.794121e-01	9.791624e-01	9.790112e-01	9.789589e-01	9.789151e-01	9.789023e-01	9.788490e-01	9.787686e-01	9.785940e-01	9.783388e-01	9.779490e-01	9.774266e-01	9.766915e-01	9.757310e-01	9.744050e-01	9.727332e-01	9.706212e-01	9.678382e-01	9.642295e-01	9.597048e-01	9.539723e-01	9.467687e-01	9.376771e-01	9.261821e-01	9.115553e-01	8.928650e-01	8.690365e-01	8.384973e-01	7.990977e-01	7.483519e-01	6.832123e-01	6.000151e-01	4.965558e-01	3.728426e-01	2.366355e-01	1.074521e-01	1.080659e-02	-2.157889e-02	5.237558e-03	7.306831e-02	2.105247e-01	4.135562e-01	5.903184e-01	7.153206e-01	7.968867e-01	8.484630e-01	8.813675e-01	9.026330e-01	9.169610e-01	9.269984e-01	9.341643e-01	9.396330e-01	9.439094e-01	9.473406e-01	9.502823e-01	9.527968e-01	9.549704e-01	9.569004e-01	9.585655e-01	9.600511e-01	9.614707e-01	9.628399e-01	9.640710e-01	9.651689e-01	9.661321e-01	9.670168e-01	9.678277e-01	9.686070e-01	9.693515e-01	9.700936e-01	9.708128e-01	9.715128e-01	9.721620e-01	9.727744e-01	9.733346e-01	9.738555e-01	9.743279e-01	9.747661e-01	9.751876e-01	9.756407e-01	9.761043e-01	9.765848e-01	9.770649e-01	9.775403e-01	9.780092e-01	9.784414e-01	9.788391e-01	9.791204e-01	9.793173e-01	9.794127e-01	9.794430e-01	9.793886e-01	9.792220e-01	9.788785e-01	9.783295e-01	9.776104e-01	9.766664e-01	9.755022e-01	9.740598e-01	9.723369e-01	9.703080e-01	9.679779e-01	9.653303e-01	9.623605e-01	9.590622e-01	9.554341e-01	9.515162e-01	9.472426e-01	9.427247e-01	9.379690e-01	9.329943e-01	9.279162e-01	9.227899e-01	9.176700e-01	9.125826e-01	9.074719e-01	9.022150e-01	8.965194e-01	8.900888e-01	8.825876e-01	8.740086e-01	8.647775e-01	8.559770e-01	8.491467e-01	8.458525e-01	8.471039e-01	8.528054e-01	8.614980e-01	8.705160e-01	8.765538e-01	8.769691e-01	8.704552e-01	8.577451e-01	8.395708e-01	8.174799e-01	7.911834e-01	7.596457e-01	7.213193e-01	6.623531e-01	
SCALARS Conservative_3 float 1
LOOKUP_TABLE default
1.010185e-01	1.066669e-01	1.128621e-01	1.197579e-01	1.301707e-01	1.447850e-01	1.632545e-01	1.836662e-01	2.028719e-01	2.169497e-01	2.227176e-01	2.185985e-01	2.055590e-01	1.873934e-01	1.688265e-01	1.535263e-01	1.431308e-01	1.373995e-01	1.349808e-01	1.342426e-01	1.338891e-01	1.331568e-01	1.317602e-01	1.297268e-01	1.272250e-01	1.244542e-01	1.215480e-01	1.185956e-01	1.156228e-01	1.126173e-01	1.095678e-01	1.064538e-01	1.032639e-01	9.999059e-02	9.661991e-02	9.316675e-02	8.962752e-02	8.602073e-02	8.235273e-02	7.863549e-02	7.488224e-02	7.109981e-02	6.730672e-02	6.350447e-02	5.970060e-02	5.588647e-02	5.206587e-02	4.825085e-02	4.446495e-02	4.071253e-02	3.695727e-02	3.314236e-02	2.924533e-02	2.525320e-02	2.119825e-02	1.712443e-02	1.307674e-02	9.042012e-03	4.912600e-03	5.520721e-04	-4.076237e-03	-8.950764e-03	-1.406016e-02	-1.939304e-02	-2.498764e-02	-3.087200e-02	-3.710243e-02	-4.369577e-02	-5.068561e-02	-5.809189e-02	-6.596152e-02	-7.435859e-02	-8.335344e-02	-9.297860e-02	-1.032767e-01	-1.142997e-01	-1.261586e-01	-1.389200e-01	-1.526599e-01	-1.675024e-01	-1.835660e-01	-2.009631e-01	-2.198492e-01	-2.403592e-01	-2.626137e-01	-2.867308e-01	-3.127815e-01	-3.407113e-01	-3.701339e-01	-4.003186e-01	-4.297904e-01	-4.554436e-01	-4.722050e-01	-4.716597e-01	-4.408894e-01	-3.644628e-01	-2.306582e-01	-3.807092e-02	1.858037e-01	3.519003e-01	4.964094e-01	6.611415e-01	7.236598e-01	6.884054e-01	6.111964e-01	5.275170e-01	4.530529e-01	3.913029e-01	3.411269e-01	3.001251e-01	2.665582e-01	2.386402e-01	2.151967e-01	1.952754e-01	1.781408e-01	1.632787e-01	1.503041e-01	1.388650e-01	1.287073e-01	1.195594e-01	1.112225e-01	1.036278e-01	9.672568e-02	9.042362e-02	8.459139e-02	7.908307e-02	7.387309e-02	6.893689e-02	6.426500e-02	5.980706e-02	5.553121e-02	5.140591e-02	4.739989e-02	4.347528e-02	3.960778e-02	3.577760e-02	3.197092e-02	2.816633e-02	2.433455e-02	2.045534e-02	1.653220e-02	1.256742e-02	8.550327e-03	4.449022e-03	2.452197e-04	-4.067936e-03	-8.487735e-03	-1.300573e-02	-1.763791e-02	-2.239306e-02	-2.729167e-02	-3.235487e-02	-3.753356e-02	-4.279914e-02	-4.810008e-02	-5.345569e-02	-5.888162e-02	-6.435801e-02	-6.982726e-02	-7.524577e-02	-8.057301e-02	-8.579587e-02	-9.085600e-02	-9.572447e-02	-1.003313e-01	-1.046523e-01	-1.086170e-01	-1.121905e-01	-1.153176e-01	-1.179542e-01	-1.200597e-01	-1.216000e-01	-1.225765e-01	-1.230146e-01	-1.229869e-01	-1.226391e-01	-1.221461e-01	-1.216855e-01	-1.213288e-01	-1.209121e-01	-1.199033e-01	-1.174066e-01	-1.123052e-01	-1.037152e-01	-9.144708e-02	-7.642260e-02	-6.080409e-02	-4.767701e-02	-4.028508e-02	-4.083100e-02	-4.941009e-02	-6.378840e-02	-8.016047e-02	-9.479927e-02	-1.049849e-01	-1.097972e-01	-1.102826e-01	-1.061986e-01	-1.003425e-01	2.575563e-03	
SCALARS Conservative_4 float 1
LOOKUP_TABLE default
3.446401e+00	3.400790e+00	3.375502e+00	3.359982e+00	3.348832e+00	3.337960e+00	3.320863e+00	3.293675e+00	3.253303e+00	3.199974e+00	3.136708e+00	3.069894e+00	3.010547e+00	2.968891e+00	2.947823e+00	2.942635e+00	2.945381e+00	2.948939e+00	2.948914e+00	2.943784e+00	2.934111e+00	2.921297e+00	2.906810e+00	2.891846e+00	2.877105e+00	2.862873e+00	2.849129e+00	2.835759e+00	2.822594e+00	2.809558e+00	2.796617e+00	2.783651e+00	2.770572e+00	2.757424e+00	2.744339e+00	2.731442e+00	2.718786e+00	2.706377e+00	2.694248e+00	2.682447e+00	2.670965e+00	2.659842e+00	2.649022e+00	2.638560e+00	2.628484e+00	2.618942e+00	2.609898e+00	2.601200e+00	2.592450e+00	2.583634e+00	2.575266e+00	2.568284e+00	2.562979e+00	2.558602e+00	2.553391e+00	2.545382e+00	2.533246e+00	2.517353e+00	2.499973e+00	2.484425e+00	2.473076e+00	2.466457e+00	2.463877e+00	2.464181e+00	2.466562e+00	2.470471e+00	2.475790e+00	2.482280e+00	2.489724e+00	2.497809e+00	2.506595e+00	2.516498e+00	2.528175e+00	2.541789e+00	2.557149e+00	2.573837e+00	2.592049e+00	2.612245e+00	2.634527e+00	2.658983e+00	2.685922e+00	2.715458e+00	2.747976e+00	2.783741e+00	2.823204e+00	2.867022e+00	2.915711e+00	2.970150e+00	3.031490e+00	3.100381e+00	3.178087e+00	3.265654e+00	3.362445e+00	3.467274e+00	3.575827e+00	3.681278e+00	3.762484e+00	3.809724e+00	3.781239e+00	3.702866e+00	3.649629e+00	3.499824e+00	3.190732e+00	2.942820e+00	2.747833e+00	2.604088e+00	2.505861e+00	2.441121e+00	2.397379e+00	2.367659e+00	2.347655e+00	2.334294e+00	2.326221e+00	2.321497e+00	2.319138e+00	2.319171e+00	2.321225e+00	2.324669e+00	2.328675e+00	2.332358e+00	2.335775e+00	2.339795e+00	2.345086e+00	2.351220e+00	2.357155e+00	2.362292e+00	2.366884e+00	2.371314e+00	2.375862e+00	2.380707e+00	2.386003e+00	2.391700e+00	2.397608e+00	2.403455e+00	2.409131e+00	2.414565e+00	2.419735e+00	2.424537e+00	2.428998e+00	2.433428e+00	2.438399e+00	2.444313e+00	2.451301e+00	2.459257e+00	2.468181e+00	2.478225e+00	2.489460e+00	2.501815e+00	2.514833e+00	2.528006e+00	2.540799e+00	2.553366e+00	2.566471e+00	2.581022e+00	2.597161e+00	2.614279e+00	2.631809e+00	2.649737e+00	2.668509e+00	2.688235e+00	2.708784e+00	2.729918e+00	2.751510e+00	2.773525e+00	2.795883e+00	2.818551e+00	2.841392e+00	2.864374e+00	2.887277e+00	2.910139e+00	2.932738e+00	2.954860e+00	2.976367e+00	2.997043e+00	3.016777e+00	3.035519e+00	3.053384e+00	3.070831e+00	3.088497e+00	3.107367e+00	3.128165e+00	3.151144e+00	3.175350e+00	3.198670e+00	3.218029e+00	3.230132e+00	3.232247e+00	3.223405e+00	3.205424e+00	3.183662e+00	3.165774e+00	3.159220e+00	3.168680e+00	3.194030e+00	3.230161e+00	3.272672e+00	3.318105e+00	3.367492e+00	3.426997e+00	3.383859e+00	
SCALARS Pressure float 1
LOOKUP_TABLE default
1.290549e+00	1.264206e+00	1.248338e+00	1.238435e+00	1.231531e+00	1.224775e+00	1.214691e+00	1.198775e+00	1.175263e+00	1.144282e+00	1.107707e+00	1.069460e+00	1.035762e+00	1.012140e+00	1.000149e+00	9.972109e-01	9.988441e-01	1.000982e+00	1.001115e+00	9.983950e-01	9.931295e-01	9.861185e-01	9.782021e-01	9.700485e-01	9.620524e-01	9.543664e-01	9.469780e-01	9.398151e-01	9.327931e-01	9.258642e-01	9.189988e-01	9.121443e-01	9.052533e-01	8.983478e-01	8.914980e-01	8.847698e-01	8.781838e-01	8.717517e-01	8.654859e-01	8.594036e-01	8.535110e-01	8.478117e-01	8.422918e-01	8.369620e-01	8.318530e-01	8.270204e-01	8.224588e-01	8.180684e-01	8.136667e-01	8.092283e-01	8.050392e-01	8.015581e-01	7.989418e-01	7.967883e-01	7.942037e-01	7.901839e-01	7.840874e-01	7.761277e-01	7.675067e-01	7.598682e-01	7.543435e-01	7.511639e-01	7.499447e-01	7.501312e-01	7.513082e-01	7.532384e-01	7.558448e-01	7.590367e-01	7.626903e-01	7.666743e-01	7.710041e-01	7.759073e-01	7.817011e-01	7.884916e-01	7.961690e-01	8.045717e-01	8.137601e-01	8.239784e-01	8.353497e-01	8.479399e-01	8.618829e-01	8.772966e-01	8.943944e-01	9.133760e-01	9.345399e-01	9.583226e-01	9.851105e-01	1.015441e+00	1.050078e+00	1.089617e+00	1.134889e+00	1.186694e+00	1.245068e+00	1.309376e+00	1.377181e+00	1.443417e+00	1.495270e+00	1.523658e+00	1.507272e+00	1.462211e+00	1.420644e+00	1.321078e+00	1.149918e+00	1.012975e+00	9.079302e-01	8.317453e-01	7.800307e-01	7.460653e-01	7.233629e-01	7.080848e-01	6.978430e-01	6.910957e-01	6.869888e-01	6.845510e-01	6.832890e-01	6.831610e-01	6.840321e-01	6.855968e-01	6.874162e-01	6.890817e-01	6.906047e-01	6.923942e-01	6.948021e-01	6.976647e-01	7.004478e-01	7.028517e-01	7.049839e-01	7.070438e-01	7.091574e-01	7.114229e-01	7.139047e-01	7.165893e-01	7.193784e-01	7.221492e-01	7.248394e-01	7.274208e-01	7.298763e-01	7.321581e-01	7.342739e-01	7.363730e-01	7.387238e-01	7.415424e-01	7.448909e-01	7.487214e-01	7.530335e-01	7.579029e-01	7.633770e-01	7.694140e-01	7.758206e-01	7.823199e-01	7.886494e-01	7.948686e-01	8.013693e-01	8.086154e-01	8.167030e-01	8.253352e-01	8.342079e-01	8.433359e-01	8.529342e-01	8.630794e-01	8.737017e-01	8.846911e-01	8.959806e-01	9.075568e-01	9.193822e-01	9.314394e-01	9.436645e-01	9.560223e-01	9.684374e-01	9.808823e-01	9.932514e-01	1.005440e+00	1.017340e+00	1.028835e+00	1.039852e+00	1.050359e+00	1.060426e+00	1.070302e+00	1.080377e+00	1.091201e+00	1.103224e+00	1.116574e+00	1.130695e+00	1.144299e+00	1.155523e+00	1.162390e+00	1.163330e+00	1.157881e+00	1.147239e+00	1.134595e+00	1.124448e+00	1.121062e+00	1.127017e+00	1.141997e+00	1.163404e+00	1.188658e+00	1.216115e+00	1.246309e+00	1.281864e+00	1.279255e+00	
SCALARS Temperature float 1
LOOKUP_TABLE default
1.075611e+00	1.069907e+00	1.065882e+00	1.063272e+00	1.061512e+00	1.059768e+00	1.057341e+00	1.053499e+00	1.047735e+00	1.039913e+00	1.030355e+00	1.020026e+00	1.010603e+00	1.003748e+00	1.000161e+00	9.992802e-01	9.998055e-01	1.000501e+00	1.000606e+00	9.998748e-01	9.983846e-01	9.963663e-01	9.940671e-01	9.916823e-01	9.893326e-01	9.870638e-01	9.848748e-01	9.827407e-01	9.806411e-01	9.785591e-01	9.764806e-01	9.743952e-01	9.722876e-01	9.701635e-01	9.680448e-01	9.659528e-01	9.638914e-01	9.618698e-01	9.598910e-01	9.579581e-01	9.560796e-01	9.542502e-01	9.524742e-01	9.507477e-01	9.490908e-01	9.475131e-01	9.460219e-01	9.445738e-01	9.431191e-01	9.416387e-01	9.402441e-01	9.390852e-01	9.382253e-01	9.375175e-01	9.366527e-01	9.352725e-01	9.331574e-01	9.303741e-01	9.273609e-01	9.246933e-01	9.227695e-01	9.216781e-01	9.212700e-01	9.213585e-01	9.217838e-01	9.224782e-01	9.234000e-01	9.245297e-01	9.258102e-01	9.272056e-01	9.287106e-01	9.304137e-01	9.324134e-01	9.347505e-01	9.373678e-01	9.402256e-01	9.433124e-01	9.467035e-01	9.504600e-01	9.545933e-01	9.591092e-01	9.640473e-01	9.694479e-01	9.753623e-01	9.818615e-01	9.890555e-01	9.970303e-01	1.005869e+00	1.015720e+00	1.026690e+00	1.038857e+00	1.052275e+00	1.066857e+00	1.082233e+00	1.097745e+00	1.111996e+00	1.122791e+00	1.127884e+00	1.125221e+00	1.117668e+00	1.106200e+00	1.081881e+00	1.045904e+00	1.010985e+00	9.805143e-01	9.557355e-01	9.372121e-01	9.241637e-01	9.151197e-01	9.088971e-01	9.046466e-01	9.018543e-01	9.001186e-01	8.990615e-01	8.984865e-01	8.983465e-01	8.986166e-01	8.991733e-01	8.998184e-01	9.004016e-01	9.009188e-01	9.015227e-01	9.023668e-01	9.034107e-01	9.044284e-01	9.052998e-01	9.060583e-01	9.067901e-01	9.075369e-01	9.083425e-01	9.092242e-01	9.101824e-01	9.111755e-01	9.121631e-01	9.131169e-01	9.140311e-01	9.148962e-01	9.156969e-01	9.164337e-01	9.171606e-01	9.179683e-01	9.189450e-01	9.201091e-01	9.214426e-01	9.229414e-01	9.246287e-01	9.265231e-01	9.286000e-01	9.308049e-01	9.330248e-01	9.351715e-01	9.372576e-01	9.394219e-01	9.418208e-01	9.444903e-01	9.473277e-01	9.502176e-01	9.531746e-01	9.562565e-01	9.594914e-01	9.628490e-01	9.662951e-01	9.698039e-01	9.733698e-01	9.769801e-01	9.806274e-01	9.842937e-01	9.879595e-01	9.916223e-01	9.952515e-01	9.988255e-01	1.002323e+00	1.005703e+00	1.008938e+00	1.012012e+00	1.014920e+00	1.017691e+00	1.020391e+00	1.023142e+00	1.026085e+00	1.029343e+00	1.032931e+00	1.036684e+00	1.040237e+00	1.043095e+00	1.044762e+00	1.044881e+00	1.043378e+00	1.040587e+00	1.037318e+00	1.034759e+00	1.034039e+00	1.035801e+00	1.039807e+00	1.045425e+00	1.051895e+00	1.058892e+00	1.066464e+00	1.074745e+00	1.083081e+00	
SCALARS Pressure_Coefficient float 1
LOOKUP_TABLE default
6.485463e-01	5.897454e-01	5.543263e-01	5.322217e-01	5.168096e-01	5.017301e-01	4.792202e-01	4.436948e-01	3.912126e-01	3.220584e-01	2.404184e-01	1.550446e-01	7.982663e-02	2.709819e-02	3.314791e-04	-6.225767e-03	-2.580024e-03	2.192307e-03	2.488416e-03	-3.582652e-03	-1.533595e-02	-3.098559e-02	-4.865592e-02	-6.685596e-02	-8.470437e-02	-1.018608e-01	-1.183526e-01	-1.343412e-01	-1.500154e-01	-1.654818e-01	-1.808064e-01	-1.961066e-01	-2.114882e-01	-2.269022e-01	-2.421920e-01	-2.572103e-01	-2.719113e-01	-2.862686e-01	-3.002548e-01	-3.138314e-01	-3.269845e-01	-3.397060e-01	-3.520273e-01	-3.639241e-01	-3.753281e-01	-3.861152e-01	-3.962974e-01	-4.060974e-01	-4.159226e-01	-4.258298e-01	-4.351804e-01	-4.429507e-01	-4.487906e-01	-4.535975e-01	-4.593667e-01	-4.683395e-01	-4.819478e-01	-4.997150e-01	-5.189582e-01	-5.360085e-01	-5.483403e-01	-5.554378e-01	-5.581592e-01	-5.577428e-01	-5.551157e-01	-5.508072e-01	-5.449893e-01	-5.378646e-01	-5.297091e-01	-5.208163e-01	-5.111515e-01	-5.002070e-01	-4.872743e-01	-4.721170e-01	-4.549799e-01	-4.362238e-01	-4.157140e-01	-3.929052e-01	-3.675231e-01	-3.394198e-01	-3.082971e-01	-2.738916e-01	-2.357268e-01	-1.933572e-01	-1.461164e-01	-9.302997e-02	-3.323556e-02	3.446609e-02	1.117808e-01	2.000369e-01	3.010907e-01	4.167275e-01	5.470269e-01	6.905725e-01	8.419228e-01	9.897691e-01	1.105512e+00	1.168879e+00	1.132303e+00	1.031722e+00	9.389381e-01	7.166913e-01	3.346388e-01	2.896314e-02	-2.055131e-01	-3.755686e-01	-4.910029e-01	-5.668186e-01	-6.174935e-01	-6.515964e-01	-6.744576e-01	-6.895186e-01	-6.986858e-01	-7.041273e-01	-7.069442e-01	-7.072300e-01	-7.052855e-01	-7.017929e-01	-6.977317e-01	-6.940141e-01	-6.906144e-01	-6.866202e-01	-6.812453e-01	-6.748557e-01	-6.686434e-01	-6.632776e-01	-6.585181e-01	-6.539200e-01	-6.492022e-01	-6.441453e-01	-6.386057e-01	-6.326132e-01	-6.263874e-01	-6.202026e-01	-6.141977e-01	-6.084356e-01	-6.029546e-01	-5.978615e-01	-5.931386e-01	-5.884531e-01	-5.832058e-01	-5.769144e-01	-5.694400e-01	-5.608898e-01	-5.512646e-01	-5.403953e-01	-5.281763e-01	-5.147009e-01	-5.004005e-01	-4.858930e-01	-4.717647e-01	-4.578826e-01	-4.433720e-01	-4.271977e-01	-4.091450e-01	-3.898767e-01	-3.700716e-01	-3.496967e-01	-3.282719e-01	-3.056263e-01	-2.819159e-01	-2.573860e-01	-2.321862e-01	-2.063465e-01	-1.799505e-01	-1.530370e-01	-1.257490e-01	-9.816461e-02	-7.045226e-02	-4.267354e-02	-1.506377e-02	1.214313e-02	3.870596e-02	6.436331e-02	8.895605e-02	1.124095e-01	1.348800e-01	1.569246e-01	1.794129e-01	2.035739e-01	2.304110e-01	2.602092e-01	2.917303e-01	3.220963e-01	3.471490e-01	3.624771e-01	3.645766e-01	3.524127e-01	3.286579e-01	3.004348e-01	2.777854e-01	2.702286e-01	2.835205e-01	3.169586e-01	3.647409e-01	4.211126e-01	4.823998e-01	5.497959e-01	6.291606e-01	6.233379e-01	
SCALARS Mach float 1
LOOKUP_TABLE default
4.935186e-01	5.210708e-01	5.398368e-01	5.517331e-01	5.596479e-01	5.674069e-01	5.780719e-01	5.946588e-01	6.189256e-01	6.508132e-01	6.883849e-01	7.275290e-01	7.621405e-01	7.867484e-01	7.994512e-01	8.025543e-01	8.007048e-01	7.982533e-01	7.978814e-01	8.004607e-01	8.057026e-01	8.127728e-01	8.207875e-01	8.290575e-01	8.371644e-01	8.449544e-01	8.524362e-01	8.596996e-01	8.668166e-01	8.738466e-01	8.808383e-01	8.878273e-01	8.948657e-01	9.019341e-01	9.089602e-01	9.158746e-01	9.226667e-01	9.293070e-01	9.357879e-01	9.421015e-01	9.482207e-01	9.541657e-01	9.599232e-01	9.655081e-01	9.708563e-01	9.759389e-01	9.807342e-01	9.853830e-01	9.900453e-01	9.947820e-01	9.992373e-01	1.002934e+00	1.005675e+00	1.007929e+00	1.010680e+00	1.015067e+00	1.021778e+00	1.030588e+00	1.040100e+00	1.048500e+00	1.054547e+00	1.057973e+00	1.059253e+00	1.058975e+00	1.057641e+00	1.055462e+00	1.052566e+00	1.049015e+00	1.044986e+00	1.040590e+00	1.035842e+00	1.030462e+00	1.024135e+00	1.016724e+00	1.008405e+00	9.992963e-01	9.894260e-01	9.785435e-01	9.664375e-01	9.530518e-01	9.383438e-01	9.221535e-01	9.043097e-01	8.845893e-01	8.626833e-01	8.381178e-01	8.104505e-01	7.791805e-01	7.434658e-01	7.024321e-01	6.550372e-01	5.998722e-01	5.353387e-01	4.598671e-01	3.712575e-01	2.683063e-01	1.523993e-01	2.331316e-02	1.112569e-01	2.150552e-01	3.139510e-01	4.617037e-01	6.264947e-01	7.607555e-01	8.672457e-01	9.493401e-01	1.008901e+00	1.050166e+00	1.078500e+00	1.097887e+00	1.111086e+00	1.119739e+00	1.125111e+00	1.128380e+00	1.130158e+00	1.130591e+00	1.129756e+00	1.128035e+00	1.126040e+00	1.124236e+00	1.122635e+00	1.120766e+00	1.118152e+00	1.114918e+00	1.111763e+00	1.109060e+00	1.106706e+00	1.104435e+00	1.102115e+00	1.099612e+00	1.096870e+00	1.093889e+00	1.090798e+00	1.087722e+00	1.084749e+00	1.081897e+00	1.079198e+00	1.076697e+00	1.074395e+00	1.072123e+00	1.069596e+00	1.066540e+00	1.062893e+00	1.058712e+00	1.054007e+00	1.048704e+00	1.042740e+00	1.036191e+00	1.029226e+00	1.022198e+00	1.015388e+00	1.008756e+00	1.001861e+00	9.941998e-01	9.856507e-01	9.765358e-01	9.672202e-01	9.576542e-01	9.476451e-01	9.370945e-01	9.260931e-01	9.147449e-01	9.031283e-01	8.912548e-01	8.791603e-01	8.668630e-01	8.544170e-01	8.418830e-01	8.292652e-01	8.166642e-01	8.041535e-01	7.918085e-01	7.797760e-01	7.681578e-01	7.570237e-01	7.464021e-01	7.361995e-01	7.261689e-01	7.158623e-01	7.047363e-01	6.922794e-01	6.783961e-01	6.636662e-01	6.495154e-01	6.379785e-01	6.311796e-01	6.306943e-01	6.368257e-01	6.481117e-01	6.611577e-01	6.712490e-01	6.740697e-01	6.671506e-01	6.512411e-01	6.284611e-01	6.014845e-01	5.712719e-01	5.371525e-01	4.977787e-01	4.554093e-01	