# vtk DataFile Version 3.0
vtk output
ASCII
DATASET UNSTRUCTURED_GRID
POINTS 5233 float
9.997500e-01	-3.633567e-05	0.0	9.990000e-01	-1.456765e-04	0.0	9.977600e-01	-3.297399e-04	0.0	9.960200e-01	-6.019175e-04	0.0	9.937800e-01	-9.900634e-04	0.0	9.910500e-01	-1.539434e-03	0.0	9.878400e-01	-2.307721e-03	0.0	9.841300e-01	-3.355710e-03	0.0	9.799500e-01	-4.699082e-03	0.0	9.752800e-01	-6.311188e-03	0.0	9.701500e-01	-8.084111e-03	0.0	9.645400e-01	-9.881198e-03	0.0	9.584700e-01	-1.154861e-02	0.0	9.519400e-01	-1.298330e-02	0.0	9.449600e-01	-1.415558e-02	0.0	9.375400e-01	-1.511454e-02	0.0	9.296900e-01	-1.596231e-02	0.0	9.214000e-01	-1.681730e-02	0.0	9.127000e-01	-1.777333e-02	0.0	9.035800e-01	-1.888730e-02	0.0	8.940600e-01	-2.016728e-02	0.0	8.841500e-01	-2.158491e-02	0.0	8.738500e-01	-2.309014e-02	0.0	8.631800e-01	-2.462131e-02	0.0	8.521600e-01	-2.611996e-02	0.0	8.407700e-01	-2.754348e-02	0.0	8.290500e-01	-2.885549e-02	0.0	8.170100e-01	-3.003846e-02	0.0	8.046400e-01	-3.108930e-02	0.0	7.919700e-01	-3.201127e-02	0.0	7.790100e-01	-3.281648e-02	0.0	7.657800e-01	-3.352012e-02	0.0	7.522800e-01	-3.413942e-02	0.0	7.385200e-01	-3.468986e-02	0.0	7.245300e-01	-3.518389e-02	0.0	7.103200e-01	-3.563187e-02	0.0	6.958900e-01	-3.604136e-02	0.0	6.812700e-01	-3.641646e-02	0.0	6.664700e-01	-3.675997e-02	0.0	6.515000e-01	-3.707357e-02	0.0	6.363800e-01	-3.735839e-02	0.0	6.211300e-01	-3.761595e-02	0.0	6.057600e-01	-3.784878e-02	0.0	5.902800e-01	-3.806043e-02	0.0	5.747100e-01	-3.825541e-02	0.0	5.590600e-01	-3.843934e-02	0.0	5.433600e-01	-3.861827e-02	0.0	5.276100e-01	-3.879885e-02	0.0	5.118400e-01	-3.898722e-02	0.0	4.960500e-01	-3.918924e-02	0.0	4.802700e-01	-3.940942e-02	0.0	4.645100e-01	-3.965117e-02	0.0	4.487800e-01	-3.991638e-02	0.0	4.331100e-01	-4.020493e-02	0.0	4.175000e-01	-4.051549e-02	0.0	4.019700e-01	-4.084476e-02	0.0	3.865400e-01	-4.118791e-02	0.0	3.712300e-01	-4.153878e-02	0.0	3.560400e-01	-4.189059e-02	0.0	3.409900e-01	-4.223531e-02	0.0	3.261100e-01	-4.256411e-02	0.0	3.114000e-01	-4.286857e-02	0.0	2.968700e-01	-4.313991e-02	0.0	2.825500e-01	-4.336912e-02	0.0	2.684500e-01	-4.354792e-02	0.0	2.545700e-01	-4.366845e-02	0.0	2.409400e-01	-4.372310e-02	0.0	2.275700e-01	-4.370508e-02	0.0	2.144700e-01	-4.360814e-02	0.0	2.016600e-01	-4.342681e-02	0.0	1.891400e-01	-4.315597e-02	0.0	1.769300e-01	-4.279144e-02	0.0	1.650400e-01	-4.232951e-02	0.0	1.534900e-01	-4.176760e-02	0.0	1.422900e-01	-4.110352e-02	0.0	1.314400e-01	-4.033495e-02	0.0	1.209500e-01	-3.946070e-02	0.0	1.108500e-01	-3.848230e-02	0.0	1.011300e-01	-3.739851e-02	0.0	9.181000e-02	-3.621179e-02	0.0	8.290000e-02	-3.492467e-02	0.0	7.440000e-02	-3.353903e-02	0.0	6.633000e-02	-3.206091e-02	0.0	5.869000e-02	-3.049407e-02	0.0	5.149000e-02	-2.884500e-02	0.0	4.474000e-02	-2.712148e-02	0.0	3.844000e-02	-2.532959e-02	0.0	3.260000e-02	-2.347878e-02	0.0	2.723000e-02	-2.157972e-02	0.0	2.232000e-02	-1.963593e-02	0.0	1.790000e-02	-1.766699e-02	0.0	1.395000e-02	-1.567110e-02	0.0	1.049000e-02	-1.366377e-02	0.0	7.520000e-03	-1.164979e-02	0.0	5.040000e-03	-9.630129e-03	0.0	3.050000e-03	-7.599124e-03	0.0	1.560000e-03	-5.554585e-03	0.0	5.600000e-04	-3.448997e-03	0.0	6.000000e-05	-1.209959e-03	0.0	0.000000e+00	0.000000e+00	0.0	6.000000e-05	1.165993e-03	0.0	5.600000e-04	3.217642e-03	0.0	1.560000e-03	5.046323e-03	0.0	3.050000e-03	6.742164e-03	0.0	5.040000e-03	8.361203e-03	0.0	7.520000e-03	9.917982e-03	0.0	1.049000e-02	1.142818e-02	0.0	1.395000e-02	1.290106e-02	0.0	1.790000e-02	1.434219e-02	0.0	2.232000e-02	1.574886e-02	0.0	2.723000e-02	1.713018e-02	0.0	3.260000e-02	1.847951e-02	0.0	3.844000e-02	1.980107e-02	0.0	4.474000e-02	2.109349e-02	0.0	5.149000e-02	2.235567e-02	0.0	5.869000e-02	2.358840e-02	0.0	6.633000e-02	2.479065e-02	0.0	7.440000e-02	2.596167e-02	0.0	8.290000e-02	2.710229e-02	0.0	9.181000e-02	2.821076e-02	0.0	1.011300e-01	2.928816e-02	0.0	1.108500e-01	3.033438e-02	0.0	1.209500e-01	3.134852e-02	0.0	1.314400e-01	3.233278e-02	0.0	1.422900e-01	3.328558e-02	0.0	1.534900e-01	3.420743e-02	0.0	1.650400e-01	3.509960e-02	0.0	1.769300e-01	3.596242e-02	0.0	1.891400e-01	3.679553e-02	0.0	2.016600e-01	3.759920e-02	0.0	2.144700e-01	3.837298e-02	0.0	2.275700e-01	3.911741e-02	0.0	2.409400e-01	3.983160e-02	0.0	2.545700e-01	4.051494e-02	0.0	2.684500e-01	4.116643e-02	0.0	2.825500e-01	4.178384e-02	0.0	2.968700e-01	4.236587e-02	0.0	3.114000e-01	4.291024e-02	0.0	3.261100e-01	4.341355e-02	0.0	3.409900e-01	4.387274e-02	0.0	3.560400e-01	4.428451e-02	0.0	3.712300e-01	4.464437e-02	0.0	3.865400e-01	4.494786e-02	0.0	4.019700e-01	4.519067e-02	0.0	4.175000e-01	4.536788e-02	0.0	4.331100e-01	4.547455e-02	0.0	4.487800e-01	4.550584e-02	0.0	4.645100e-01	4.545695e-02	0.0	4.802700e-01	4.532323e-02	0.0	4.960500e-01	4.510020e-02	0.0	5.118400e-01	4.478351e-02	0.0	5.276100e-01	4.436957e-02	0.0	5.433600e-01	4.385446e-02	0.0	5.590600e-01	4.323560e-02	0.0	5.747100e-01	4.250995e-02	0.0	5.902800e-01	4.167659e-02	0.0	6.057600e-01	4.073480e-02	0.0	6.211300e-01	3.968583e-02	0.0	6.363800e-01	3.853201e-02	0.0	6.515000e-01	3.727762e-02	0.0	6.664700e-01	3.593009e-02	0.0	6.812700e-01	3.449949e-02	0.0	6.958900e-01	3.299743e-02	0.0	7.103200e-01	3.143755e-02	0.0	7.245300e-01	2.983721e-02	0.0	7.385200e-01	2.821116e-02	0.0	7.522800e-01	2.657470e-02	0.0	7.657800e-01	2.494390e-02	0.0	7.790100e-01	2.332976e-02	0.0	7.919700e-01	2.173849e-02	0.0	8.046400e-01	2.017485e-02	0.0	8.170100e-01	1.863865e-02	0.0	8.290500e-01	1.712911e-02	0.0	8.407700e-01	1.563826e-02	0.0	8.521600e-01	1.415926e-02	0.0	8.631800e-01	1.268865e-02	0.0	8.738500e-01	1.121498e-02	0.0	8.841500e-01	9.732791e-03	0.0	8.940600e-01	8.239648e-03	0.0	9.035800e-01	6.737149e-03	0.0	9.127000e-01	5.241826e-03	0.0	9.214000e-01	3.792760e-03	0.0	9.296900e-01	2.449286e-03	0.0	9.375400e-01	1.298555e-03	0.0	9.449600e-01	4.270020e-04	0.0	9.519400e-01	-9.664697e-05	0.0	9.584700e-01	-2.543291e-04	0.0	9.645400e-01	-9.681777e-05	0.0	9.701500e-01	2.627997e-04	0.0	9.752800e-01	6.783898e-04	0.0	9.799500e-01	1.018747e-03	0.0	9.841300e-01	1.197866e-03	0.0	9.878400e-01	1.196093e-03	0.0	9.910500e-01	1.046808e-03	0.0	9.937800e-01	8.108985e-04	0.0	9.960200e-01	5.521545e-04	0.0	9.977600e-01	3.205026e-04	0.0	9.990000e-01	1.448331e-04	0.0	9.997500e-01	3.632230e-05	0.0	1.000000e+00	0.000000e+00	0.0	1.984229e+01	2.506660e+00	0.0	1.937166e+01	4.973800e+00	0.0	1.859553e+01	7.362490e+00	0.0	1.752613e+01	9.635070e+00	0.0	1.618034e+01	1.175571e+01	0.0	1.457937e+01	1.369094e+01	0.0	1.274848e+01	1.541027e+01	0.0	1.071654e+01	1.688656e+01	0.0	8.515590e+00	1.809654e+01	0.0	6.180340e+00	1.902113e+01	0.0	3.747630e+00	1.964575e+01	0.0	1.255810e+00	1.996053e+01	0.0	-1.255810e+00	1.996053e+01	0.0	-3.747630e+00	1.964574e+01	0.0	-6.180340e+00	1.902113e+01	0.0	-8.515590e+00	1.809654e+01	0.0	-1.071654e+01	1.688656e+01	0.0	-1.274848e+01	1.541026e+01	0.0	-1.457937e+01	1.369094e+01	0.0	-1.618034e+01	1.175570e+01	0.0	-1.752613e+01	9.635070e+00	0.0	-1.859553e+01	7.362490e+00	0.0	-1.937166e+01	4.973800e+00	0.0	-1.984229e+01	2.506660e+00	0.0	-2.000000e+01	0.000000e+00	0.0	-1.984229e+01	-2.506670e+00	0.0	-1.937166e+01	-4.973800e+00	0.0	-1.859553e+01	-7.362490e+00	0.0	-1.752613e+01	-9.635080e+00	0.0	-1.618034e+01	-1.175571e+01	0.0	-1.457937e+01	-1.369094e+01	0.0	-1.274848e+01	-1.541027e+01	0.0	-1.071653e+01	-1.688656e+01	0.0	-8.515580e+00	-1.809654e+01	0.0	-6.180340e+00	-1.902113e+01	0.0	-3.747620e+00	-1.964575e+01	0.0	-1.255810e+00	-1.996053e+01	0.0	1.255810e+00	-1.996053e+01	0.0	3.747630e+00	-1.964574e+01	0.0	6.180340e+00	-1.902113e+01	0.0	8.515590e+00	-1.809654e+01	0.0	1.071654e+01	-1.688656e+01	0.0	1.274848e+01	-1.541026e+01	0.0	1.457937e+01	-1.369094e+01	0.0	1.618034e+01	-1.175570e+01	0.0	1.752614e+01	-9.635070e+00	0.0	1.859553e+01	-7.362490e+00	0.0	1.937166e+01	-4.973790e+00	0.0	1.984229e+01	-2.506660e+00	0.0	2.000000e+01	0.000000e+00	0.0	6.108543e-02	-3.816096e-02	0.0	6.596172e-01	-5.067267e-02	0.0	4.254823e-01	5.960531e-02	0.0	6.898002e-01	4.694633e-02	0.0	3.791921e-01	-5.563858e-02	0.0	9.994689e-01	-7.250053e-04	0.0	9.985588e-01	-1.332455e-03	0.0	7.734185e-01	-4.509790e-02	0.0	6.892983e-01	-4.963726e-02	0.0	-8.295936e-04	4.943701e-03	0.0	7.463101e-01	-4.690726e-02	0.0	5.833279e-01	5.609673e-02	0.0	9.928466e-01	-3.842903e-03	0.0	9.899844e-01	-4.961109e-03	0.0	5.989134e-01	5.512241e-02	0.0	7.182378e-01	-4.839378e-02	0.0	-1.259572e-03	5.821371e-04	0.0	9.866441e-01	-6.298748e-03	0.0	9.828301e-01	-7.864107e-03	0.0	-9.282425e-04	-5.357366e-03	0.0	6.445386e-01	-5.112196e-02	0.0	8.242638e-01	-4.018579e-02	0.0	7.994356e-01	-4.289070e-02	0.0	3.484143e-01	5.784919e-02	0.0	8.477560e-01	-3.701398e-02	0.0	2.473350e-01	5.273652e-02	0.0	8.698460e-01	-3.351068e-02	0.0	1.069248e-02	1.538691e-02	0.0	8.904306e-01	-2.996789e-02	0.0	7.735916e-02	-4.190378e-02	0.0	9.094521e-01	-2.669809e-02	0.0	-1.478674e-03	-2.676485e-03	0.0	9.425480e-01	-2.093109e-02	0.0	9.268504e-01	-2.379006e-02	0.0	1.834954e-02	-2.265881e-02	0.0	4.256822e-01	-5.492458e-02	0.0	8.589855e-01	-3.528596e-02	0.0	9.564615e-01	-1.760684e-02	0.0	9.785309e-01	-9.669447e-03	0.0	9.684787e-01	-1.367005e-02	0.0	1.586193e-01	-5.258855e-02	0.0	9.001424e-01	-2.828509e-02	0.0	7.599951e-01	-4.604770e-02	0.0	9.971456e-01	-2.101228e-03	0.0	5.985333e-01	-5.222851e-02	0.0	4.413404e-01	-5.468232e-02	0.0	5.359436e-01	-5.329083e-02	0.0	4.728216e-01	-5.420915e-02	0.0	5.043907e-01	-5.375042e-02	0.0	4.885946e-01	-5.397746e-02	0.0	1.252951e-01	-4.941836e-02	0.0	2.822708e-02	-2.739335e-02	0.0	3.945961e-01	-5.540759e-02	0.0	4.657429e-02	-3.407477e-02	0.0	4.100941e-01	-5.516869e-02	0.0	3.189295e-01	-5.636485e-02	0.0	3.487596e-01	-5.605965e-02	0.0	3.387980e-02	-2.967103e-02	0.0	2.897807e-01	-5.650319e-02	0.0	9.349173e-01	-2.238652e-02	0.0	1.471574e-01	-5.164096e-02	0.0	1.950012e-01	-5.476441e-02	0.0	8.613287e-02	-4.362603e-02	0.0	1.049270e-01	-4.675275e-02	0.0	5.673664e-01	-5.280623e-02	0.0	1.704241e-01	-5.342561e-02	0.0	6.139885e-01	-5.189415e-02	0.0	8.803343e-01	-3.172394e-02	0.0	2.306073e-02	-2.505152e-02	0.0	9.952398e-01	-2.914812e-03	0.0	7.155002e-03	-1.536341e-02	0.0	1.868945e-02	1.918511e-02	0.0	9.183568e-01	-2.520849e-02	0.0	9.49
[...]
POINT_DATA 5233

SCALARS Conservative_1 float 1
LOOKUP_TABLE default
1.194908e+00	1.179153e+00	1.172169e+00	1.169543e+00	1.168221e+00	1.165350e+00	1.157036e+00	1.140440e+00	1.113037e+00	1.074314e+00	1.024615e+00	9.626764e-01	9.066335e-01	8.845311e-01	8.954532e-01	9.232786e-01	9.533912e-01	9.754453e-01	9.862567e-01	9.866612e-01	9.783724e-01	9.635568e-01	9.446088e-01	9.233596e-01	8.996903e-01	8.736595e-01	8.503346e-01	8.363249e-01	8.333183e-01	8.385623e-01	8.481971e-01	8.591959e-01	8.698688e-01	8.793106e-01	8.873804e-01	8.941632e-01	8.998945e-01	9.048561e-01	9.092637e-01	9.133763e-01	9.173296e-01	9.212603e-01	9.251861e-01	9.291150e-01	9.329649e-01	9.366612e-01	9.400811e-01	9.431301e-01	9.456924e-01	9.476853e-01	9.490157e-01	9.496336e-01	9.494885e-01	9.485634e-01	9.468432e-01	9.443370e-01	9.410565e-01	9.370328e-01	9.323087e-01	9.269316e-01	9.209756e-01	9.144536e-01	9.073596e-01	8.996605e-01	8.915869e-01	8.835129e-01	8.755926e-01	8.670503e-01	8.564948e-01	8.432587e-01	8.295581e-01	8.191286e-01	8.140765e-01	8.138945e-01	8.170928e-01	8.223612e-01	8.292223e-01	8.375681e-01	8.472496e-01	8.581744e-01	8.703604e-01	8.837733e-01	8.984760e-01	9.144667e-01	9.318067e-01	9.506063e-01	9.708986e-01	9.928150e-01	1.016580e+00	1.042278e+00	1.070282e+00	1.101101e+00	1.135104e+00	1.173168e+00	1.215717e+00	1.262023e+00	1.307439e+00	1.347985e+00	1.348001e+00	1.321568e+00	1.296588e+00	1.222689e+00	1.088569e+00	9.925888e-01	9.285459e-01	8.889412e-01	8.651225e-01	8.500549e-01	8.396958e-01	8.322624e-01	8.267935e-01	8.226262e-01	8.195143e-01	8.171226e-01	8.153744e-01	8.143256e-01	8.138466e-01	8.138022e-01	8.141935e-01	8.151555e-01	8.169821e-01	8.198398e-01	8.235764e-01	8.277652e-01	8.319767e-01	8.359345e-01	8.394516e-01	8.423728e-01	8.446593e-01	8.464232e-01	8.478009e-01	8.488559e-01	8.495630e-01	8.498650e-01	8.497294e-01	8.491374e-01	8.480998e-01	8.466246e-01	8.447155e-01	8.423801e-01	8.396059e-01	8.363887e-01	8.327918e-01	8.289418e-01	8.249373e-01	8.208118e-01	8.165525e-01	8.124321e-01	8.092650e-01	8.087818e-01	8.130725e-01	8.232231e-01	8.373205e-01	8.509417e-01	8.609933e-01	8.682322e-01	8.750066e-01	8.830741e-01	8.928907e-01	9.038353e-01	9.151730e-01	9.266098e-01	9.380796e-01	9.494673e-01	9.605154e-01	9.710311e-01	9.808229e-01	9.898024e-01	9.978750e-01	1.005118e+00	1.011602e+00	1.017500e+00	1.023053e+00	1.028523e+00	1.034213e+00	1.040452e+00	1.047614e+00	1.056183e+00	1.066663e+00	1.079559e+00	1.094965e+00	1.112356e+00	1.130266e+00	1.146693e+00	1.159286e+00	1.165741e+00	1.164039e+00	1.152875e+00	1.132108e+00	1.104086e+00	1.075018e+00	1.052682e+00	1.044526e+00	1.053657e+00	1.075737e+00	1.102841e+00	1.129822e+00	1.156221e+00	1.184516e+00	1.174613e+00	9.999828e-01	9.999865e-01	9.999802e-01	9.999681e-01	9.999565e-01	9.999428e-01	9.999207e-01	9.998874e-01	9.998482e-01	9.998133e-01	9.997886e-01	9.997931e-01	9.998272e-01	9.998982e-01	9.999597e-01	1.000009e+00	1.000035e+00	1.000050e+00	1.000058e+00	1.000061e+00	1.000061e+00	1.000061e+00	1.000060e+00	1.000061e+00	1.000061e+00	1.000063e+00	1.000067e+00	1.000071e+00	1.000077e+00	1.000086e+00	1.000096e+00	1.000109e+00	1.000120e+00	1.000134e+00	1.000140e+00	1.000135e+00	1.000120e+00	1.000098e+00	1.000082e+00	1.000073e+00	1.000072e+00	1.000070e+00	1.000066e+00	1.000059e+00	1.000049e+00	1.000036e+00	1.000029e+00	1.000023e+00	1.000002e+00	9.999790e-01	9.211955e-01	9.130085e-01	8.268250e-01	9.358463e-01	9.391006e-01	1.179027e+00	1.171998e+00	8.597299e-01	9.044354e-01	1.218004e+00	8.787304e-01	8.706879e-01	1.156910e+00	1.149774e+00	8.770669e-01	8.935561e-01	1.316509e+00	1.137680e+00	1.118478e+00	1.326884e+00	9.169054e-01	8.505596e-01	8.432085e-01	8.441370e-01	8.943213e-01	8.526751e-01	9.376340e-01	9.043032e-01	9.692894e-01	8.904336e-01	9.821560e-01	1.344721e+00	9.230176e-01	9.649571e-01	1.076679e+00	9.472314e-01	9.178515e-01	9.185482e-01	1.091090e+00	1.009799e+00	8.211785e-01	9.789857e-01	8.695876e-01	1.165294e+00	9.282040e-01	9.484810e-01	9.417351e-01	9.488097e-01	9.464120e-01	9.479336e-01	8.357121e-01	1.023185e+00	9.425288e-01	9.573050e-01	9.452441e-01	9.190928e-01	9.302522e-01	9.994984e-01	9.057038e-01	9.450814e-01	8.237814e-01	8.414120e-01	8.769629e-01	8.536866e-01	9.354203e-01	8.226088e-01	9.244681e-01	9.548821e-01	1.048826e+00	1.161360e+00	1.176685e+00	8.661923e-01	9.776186e-01	9.098055e-01	1.055643e+00	1.129706e+00	8.695002e-01	8.832659e-01	9.387400e-01	8.867130e-01	8.502099e-01	8.439834e-01	8.670099e-01	9.318833e-01	9.089146e-01	9.385540e-01	1.215930e+00	1.107045e+00	9.349916e-01	8.295263e-01	1.205247e+00	8.759143e-01	8.647188e-01	9.126963e-01	8.905745e-01	9.490042e-01	8.994029e-01	1.286304e+00	1.296487e+00	8.345385e-01	1.331577e+00	8.458573e-01	8.270035e-01	8.340391e-01	8.274324e-01	8.306728e-01	1.121225e+00	8.217263e-01	8.151440e-01	1.112780e+00	1.143700e+00	1.063286e+00	8.130759e-01	8.228578e-01	8.379999e-01	1.116641e+00	1.087363e+00	8.226930e-01	1.091961e+00	1.149523e+00	1.141784e+00	8.230400e-01	8.248824e-01	8.514847e-01	8.527003e-01	8.450110e-01	8.486122e-01	8.188193e-01	8.344221e-01	8.385957e-01	8.309637e-01	8.926757e-01	8.491097e-01	8.515001e-01	9.138886e-01	8.622016e-01	9.773404e-01	9.574274e-01	1.008830e+00	9.945296e-01	1.032644e+00	1.021020e+00	1.074431e+00	1.045866e+00	1.148580e+00	1.101750e+00	1.131053e+00	1.038907e+00	1.053874e+00	1.015105e+00	1.026778e+00	9.863120e-01	1.002027e+00	9.467439e-01	9.676753e-01	9.029535e-01	9.248839e-01	8.496472e-01	8.839561e-01	8.504573e-01	8.522588e-01	8.420603e-01	8.473456e-01	8.300092e-01	8.348187e-01	8.820163e-01	8.392217e-01	8.551767e-01	9.841556e-01	9.564187e-01	8.420998e-01	9.249326e-01	9.443246e-01	1.049499e+00	8.545505e-01	9.366020e-01	8.224661e-01	8.234941e-01	8.523030e-01	8.246851e-01	1.073775e+00	1.063710e+00	8.502493e-01	1.065636e+00	1.078765e+00	8.465798e-01	8.412717e-01	1.130568e+00	1.200246e+00	1.144306e+00	1.164887e+00	9.206991e-01	9.775878e-01	1.098861e+00	8.146148e-01	1.257260e+00	1.140360e+00	9.051618e-01	8.289142e-01	8.981828e-01	8.335948e-01	1.196969e+00	1.259727e+00	9.045663e-01	9.041468e-01	9.761901e-01	1.169993e+00	8.720626e-01	9.086675e-01	8.616166e-01	1.132788e+00	9.232222e-01	9.135289e-01	8.709398e-01	8.844411e-01	1.300994e+00	8.663698e-01	1.106801e+00	9.619997e-01	8.323856e-01	8.989831e-01	9.166394e-01	9.481040e-01	8.978126e-01	9.407216e-01	9.712737e-01	8.547611e-01	9.682250e-01	8.906750e-01	9.238210e-01	1.030867e+00	8.330658e-01	9.342780e-01	8.479938e-01	1.051603e+00	1.077862e+00	8.486344e-01	8.240322e-01	1.135424e+00	1.060136e+00	1.083765e+00	1.133576e+00	1.089004e+00	8.556809e-01	8.507706e-01	8.552161e-01	8.315530e-01	9.128023e-01	8.545253e-01	9.348705e-01	8.418796e-01	8.432930e-01	1.115825e+00	1.096610e+00	1.069829e+00	8.308908e-01	1.209405e+00	1.131379e+00	1.113054e+00	1.012439e+00	1.129917e+00	1.204235e+00	1.331150e+00	1.319433e+00	1.078312e+00	1.212056e+00	9.281387e-01	1.161927e+00	1.150360e+00	8.329516e-01	9.404384e-01	1.117858e+00	9.478196e-01	8.793626e-01	1.143255e+00	1.324568e+00	9.472651e-01	8.364860e-01	8.917876e-01	8.549350e-01	9.320840e-01	9.612175e-01	9.123671e-01	9.765508e-01	9.697875e-01	9.342285e-01	1.027424e+00	9.380356e-01	1.000252e+00	1.097037e+00	8.436156e-01	8.785164e-01	8.700783e-01	1.156082e+00	9.482775e-01	9.478134e-01	9.467298e-01	1.052040e+00	9.435750e-01	9.457624e-01	9.284260e-01	9.833462e-01	9.581074e-01	9.440880e-01	8.370095e-01	8.722367e-01	9.375295e-01	9.275158e-01	1.038396e+00	1.070520e+00	8.930988e-01	8.863131e-01	8.613406e-01	8.517665e-01	9.343654e-01	9.309900e-01	9.636401e-01	9.452494e-01	1.137257e+00	9.330955e-01	9.372188e-01	8.342437e-01	8.426687e-01	8.760035e-01	8.835551e-01	9.113086e-01	9.175434e-01	8.904611e-01	1.301909e+00	1.239712e+00	8.487591e-01	1.079713e+00	8.341962e-01	8.194691e-01	8.194583e-01	8.220135e-01	1.102227e+00	1.126842e+00	1.104575e+00	8.255986e-01	8.293131e-01	8.399315e-01	1.092476e+00	1.132596e+00	8.358963e-01	8.390609e-01	8.558107e-01	8.555620e-01	8.451034e-01	8.386264e-01	8.355650e-01	1.005960e+00	9.742094e-01	9.647832e-01	9.989517e-01	1.024804e+00	1.080667e+00	1.044021e+00	1.037187e+00	1.018798e+00	1.012576e+00	9.913075e-01	9.830591e-01	9.548938e-01	9.446668e-01	9.133459e-01	9.030877e-01	8.617554e-01	8.481649e-01	8.937408e-01	8.859517e-01	8.544525e-01	8.534314e-01	8.521009e-01	8.503364e-01	9.098639e-01	8.557921e-01	8.647491e-01	8.520707e-01	8.568922e-01	9.451113e-01	9.429790e-01	1.067883e+00	8.760650e-01	8.312467e-01	8.320004e-01	8.525311e-01	8.539175e-01	8.431884e-01	8.461162e-01	1.125808e+00	1.116069e+00	9.239485e-01	9.203487e-01	1.004531e+00	1.273821e+00	8.974602e-01	1.298243e+00	9.420806e-01	9.103924e-01	8.664690e-01	9.418017e-01	9.724806e-01	1.089582e+00	1.086700e+00	1.120203e+00	1.079000e+00	1.098084e+00	1.149110e+00	1.174372e+00	1.151627e+00	1.194974e+00	1.079877e+00	1.281351e+00	8.926906e-01	9.665341e-01	1.129606e+00	8.735511e-01	1.170213e+00	1.193362e+00	9.041843e-01	1.252773e+00	8.991276e-01	1.105994e+00	9.434689e-01	1.163168e+00	9.269748e-01	9.288630e-01	9.087261e-01	1.138804e+00	1.134052e+00	1.096290e+00	8.359016e-01	1.123095e+00	9.238709e-01	1.110208e+00	8.282303e-01	8.584236e-01	8.531178e-01	8.512512e-01	8.463240e-01	1.162971e+00	1.274671e+00	1.180637e+00	9.320288e-01	1.237060e+00	9.984697e-01	9.059086e-01	1.311960e+00	8.415975e-01	9.477024e-01	1.055165e+00	9.906098e-01	1.029078e+00	1.003526e+00	9.338115e-01	1.089268e+00	1.123408e+00	1.065480e+00	1.056873e+00	8.549530e-01	8.576134e-01	8.588065e-01	8.399183e-01	9.166205e-01	9.128194e-01	8.659399e-01	9.581540e-01	8.484581e-01	1.105224e+00	1.122327e+00	1.031147e+00	1.130039e+00	1.223624e+00	1.308308e+00	1.031637e+00	1.180640e+00	1.173887e+00	1.029463e+00	1.117811e+00	8.821584e-01	9.472163e-01	8.390791e-01	8.916009e-01	9.113141e-01	9.558591e-01	9.658104e-01	9.357361e-01	9.202729e-01	9.722827e-01	9.746097e-01	9.551451e-01	9.707399e-01	1.102195e+00	8.796147e-01	8.725225e-01	1.144988e+00	9.475947e-01	9.468832e-01	9.444185e-01	9.461171e-01	1.009884e+00	9.585809e-01	9.528074e-01	8.522605e-01	8.458063e-01	9.393146e-01	9.365421e-01	1.057556e+00	1.081879e+00	8.933443e-01	8.868255e-01	8.806481e-01	8.696346e-01	8.601033e-01	9.335193e-01	9.303447e-01	9.897062e-01	9.705317e-01	9.524544e-01	9.315215e-01	9.356130e-01	9.391312e-01	8.415356e-01	8.461483e-01	8.551032e-01	8.760894e-01	8.841948e-01	9.164236e-01	9.219175e-01	8.910260e-01	8.624647e-01	8.254627e-01	8.262912e-01	1.113798e+00	8.290765e-01	8.324256e-01	8.357846e-01	8.422930e-01	1.094818e+00	8.505239e-01	8.558362e-01	8.588776e-01	8.590056e-01	8.456291e-01	8.432230e-01	8.412503e-01	9.720463e-01	1.084782e+00	1.074785e+00	1.049047e+00	1.041936e+00	1.035414e+00	1.022857e+00	1.016675e+00	1.010270e+00	9.964458e-01	9.888409e-01	9.806819e-01	9.629469e-01	9.534501e-01	9.437163e-01	9.139409e-01	8.615589e-01	8.480714e-01	9.044445e-01	8.959940e-01	8.889032e-01	8.583324e-01	8.575923e-01	8.566164e-01	8.553235e-01	8.535806e-01	8.708730e-01	8.815858e-01	8.630584e-01	8.652440e-01	8.747997e-01	9.456644e-01	9.439285e-01	8.949022e-01	9.112825e-01	8.397273e-01	8.409146e-01	8.431553e-01	8.564644e-01	8.454360e-01	8.483889e-01	8.509642e-01	1.119442e+00	1.112994e+00	1.104543e+00	9.270462e-01	9.236759e-01	9.202039e-01	8.974568e-01	9.040208e-01	1.273252e+00	9.014900e-01	1.116938e+00	1.094728e+00	9.408768e-01	1.255134e+00	1.156724e+00	9.719061e-01	9.687113e-01	1.035116e+00	1.099226e+00	8.347337e-01	1.251049e+00	9.780779e-01	1.180776e+00	1.112696e+00	1.107272e+00	1.166485e+00	9.240193e-01	1.126163e+00	1.179298e+00	1.181695e+00	8.731154e-01	8.530692e-01	1.080480e+00	9.431592e-01	9.145259e-01	9.469770e-01	9.158862e-01	1.092591e+00	8.738140e-01	1.113523e+00	1.111944e+00	1.001608e+00	8.551789e-01	8.621990e-01	1.116867e+00	8.617707e-01	9.415170e-01	1.135100e+00	1.093944e+00	1.141501e+00	1.048674e+00	1.103974e+00	9.089585e-01	1.206924e+00	9.049927e-01	8.995201e-01	1.129189e+00	1.126668e+00	1.155001e+00	1.027032e+00	8.384021e-01	8.593546e-01	1.213087e+00	1.008701e+00	9.342684e-01	1.061804e+00	8.578116e-01	8.606215e-01	8.615618e-01	9.166921e-01	9.133641e-01	1.099322e+00	1.043986e+00	1.084367e+00	1.231703e+00	1.284705e+00	1.057233e+00	1.025396e+00	1.104290e+00	8.855848e-01	9.121098e-01	9.279574e-01	9.528438e-01	9.622270e-01	9.435346e-01	9.285230e-01	9.690372e-01	9.729675e-01	9.737913e-01	9.815541e-01	1.001547e+00	8.817931e-01	8.782437e-01	1.134817e+00	9.471817e-01	9.468241e-01	9.449815e-01	9.462483e-01	9.667122e-01	9.698660e-01	8.623628e-01	8.557604e-01	9.385560e-01	1.069883e+00	1.088665e+00	8.947615e-01	8.881221e-01	8.894866e-01	8.788665e-01	8.700635e-01	9.357710e-01	9.330701e-01	1.015229e+00	9.958016e-01	9.769309e-01	9.594670e-01	9.303322e-01	9.343065e-01	9.377475e-01	9.407254e-01	8.542450e-01	8.594469e-01	8.676066e-01	8.769183e-01	8.852248e-01	9.259785e-01	9.211063e-01	8.923170e-01	8.326953e-01	1.104750e+00	1.109571e+00	8.340588e-01	8.365884e-01	8.395331e-01	8.424951e-01	8.454274e-01	8.684539e-01	8.766586e-01	8.625284e-01	8.625952e-01	8.527729e-01	8.506980e-01	8.494082e-01	8.486869e-01	1.086871e+00	1.078373e+00	1.070006e+00	1.054084e+00	1.046956e+00	1.040349e+00	1.033201e+00	1.021614e+00	1.014577e+00	1.008240e+00	9.943212e-01	9.869841e-01	9.787887e-01	9.707213e-01	9.615764e-01	9.529703e-01	9.431159e-01	8.493810e-01	8.607377e-01	9.154837e-01	9.058732e-01	8.993108e-01	8.916182e-01	8.623760e-01	8.619134e-01	8.611601e-01	8.601711e-01	8.588991e-01	8.572078e-01	8.861408e-01	8.980289e-01	8.757377e-01	8.822469e-01	8.951262e-01	9.459337e-01	9.447385e-01	9.429989e-01	9.130438e-01	9.308742e-01	9.520413e-01	8.487448e-01	8.500154e-01	8.529406e-01	8.568706e-01	8.482833e-01	8.510766e-01	8.537702e-01	8.559458e-01	1.094941e+00	1.107981e+00	1.102295e+00	9.298693e-01	9.269952e-01	9.235225e-01	9.205006e-01	8.983929e-01	9.044048e-01	9.102026e-01	1.124210e+00	1.113754e+00	1.043994e+00	1.170068e+00	1.147144e+00	9.038774e-01	9.109675e-01	1.169504e+00	1.096610e+00	1.213001e+00	1.058709e+00	8.660701e-01	8.598950e-01	1.022902e+00	1.122119e+00	1.225967e+00	1.288010e+00	1.289547e+00	1.274396e+00	1.230239e+00	1.135676e+00	8.628671e-01	1.061861e+00	1.115977e+00	9.777587e-01	8.850438e-01	9.440820e-01	1.105121e+00	1.087728e+00	1.102205e+00	8.667300e-01	8.483940e-01	9.295419e-01	9.960686e-01	8.418446e-01	9.412742e-01	8.606531e-01	1.099774e+00	9.237260e-01	1.156214e+00	1.095428e+00	1.284192e+00	1.176896e+00	1.168938e+00	9.752947e-01	1.039115e+00	1.248334e+00	9.946526e-01	1.191747e+00	1.105124e+00	1.155504e+00	1.170732e+00	1.171527e+00	1.102068e+00	9.250603e-01	9.206624e-01	1.096360e+00	8.863897e-01	1.104637e+00	1.105402e+00	9.119976e-01	1.192267e+00	8.636208e-01	8.652224e-01	8.654233e-01	9.190715e-01	1.053637e+00	1.087238e+00	1.259593e+00	1.080784e+00	9.299682e-01	9.406484e-01	9.516865e-01	9.603990e-01	9.372338e-01	9.522630e-01	9.676762e-01	9.723319e-01	9.750946e-01	9.762743e-01	1.006877e+00	1.025251e+00	8.889650e-01	1.124457e+00	9.467439e-01	9.466769e-01	9.453492e-01	9.461617e-01	9.819836e-01	9.915372e-01	8.726967e-01	8.656023e-01	1.078399e+00	1.093011e+00	8.964137e-01	8.989576e-01	8.876969e-01	8.818469e-01	9.366936e-01	1.020372e+00	1.001715e+00	9.836723e-01	9.677925e-01	9.293876e-01	9.331431e-01	9.365624e-01	9.395347e-01	9.419584e-01	8.656817e-01	8.716938e-01	8.775992e-01	8.859770e-01	8.928818e-01	1.099089e+00	1.101890e+00	1.104114e+00	8.396692e-01	8.423746e-01	8.436000e-01	8.470565e-01	8.487922e-01	8.816408e-01	8.911198e-01	8.665185e-01	8.662194e-01	8.572702e-01	8.575319e-01	8.576616e-01	1.079901e+00	1.073152e+00	1.065378e+00	1.058362e+00	1.051189e+00	1.044667e+00	1.037726e+00	1.028281e+00	1.019709e+00	1.009233e+00	9.813194e-01	9.651665e-01	9.477415e-01	9.126373e-01	8.989944e-01	8.668313e-01	8.660025e-01	8.661405e-01	8.647333e-01	8.645951e-01	8.632816e-01	8.617071e-01	9.021584e-01	9.146970e-01	8.905896e-01	8.984994e-01	9.142826e-01	9.460385e-01	9.444652e-01	9.302167e-01	9.491805e-01	9.702040e-01	8.584322e-01	8.602335e-01	8.635748e-01	8.690210e-01	8.749163e-01	8.520863e-01	8.537935e-01	8.568319e-01	8.594578e-01	1.098700e+00	1.092510e+00	9.312959e-01	9.254296e-01	8.996806e-01	9.049913e-01	9.107638e-01	9.155278e-01	1.163111e+00	1.143325e+00	1.158527e+00	1.245433e+00	1.174414e+00	1.070845e+00	1.099475e+00	1.174481e+00	1.098209e+00	1.137592e+00	1.095783e+00	1.237626e+00	1.060192e+00	1.138871e+00	8.652172e-01	1.171137e+00	1.060279e+00	1.145055e+00	1.118915e+00	1.056781e+00	9.431429e-01	1.096869e+00	9.265655e-01	9.912912e-01	9.832696e-01	9.299658e-01	9.205670e-01	8.772649e-01	1.210547e+00	9.450793e-01	9.474457e-01	9.341815e-01	8.650394e-01	1.095901e+00	1.082402e+00	1.202378e+00	1.033509e+00	1.042047e+00	1.162750e+00	1.095726e+00	1.285247e+00	1.225690e+00	1.106217e+00	9.048749e-01	8.529207e-01	8.481510e-01	1.103641e+00	1.167254e+00	1.118849e+00	1.262344e+00	1.171698e+00	1.042734e+00	1.195287e+00	1.177506e+00	8.834322e-01	1.079659e+00	1.098105e+00	1.095820e+00	8.650634e-01	8.678808e-01	8.696559e-01	9.115585e-01	1.088462e+00	1.117202e+00	1.099903e+00	9.470686e-01	9.633311e-01	9.608122e-01	9.748578e-01	9.803013e-01	1.026954e+00	1.115231e+00	9.463081e-01	1.000435e+00	1.012507e+00	8.804188e-01	1.083891e+00	8.989060e-01	8.954346e-01	9.040323e-01	8.920100e-01	9.397105e-01	1.025222e+00	1.006679e+00	9.896621e-01	9.779219e-01	9.338391e-01	9.396124e-01	9.431767e-01	8.839064e-01	8.965887e-01	1.096779e+00	1.097750e+00	8.503330e-01	8.544714e-01	9.056799e-01	8.706014e-01	8.666947e-01	1.015636e+00	1.070676e+00	1.057550e+00	1.044884e+00	1.034093e+00	1.025054e+00	1.004084e+00	9.907529e-01	9.761412e-01	9.603576e-01	9.433417e-01	9.265034e-01	9.123383e-01	8.996940e-01	8.706867e-01	8.699600e-01	8.694063e-01	8.673217e-01	8.668959e-01	9.183906e-01	9.316343e-01	8.984553e-01	9.105181e-01	9.311917e-01	9.462645e-01	9.452109e-01	9.468398e-01	9.655335e-01	9.863985e-01	1.008590e+00	8.686659e-01	8.710081e-01	8.747751e-01	8.808579e-01	8.893475e-01	8.940779e-01	8.585715e-01	8.626907e-01	1.094918e+00	1.090164e+00	9.351480e-01	9.243750e-01	9.182867e-01	9.085831e-01	9.182127e-01	1.108272e+00	1.162007e+00	1.157771e+00	1.125560e+00	1.004724e+00	1.101596e+00	1.167403e+00	1.131650e+00	1.164362e+00	1.113950e+00	1.144415e+00	1.121959e+00	1.088420e+00	1.182364e+00	1.216935e+00	1.093328e+00	9.076631e-01	8.686777e-01	1.114997e+00	9.825548e-01	1.078619e+00	9.142884e-01	1.064931e+00	1.148191e+00	9.442869e-01	1.006814e+00	9.290794e-01	9.419957e-01	1.065726e+00	1.076998e+00	1.061548e+00	1.046497e+00	1.163971e+00	1.095779e+00	1.098038e+00	1.092593e+00	8.732959e-01	8.986770e-01	9.181765e-01	9.686452e-01	1.140106e+00	1.147809e+00	1.261455e+00	1.053765e+00	1.092988e+00	1.168952e+00	1.087698e+00	1.159389e+00	1.130932e+00	9.444203e-01	1.205362e+00	9.588056e-01	9.432548e-01	1.094384e+00	1.221862e+00	1.041551e+00	1.097513e+00	9.125138e-01	1.238759e+00	1.170552e+00	9.845361e-01	1.192744e+00	1.179255e+00	8.669760e-01	1.096553e+00	1.090860e+00	8.819769e-01	8.711709e-01	9.126328e-01	1.112169e+00	1.135486e+00	9.609121e-01	9.734442e-01	9.885121e-01	9.962311e-01	1.107174e+00	9.457143e-01	1.017635e+00	1.029250e+00	9.418059e-01	9.157015e-01	9.312944e-01	9.049574e-01	9.282913e-01	9.135161e-01	9.007478e-01	1.028599e+00	9.317551e-01	9.375899e-01	8.916765e-01	8.898182e-01	9.238100e-01	1.093665e+00	8.581883e-01	8.563529e-01	8.757600e-01	1.073160e+00	1.062123e+00	1.021208e+00	1.050471e+00	1.039694e+00	1.030248e+00	1.011040e+00	9.991139e-01	9.858533e-01	9.715885e-01	9.561510e-01	9.400223e-01	9.253256e-01	8.747596e-01	8.755814e-01	8.757783e-01	8.753709e-01	8.735778e-01	8.739184e-01	9.335673e-01	9.482244e-01	9.068201e-01	9.471291e-01	9.462821e-01	9.458008e-01	9.628115e-01	9.800820e-01	1.000024e+00	1.020330e+00	1.041946e+00	8.796456e-01	8.835847e-01	8.872504e-01	8.930133e-01	9.019497e-01	8.587132e-01	8.621228e-01	8.656514e-01	1.088190e+00	1.081923e+00	9.384197e-01	9.339834e-01	8.961958e-01	9.068766e-01	9.168722e-01	9.248778e-01	1.142909e+00	1.150131e+00	1.147515e+00	1.110655e+00	1.145989e+00	1.129012e+00	1.106943e+00	1.021278e+00	1.166484e+00	1.114854e+00	1.111635e+00	1.051538e+00	1.157991e+00	1.089139e+00	8.789968e-01	1.133388e+00	1.137533e+00	1.108297e+00	1.162669e+00	1.068187e+00	9.108478e-01	1.007576e+00	9.914636e-01	9.139997e-01	1.128950e+00	1.122339e+00	1.118640e+00	1.166730e+00	1.151970e+00	8.984004e-01	9.