# vtk DataFile Version 3.0
vtk output
ASCII
DATASET UNSTRUCTURED_GRID
POINTS 200 float
9.997500e-01	-3.633567e-05	0.0	9.990000e-01	-1.456765e-04	0.0	9.977600e-01	-3.297399e-04	0.0	9.960200e-01	-6.019175e-04	0.0	9.937800e-01	-9.900634e-04	0.0	9.910500e-01	-1.539434e-03	0.0	9.878400e-01	-2.307721e-03	0.0	9.841300e-01	-3.355710e-03	0.0	9.799500e-01	-4.699082e-03	0.0	9.752800e-01	-6.311188e-03	0.0	9.701500e-01	-8.084111e-03	0.0	9.645400e-01	-9.881198e-03	0.0	9.584700e-01	-1.154861e-02	0.0	9.519400e-01	-1.298330e-02	0.0	9.449600e-01	-1.415558e-02	0.0	9.375400e-01	-1.511454e-02	0.0	9.296900e-01	-1.596231e-02	0.0	9.214000e-01	-1.681730e-02	0.0	9.127000e-01	-1.777333e-02	0.0	9.035800e-01	-1.888730e-02	0.0	8.940600e-01	-2.016728e-02	0.0	8.841500e-01	-2.158491e-02	0.0	8.738500e-01	-2.309014e-02	0.0	8.631800e-01	-2.462131e-02	0.0	8.521600e-01	-2.611996e-02	0.0	8.407700e-01	-2.754348e-02	0.0	8.290500e-01	-2.885549e-02	0.0	8.170100e-01	-3.003846e-02	0.0	8.046400e-01	-3.108930e-02	0.0	7.919700e-01	-3.201127e-02	0.0	7.790100e-01	-3.281648e-02	0.0	7.657800e-01	-3.352012e-02	0.0	7.522800e-01	-3.413942e-02	0.0	7.385200e-01	-3.468986e-02	0.0	7.245300e-01	-3.518389e-02	0.0	7.103200e-01	-3.563187e-02	0.0	6.958900e-01	-3.604136e-02	0.0	6.812700e-01	-3.641646e-02	0.0	6.664700e-01	-3.675997e-02	0.0	6.515000e-01	-3.707357e-02	0.0	6.363800e-01	-3.735839e-02	0.0	6.211300e-01	-3.761595e-02	0.0	6.057600e-01	-3.784878e-02	0.0	5.902800e-01	-3.806043e-02	0.0	5.747100e-01	-3.825541e-02	0.0	5.590600e-01	-3.843934e-02	0.0	5.433600e-01	-3.861827e-02	0.0	5.276100e-01	-3.879885e-02	0.0	5.118400e-01	-3.898722e-02	0.0	4.960500e-01	-3.918924e-02	0.0	4.802700e-01	-3.940942e-02	0.0	4.645100e-01	-3.965117e-02	0.0	4.487800e-01	-3.991638e-02	0.0	4.331100e-01	-4.020493e-02	0.0	4.175000e-01	-4.051549e-02	0.0	4.019700e-01	-4.084476e-02	0.0	3.865400e-01	-4.118791e-02	0.0	3.712300e-01	-4.153878e-02	0.0	3.560400e-01	-4.189059e-02	0.0	3.409900e-01	-4.223531e-02	0.0	3.261100e-01	-4.256411e-02	0.0	3.114000e-01	-4.286857e-02	0.0	2.968700e-01	-4.313991e-02	0.0	2.825500e-01	-4.336912e-02	0.0	2.684500e-01	-4.354792e-02	0.0	2.545700e-01	-4.366845e-02	0.0	2.409400e-01	-4.372310e-02	0.0	2.275700e-01	-4.370508e-02	0.0	2.144700e-01	-4.360814e-02	0.0	2.016600e-01	-4.342681e-02	0.0	1.891400e-01	-4.315597e-02	0.0	1.769300e-01	-4.279144e-02	0.0	1.650400e-01	-4.232951e-02	0.0	1.534900e-01	-4.176760e-02	0.0	1.422900e-01	-4.110352e-02	0.0	1.314400e-01	-4.033495e-02	0.0	1.209500e-01	-3.946070e-02	0.0	1.108500e-01	-3.848230e-02	0.0	1.011300e-01	-3.739851e-02	0.0	9.181000e-02	-3.621179e-02	0.0	8.290000e-02	-3.492467e-02	0.0	7.440000e-02	-3.353903e-02	0.0	6.633000e-02	-3.206091e-02	0.0	5.869000e-02	-3.049407e-02	0.0	5.149000e-02	-2.884500e-02	0.0	4.474000e-02	-2.712148e-02	0.0	3.844000e-02	-2.532959e-02	0.0	3.260000e-02	-2.347878e-02	0.0	2.723000e-02	-2.157972e-02	0.0	2.232000e-02	-1.963593e-02	0.0	1.790000e-02	-1.766699e-02	0.0	1.395000e-02	-1.567110e-02	0.0	1.049000e-02	-1.366377e-02	0.0	7.520000e-03	-1.164979e-02	0.0	5.040000e-03	-9.630129e-03	0.0	3.050000e-03	-7.599124e-03	0.0	1.560000e-03	-5.554585e-03	0.0	5.600000e-04	-3.448997e-03	0.0	6.000000e-05	-1.209959e-03	0.0	0.000000e+00	0.000000e+00	0.0	6.000000e-05	1.165993e-03	0.0	5.600000e-04	3.217642e-03	0.0	1.560000e-03	5.046323e-03	0.0	3.050000e-03	6.742164e-03	0.0	5.040000e-03	8.361203e-03	0.0	7.520000e-03	9.917982e-03	0.0	1.049000e-02	1.142818e-02	0.0	1.395000e-02	1.290106e-02	0.0	1.790000e-02	1.434219e-02	0.0	2.232000e-02	1.574886e-02	0.0	2.723000e-02	1.713018e-02	0.0	3.260000e-02	1.847951e-02	0.0	3.844000e-02	1.980107e-02	0.0	4.474000e-02	2.109349e-02	0.0	5.149000e-02	2.235567e-02	0.0	5.869000e-02	2.358840e-02	0.0	6.633000e-02	2.479065e-02	0.0	7.440000e-02	2.596167e-02	0.0	8.290000e-02	2.710229e-02	0.0	9.181000e-02	2.821076e-02	0.0	1.011300e-01	2.928816e-02	0.0	1.108500e-01	3.033438e-02	0.0	1.209500e-01	3.134852e-02	0.0	1.314400e-01	3.233278e-02	0.0	1.422900e-01	3.328558e-02	0.0	1.534900e-01	3.420743e-02	0.0	1.650400e-01	3.509960e-02	0.0	1.769300e-01	3.596242e-02	0.0	1.891400e-01	3.679553e-02	0.0	2.016600e-01	3.759920e-02	0.0	2.144700e-01	3.837298e-02	0.0	2.275700e-01	3.911741e-02	0.0	2.409400e-01	3.983160e-02	0.0	2.545700e-01	4.051494e-02	0.0	2.684500e-01	4.116643e-02	0.0	2.825500e-01	4.178384e-02	0.0	2.968700e-01	4.236587e-02	0.0	3.114000e-01	4.291024e-02	0.0	3.261100e-01	4.341355e-02	0.0	3.409900e-01	4.387274e-02	0.0	3.560400e-01	4.428451e-02	0.0	3.712300e-01	4.464437e-02	0.0	3.865400e-01	4.494786e-02	0.0	4.019700e-01	4.519067e-02	0.0	4.175000e-01	4.536788e-02	0.0	4.331100e-01	4.547455e-02	0.0	4.487800e-01	4.550584e-02	0.0	4.645100e-01	4.545695e-02	0.0	4.802700e-01	4.532323e-02	0.0	4.960500e-01	4.510020e-02	0.0	5.118400e-01	4.478351e-02	0.0	5.276100e-01	4.436957e-02	0.0	5.433600e-01	4.385446e-02	0.0	5.590600e-01	4.323560e-02	0.0	5.747100e-01	4.250995e-02	0.0	5.902800e-01	4.167659e-02	0.0	6.057600e-01	4.073480e-02	0.0	6.211300e-01	3.968583e-02	0.0	6.363800e-01	3.853201e-02	0.0	6.515000e-01	3.727762e-02	0.0	6.664700e-01	3.593009e-02	0.0	6.812700e-01	3.449949e-02	0.0	6.958900e-01	3.299743e-02	0.0	7.103200e-01	3.143755e-02	0.0	7.245300e-01	2.983721e-02	0.0	7.385200e-01	2.821116e-02	0.0	7.522800e-01	2.657470e-02	0.0	7.657800e-01	2.494390e-02	0.0	7.790100e-01	2.332976e-02	0.0	7.919700e-01	2.173849e-02	0.0	8.046400e-01	2.017485e-02	0.0	8.170100e-01	1.863865e-02	0.0	8.290500e-01	1.712911e-02	0.0	8.407700e-01	1.563826e-02	0.0	8.521600e-01	1.415926e-02	0.0	8.631800e-01	1.268865e-02	0.0	8.738500e-01	1.121498e-02	0.0	8.841500e-01	9.732791e-03	0.0	8.940600e-01	8.239648e-03	0.0	9.035800e-01	6.737149e-03	0.0	9.127000e-01	5.241826e-03	0.0	9.214000e-01	3.792760e-03	0.0	9.296900e-01	2.449286e-03	0.0	9.375400e-01	1.298555e-03	0.0	9.449600e-01	4.270020e-04	0.0	9.519400e-01	-9.664697e-05	0.0	9.584700e-01	-2.543291e-04	0.0	9.645400e-01	-9.681777e-05	0.0	9.701500e-01	2.627997e-04	0.0	9.752800e-01	6.783898e-04	0.0	9.799500e-01	1.018747e-03	0.0	9.841300e-01	1.197866e-03	0.0	9.878400e-01	1.196093e-03	0.0	9.910500e-01	1.046808e-03	0.0	9.937800e-01	8.108985e-04	0.0	9.960200e-01	5.521545e-04	0.0	9.977600e-01	3.205026e-04	0.0	9.990000e-01	1.448331e-04	0.0	9.997500e-01	3.632230e-05	0.0	1.000000e+00	0.000000e+00	0.0	
CELLS 200	600
2	199	0	2	0	1	2	1	2	2	2	3	2	3	4	2	4	5	2	5	6	2	6	7	2	7	8	2	8	9	2	9	10	2	10	11	2	11	12	2	12	13	2	13	14	2	14	15	2	15	16	2	16	17	2	17	18	2	18	19	2	19	20	2	20	21	2	21	22	2	22	23	2	23	24	2	24	25	2	25	26	2	26	27	2	27	28	2	28	29	2	29	30	2	30	31	2	31	32	2	32	33	2	33	34	2	34	35	2	35	36	2	36	37	2	37	38	2	38	39	2	39	40	2	40	41	2	41	42	2	42	43	2	43	44	2	44	45	2	45	46	2	46	47	2	47	48	2	48	49	2	49	50	2	50	51	2	51	52	2	52	53	2	53	54	2	54	55	2	55	56	2	56	57	2	57	58	2	58	59	2	59	60	2	60	61	2	61	62	2	62	63	2	63	64	2	64	65	2	65	66	2	66	67	2	67	68	2	68	69	2	69	70	2	70	71	2	71	72	2	72	73	2	73	74	2	74	75	2	75	76	2	76	77	2	77	78	2	78	79	2	79	80	2	80	81	2	81	82	2	82	83	2	83	84	2	84	85	2	85	86	2	86	87	2	87	88	2	88	89	2	89	90	2	90	91	2	91	92	2	92	93	2	93	94	2	94	95	2	95	96	2	96	97	2	97	98	2	98	99	2	99	100	2	100	101	2	101	102	2	102	103	2	103	104	2	104	105	2	105	106	2	106	107	2	107	108	2	108	109	2	109	110	2	110	111	2	111	112	2	112	113	2	113	114	2	114	115	2	115	116	2	116	117	2	117	118	2	118	119	2	119	120	2	120	121	2	121	122	2	122	123	2	123	124	2	124	125	2	125	126	2	126	127	2	127	128	2	128	129	2	129	130	2	130	131	2	131	132	2	132	133	2	133	134	2	134	135	2	135	136	2	136	137	2	137	138	2	138	139	2	139	140	2	140	141	2	141	142	2	142	143	2	143	144	2	144	145	2	145	146	2	146	147	2	147	148	2	148	149	2	149	150	2	150	151	2	151	152	2	152	153	2	153	154	2	154	155	2	155	156	2	156	157	2	157	158	2	158	159	2	159	160	2	160	161	2	161	162	2	162	163	2	163	164	2	164	165	2	165	166	2	166	167	2	167	168	2	168	169	2	169	170	2	170	171	2	171	172	2	172	173	2	173	174	2	174	175	2	175	176	2	176	177	2	177	178	2	178	179	2	179	180	2	180	181	2	181	182	2	182	183	2	183	184	2	184	185	2	185	186	2	186	187	2	187	188	2	188	189	2	189	190	2	190	191	2	191	192	2	192	193	2	193	194	2	194	195	2	195	196	2	196	197	2	197	198	2	198	199	
CELL_TYPES 200
3	3	3	3	3	3	3	3	3	3	3	3	3	3	3	3	3	3	3	3	3	3	3	3	3	3	3	3	3	3	3	3	3	3	3	3	3	3	3	3	3	3	3	3	3	3	3	3	3	3	3	3	3	3	3	3	3	3	3	3	3	3	3	3	3	3	3	3	3	3	3	3	3	3	3	3	3	3	3	3	3	3	3	3	3	3	3	3	3	3	3	3	3	3	3	3	3	3	3	3	3	3	3	3	3	3	3	3	3	3	3	3	3	3	3	3	3	3	3	3	3	3	3	3	3	3	3	3	3	3	3	3	3	3	3	3	3	3	3	3	3	3	3	3	3	3	3	3	3	3	3	3	3	3	3	3	3	3	3	3	3	3	3	3	3	3	3	3	3	3	3	3	3	3	3	3	3	3	3	3	3	3	3	3	3	3	3	3	3	3	3	3	3	3	3	3	3	3	3	3	
POINT_DATA 200

SCALARS Conservative_1 float 1
LOOKUP_TABLE default
1.194908e+00	1.179153e+00	1.172169e+00	1.169543e+00	1.168221e+00	1.165350e+00	1.157036e+00	1.140440e+00	1.113037e+00	1.074314e+00	1.024615e+00	9.626764e-01	9.066335e-01	8.845311e-01	8.954532e-01	9.232786e-01	9.533912e-01	9.754453e-01	9.862567e-01	9.866612e-01	9.783724e-01	9.635568e-01	9.446088e-01	9.233596e-01	8.996903e-01	8.736595e-01	8.503346e-01	8.363249e-01	8.333183e-01	8.385623e-01	8.481971e-01	8.591959e-01	8.698688e-01	8.793106e-01	8.873804e-01	8.941632e-01	8.998945e-01	9.048561e-01	9.092637e-01	9.133763e-01	9.173296e-01	9.212603e-01	9.251861e-01	9.291150e-01	9.329649e-01	9.366612e-01	9.400811e-01	9.431301e-01	9.456924e-01	9.476853e-01	9.490157e-01	9.496336e-01	9.494885e-01	9.485634e-01	9.468432e-01	9.443370e-01	9.410565e-01	9.370328e-01	9.323087e-01	9.269316e-01	9.209756e-01	9.144536e-01	9.073596e-01	8.996605e-01	8.915869e-01	8.835129e-01	8.755926e-01	8.670503e-01	8.564948e-01	8.432587e-01	8.295581e-01	8.191286e-01	8.140765e-01	8.138945e-01	8.170928e-01	8.223612e-01	8.292223e-01	8.375681e-01	8.472496e-01	8.581744e-01	8.703604e-01	8.837733e-01	8.984760e-01	9.144667e-01	9.318067e-01	9.506063e-01	9.708986e-01	9.928150e-01	1.016580e+00	1.042278e+00	1.070282e+00	1.101101e+00	1.135104e+00	1.173168e+00	1.215717e+00	1.262023e+00	1.307439e+00	1.347985e+00	1.348001e+00	1.321568e+00	1.296588e+00	1.222689e+00	1.088569e+00	9.925888e-01	9.285459e-01	8.889412e-01	8.651225e-01	8.500549e-01	8.396958e-01	8.322624e-01	8.267935e-01	8.226262e-01	8.195143e-01	8.171226e-01	8.153744e-01	8.143256e-01	8.138466e-01	8.138022e-01	8.141935e-01	8.151555e-01	8.169821e-01	8.198398e-01	8.235764e-01	8.277652e-01	8.319767e-01	8.359345e-01	8.394516e-01	8.423728e-01	8.446593e-01	8.464232e-01	8.478009e-01	8.488559e-01	8.495630e-01	8.498650e-01	8.497294e-01	8.491374e-01	8.480998e-01	8.466246e-01	8.447155e-01	8.423801e-01	8.396059e-01	8.363887e-01	8.327918e-01	8.289418e-01	8.249373e-01	8.208118e-01	8.165525e-01	8.124321e-01	8.092650e-01	8.087818e-01	8.130725e-01	8.232231e-01	8.373205e-01	8.509417e-01	8.609933e-01	8.682322e-01	8.750066e-01	8.830741e-01	8.928907e-01	9.038353e-01	9.151730e-01	9.266098e-01	9.380796e-01	9.494673e-01	9.605154e-01	9.710311e-01	9.808229e-01	9.898024e-01	9.978750e-01	1.005118e+00	1.011602e+00	1.017500e+00	1.023053e+00	1.028523e+00	1.034213e+00	1.040452e+00	1.047614e+00	1.056183e+00	1.066663e+00	1.079559e+00	1.094965e+00	1.112356e+00	1.130266e+00	1.146693e+00	1.159286e+00	1.165741e+00	1.164039e+00	1.152875e+00	1.132108e+00	1.104086e+00	1.075018e+00	1.052682e+00	1.044526e+00	1.053657e+00	1.075737e+00	1.102841e+00	1.129822e+00	1.156221e+00	1.184516e+00	1.174613e+00	
SCALARS Conservative_2 float 1
LOOKUP_TABLE default
7.156567e-01	7.376941e-01	7.504471e-01	7.550373e-01	7.547030e-01	7.547939e-01	7.588190e-01	7.711211e-01	7.942362e-01	8.280208e-01	8.691066e-01	9.104084e-01	9.416146e-01	9.619497e-01	9.712515e-01	9.690411e-01	9.607796e-01	9.517274e-01	9.449324e-01	9.425494e-01	9.446081e-01	9.499237e-01	9.567596e-01	9.637570e-01	9.700437e-01	9.746647e-01	9.768900e-01	9.778050e-01	9.784142e-01	9.789913e-01	9.794405e-01	9.795616e-01	9.794490e-01	9.789846e-01	9.783690e-01	9.776335e-01	9.768846e-01	9.761717e-01	9.754112e-01	9.746639e-01	9.738450e-01	9.729943e-01	9.720540e-01	9.710745e-01	9.700349e-01	9.690029e-01	9.679835e-01	9.670546e-01	9.662323e-01	9.655841e-01	9.651225e-01	9.649101e-01	9.649412e-01	9.652405e-01	9.657945e-01	9.666035e-01	9.676308e-01	9.688515e-01	9.702158e-01	9.716661e-01	9.731779e-01	9.746770e-01	9.761729e-01	9.775636e-01	9.787982e-01	9.797055e-01	9.803734e-01	9.808758e-01	9.813807e-01	9.814999e-01	9.808740e-01	9.796809e-01	9.786513e-01	9.779021e-01	9.774646e-01	9.769757e-01	9.764096e-01	9.755634e-01	9.741288e-01	9.719410e-01	9.688905e-01	9.646603e-01	9.590313e-01	9.516307e-01	9.420570e-01	9.297754e-01	9.141484e-01	8.945110e-01	8.698339e-01	8.386758e-01	7.993108e-01	7.492202e-01	6.845402e-01	6.008540e-01	4.920645e-01	3.542552e-01	1.976604e-01	5.392596e-02	-1.066702e-02	6.918030e-03	7.783096e-02	2.415966e-01	4.702827e-01	6.456629e-01	7.589116e-01	8.295454e-01	8.730685e-01	9.009005e-01	9.191383e-01	9.317053e-01	9.407212e-01	9.473058e-01	9.523558e-01	9.563085e-01	9.594584e-01	9.620678e-01	9.642109e-01	9.660013e-01	9.676028e-01	9.690458e-01	9.703988e-01	9.716713e-01	9.728176e-01	9.737745e-01	9.745776e-01	9.752569e-01	9.758301e-01	9.763063e-01	9.767122e-01	9.770693e-01	9.773913e-01	9.776741e-01	9.779292e-01	9.781520e-01	9.783609e-01	9.785473e-01	9.787212e-01	9.788713e-01	9.789851e-01	9.790710e-01	9.791159e-01	9.791016e-01	9.790195e-01	9.788749e-01	9.786445e-01	9.783490e-01	9.779761e-01	9.776523e-01	9.774556e-01	9.776702e-01	9.784599e-01	9.796069e-01	9.802285e-01	9.799892e-01	9.793404e-01	9.787217e-01	9.780741e-01	9.770749e-01	9.755282e-01	9.733632e-01	9.706338e-01	9.674088e-01	9.637140e-01	9.596158e-01	9.552175e-01	9.506654e-01	9.460960e-01	9.416664e-01	9.373841e-01	9.333858e-01	9.296058e-01	9.259454e-01	9.223028e-01	9.184853e-01	9.142539e-01	9.093244e-01	9.032831e-01	8.956331e-01	8.856482e-01	8.727156e-01	8.564030e-01	8.371424e-01	8.165157e-01	7.975358e-01	7.838657e-01	7.789930e-01	7.853255e-01	8.033749e-01	8.308785e-01	8.629542e-01	8.919549e-01	9.096728e-01	9.119278e-01	9.001750e-01	8.774612e-01	8.479173e-01	8.139920e-01	7.759190e-01	7.325727e-01	6.650126e-01	
SCALARS Conservative_3 float 1
LOOKUP_TABLE default
1.015203e-01	1.065182e-01	1.139284e-01	1.243788e-01	1.416158e-01	1.667052e-01	1.984373e-01	2.329826e-01	2.644411e-01	2.848390e-01	2.874175e-01	2.707662e-01	2.329247e-01	1.855501e-01	1.434037e-01	1.138435e-01	1.003235e-01	1.007512e-01	1.093023e-01	1.206843e-01	1.308526e-01	1.371925e-01	1.383489e-01	1.342478e-01	1.262511e-01	1.159926e-01	1.038380e-01	9.068490e-02	7.788051e-02	6.632203e-02	5.645774e-02	4.831057e-02	4.179493e-02	3.663934e-02	3.251629e-02	2.915033e-02	2.630356e-02	2.379406e-02	2.150512e-02	1.937191e-02	1.738415e-02	1.557214e-02	1.398554e-02	1.268546e-02	1.172963e-02	1.116074e-02	1.100174e-02	1.124840e-02	1.187829e-02	1.283693e-02	1.406121e-02	1.546168e-02	1.695024e-02	1.842469e-02	1.978750e-02	2.094306e-02	2.180371e-02	2.228649e-02	2.232534e-02	2.185367e-02	2.081750e-02	1.917970e-02	1.693180e-02	1.408084e-02	1.059435e-02	6.359476e-03	1.276305e-03	-4.565680e-03	-1.084024e-02	-1.732781e-02	-2.446517e-02	-3.268253e-02	-4.197001e-02	-5.212538e-02	-6.308470e-02	-7.485971e-02	-8.757688e-02	-1.012701e-01	-1.159748e-01	-1.317650e-01	-1.486776e-01	-1.667309e-01	-1.859749e-01	-2.064109e-01	-2.280332e-01	-2.508432e-01	-2.748346e-01	-2.999579e-01	-3.260423e-01	-3.529085e-01	-3.801691e-01	-4.067456e-01	-4.307844e-01	-4.480907e-01	-4.494896e-01	-4.181930e-01	-3.277794e-01	-1.513220e-01	9.101804e-02	2.866403e-01	4.675406e-01	6.546031e-01	6.963291e-01	6.344791e-01	5.475728e-01	4.683011e-01	4.040389e-01	3.526709e-01	3.112965e-01	2.772243e-01	2.489048e-01	2.249293e-01	2.044016e-01	1.866283e-01	1.710838e-01	1.573959e-01	1.452675e-01	1.344179e-01	1.246686e-01	1.158540e-01	1.078768e-01	1.006790e-01	9.416952e-02	8.823415e-02	8.277384e-02	7.771846e-02	7.304453e-02	6.869769e-02	6.463698e-02	6.082370e-02	5.723831e-02	5.384592e-02	5.060444e-02	4.746055e-02	4.437673e-02	4.131002e-02	3.822763e-02	3.509147e-02	3.186571e-02	2.851803e-02	2.501357e-02	2.132414e-02	1.741596e-02	1.328019e-02	8.913468e-03	4.303290e-03	-5.864206e-04	-5.813167e-03	-1.140947e-02	-1.737740e-02	-2.353497e-02	-2.964274e-02	-3.548648e-02	-4.156568e-02	-4.842463e-02	-5.584798e-02	-6.334011e-02	-7.062057e-02	-7.761502e-02	-8.431844e-02	-9.066573e-02	-9.652127e-02	-1.016543e-01	-1.059502e-01	-1.093167e-01	-1.117887e-01	-1.133995e-01	-1.143096e-01	-1.147188e-01	-1.148860e-01	-1.150767e-01	-1.155392e-01	-1.164852e-01	-1.180629e-01	-1.203674e-01	-1.234644e-01	-1.273369e-01	-1.318277e-01	-1.364599e-01	-1.401901e-01	-1.412440e-01	-1.372475e-01	-1.257518e-01	-1.052163e-01	-7.563523e-02	-3.911377e-02	7.783873e-06	3.546523e-02	5.983143e-02	6.638871e-02	5.200416e-02	2.021944e-02	-2.012570e-02	-5.861068e-02	-8.719612e-02	-1.032649e-01	-1.092852e-01	-1.071129e-01	-1.008155e-01	4.108765e-03	
SCALARS Conservative_4 float 1
LOOKUP_TABLE default
3.432119e+00	3.392532e+00	3.375748e+00	3.369649e+00	3.366502e+00	3.359549e+00	3.338810e+00	3.297341e+00	3.228718e+00	3.131538e+00	3.006258e+00	2.848636e+00	2.704973e+00	2.649398e+00	2.678965e+00	2.750958e+00	2.828401e+00	2.884909e+00	2.912321e+00	2.913135e+00	2.891809e+00	2.853816e+00	2.805141e+00	2.750377e+00	2.689083e+00	2.621266e+00	2.560091e+00	2.523168e+00	2.515118e+00	2.528782e+00	2.554033e+00	2.582872e+00	2.610875e+00	2.635593e+00	2.656692e+00	2.674386e+00	2.689318e+00	2.702239e+00	2.713689e+00	2.724372e+00	2.734619e+00	2.744808e+00	2.754966e+00	2.765130e+00	2.775076e+00	2.784624e+00	2.793446e+00	2.801313e+00	2.807917e+00	2.813055e+00	2.816480e+00	2.818076e+00	2.817705e+00	2.815327e+00	2.810901e+00	2.804450e+00	2.795999e+00	2.785627e+00	2.773436e+00	2.759541e+00	2.744135e+00	2.727237e+00	2.708840e+00	2.688830e+00	2.667810e+00	2.646720e+00	2.625995e+00	2.603617e+00	2.575985e+00	2.541251e+00	2.505152e+00	2.477525e+00	2.464086e+00	2.463521e+00	2.471952e+00	2.485851e+00	2.503985e+00	2.526029e+00	2.551523e+00	2.580208e+00	2.612137e+00	2.647167e+00	2.685451e+00	2.726935e+00	2.771738e+00	2.820092e+00	2.872019e+00	2.927831e+00	2.988032e+00	3.052714e+00	3.122776e+00	3.199410e+00	3.283336e+00	3.376761e+00	3.480532e+00	3.592922e+00	3.703001e+00	3.804069e+00	3.802269e+00	3.735724e+00	3.681147e+00	3.504884e+00	3.162433e+00	2.917050e+00	2.753250e+00	2.652657e+00	2.592483e+00	2.554466e+00	2.528167e+00	2.509186e+00	2.495179e+00	2.484442e+00	2.476428e+00	2.470271e+00	2.465780e+00	2.463128e+00	2.461955e+00	2.461913e+00	2.463037e+00	2.465671e+00	2.470595e+00	2.478242e+00	2.488191e+00	2.499300e+00	2.510450e+00	2.520921e+00	2.530224e+00	2.537950e+00	2.544001e+00	2.548674e+00	2.552331e+00	2.555135e+00	2.557022e+00	2.557838e+00	2.557502e+00	2.555962e+00	2.553250e+00	2.549382e+00	2.544365e+00	2.538223e+00	2.530921e+00	2.522442e+00	2.512953e+00	2.502789e+00	2.492203e+00	2.481291e+00	2.470018e+00	2.459142e+00	2.450818e+00	2.449660e+00	2.461185e+00	2.488180e+00	2.525401e+00	2.561186e+00	2.587537e+00	2.606549e+00	2.624367e+00	2.645527e+00	2.671186e+00	2.699699e+00	2.729147e+00	2.758774e+00	2.788405e+00	2.817752e+00	2.846150e+00	2.873119e+00	2.898177e+00	2.921123e+00	2.941698e+00	2.960146e+00	2.976636e+00	2.991613e+00	3.005700e+00	3.019558e+00	3.033954e+00	3.049711e+00	3.067757e+00	3.089299e+00	3.115548e+00	3.147756e+00	3.186107e+00	3.229280e+00	3.273629e+00	3.314309e+00	3.345624e+00	3.361955e+00	3.358293e+00	3.331253e+00	3.280123e+00	3.210462e+00	3.137646e+00	3.080931e+00	3.059369e+00	3.081657e+00	3.136850e+00	3.204538e+00	3.271402e+00	3.336362e+00	3.406298e+00	3.366210e+00	
SCALARS Pressure float 1
LOOKUP_TABLE default
1.285398e+00	1.262786e+00	1.251994e+00	1.247726e+00	1.245656e+00	1.241274e+00	1.229186e+00	1.205137e+00	1.165572e+00	1.109873e+00	1.038938e+00	9.520272e-01	8.744319e-01	8.427458e-01	8.562997e-01	8.941614e-01	9.356039e-01	9.661653e-01	9.814377e-01	9.822199e-01	9.708217e-01	9.503229e-01	9.241906e-01	8.950626e-01	8.629101e-01	8.279569e-01	7.970444e-01	7.786569e-01	7.748368e-01	7.818763e-01	7.946635e-01	8.092478e-01	8.233818e-01	8.359404e-01	8.467010e-01	8.557854e-01	8.634811e-01	8.701487e-01	8.760997e-01	8.816537e-01	8.870134e-01	8.923438e-01	8.976848e-01	9.030316e-01	9.082854e-01	9.133307e-01	9.180099e-01	9.221811e-01	9.256931e-01	9.284229e-01	9.302499e-01	9.310937e-01	9.308922e-01	9.296172e-01	9.272525e-01	9.238083e-01	9.193076e-01	9.137946e-01	9.073347e-01	9.000014e-01	8.918922e-01	8.830412e-01	8.734317e-01	8.630454e-01	8.521907e-01	8.414045e-01	8.308592e-01	8.195130e-01	8.054713e-01	7.879485e-01	7.699582e-01	7.564087e-01	7.499022e-01	7.497488e-01	7.539442e-01	7.608455e-01	7.697995e-01	7.807040e-01	7.934326e-01	8.078791e-01	8.240605e-01	8.419856e-01	8.617478e-01	8.833950e-01	9.070504e-01	9.329181e-01	9.611051e-01	9.918192e-01	1.025445e+00	1.062218e+00	1.102714e+00	1.147756e+00	1.198073e+00	1.254928e+00	1.319142e+00	1.389566e+00	1.458789e+00	1.517799e+00	1.519662e+00	1.481848e+00	1.437806e+00	1.322314e+00	1.135254e+00	1.001707e+00	9.126648e-01	8.568982e-01	8.230358e-01	8.015656e-01	7.869663e-01	7.765999e-01	7.690157e-01	7.633001e-01	7.590287e-01	7.557428e-01	7.533319e-01	7.518438e-01	7.511250e-01	7.509918e-01	7.514134e-01	7.525774e-01	7.548643e-01	7.584997e-01	7.633024e-01	7.687313e-01	7.742088e-01	7.793631e-01	7.839455e-01	7.877525e-01	7.907289e-01	7.930194e-01	7.948015e-01	7.961626e-01	7.970677e-01	7.974442e-01	7.972444e-01	7.964470e-01	7.950631e-01	7.931066e-01	7.905861e-01	7.875077e-01	7.838578e-01	7.796350e-01	7.749237e-01	7.698876e-01	7.646637e-01	7.592877e-01	7.537450e-01	7.483539e-01	7.441746e-01	7.434243e-01	7.488398e-01	7.619188e-01	7.803544e-01	7.983469e-01	8.116792e-01	8.212468e-01	8.301736e-01	8.408648e-01	8.539622e-01	8.686584e-01	8.839714e-01	8.994978e-01	9.151491e-01	9.307615e-01	9.459818e-01	9.605284e-01	9.741289e-01	9.866345e-01	9.979296e-01	1.008077e+00	1.017185e+00	1.025495e+00	1.033332e+00	1.041069e+00	1.049138e+00	1.058010e+00	1.068240e+00	1.080531e+00	1.095657e+00	1.114361e+00	1.136835e+00	1.162321e+00	1.188681e+00	1.212854e+00	1.231258e+00	1.240409e+00	1.237352e+00	1.220317e+00	1.189457e+00	1.148489e+00	1.106542e+00	1.075076e+00	1.064438e+00	1.078201e+00	1.110180e+00	1.149498e+00	1.189157e+00	1.228419e+00	1.270190e+00	1.271181e+00	
SCALARS Temperature float 1
LOOKUP_TABLE default
1.075730e+00	1.070926e+00	1.068101e+00	1.066850e+00	1.066284e+00	1.065151e+00	1.062358e+00	1.056729e+00	1.047200e+00	1.033099e+00	1.013980e+00	9.889380e-01	9.644822e-01	9.527599e-01	9.562752e-01	9.684633e-01	9.813432e-01	9.904864e-01	9.951138e-01	9.954987e-01	9.922824e-01	9.862656e-01	9.783845e-01	9.693544e-01	9.591190e-01	9.476883e-01	9.373303e-01	9.310459e-01	9.298209e-01	9.324010e-01	9.368854e-01	9.418665e-01	9.465586e-01	9.506771e-01	9.541579e-01	9.570796e-01	9.595359e-01	9.616432e-01	9.635266e-01	9.652689e-01	9.669517e-01	9.686120e-01	9.702749e-01	9.719267e-01	9.735472e-01	9.750918e-01	9.765221e-01	9.777878e-01	9.788523e-01	9.796743e-01	9.802261e-01	9.804767e-01	9.804145e-01	9.800264e-01	9.793095e-01	9.782612e-01	9.768889e-01	9.752003e-01	9.732127e-01	9.709468e-01	9.684211e-01	9.656490e-01	9.626081e-01	9.593011e-01	9.558134e-01	9.523398e-01	9.489107e-01	9.451735e-01	9.404275e-01	9.344090e-01	9.281546e-01	9.234310e-01	9.211692e-01	9.211867e-01	9.227155e-01	9.251962e-01	9.283390e-01	9.321080e-01	9.364803e-01	9.413927e-01	9.468037e-01	9.527167e-01	9.591217e-01	9.660221e-01	9.734320e-01	9.813928e-01	9.899129e-01	9.989970e-01	1.008720e+00	1.019131e+00	1.030303e+00	1.042371e+00	1.055474e+00	1.069691e+00	1.085073e+00	1.101062e+00	1.115761e+00	1.125976e+00	1.127345e+00	1.121281e+00	1.108915e+00	1.081480e+00	1.042887e+00	1.009187e+00	9.828968e-01	9.639537e-01	9.513518e-01	9.429574e-01	9.372041e-01	9.331191e-01	9.301182e-01	9.278820e-01	9.261934e-01	9.248830e-01	9.239092e-01	9.232717e-01	9.229319e-01	9.228186e-01	9.228929e-01	9.232317e-01	9.239667e-01	9.251804e-01	9.268143e-01	9.286828e-01	9.305654e-01	9.323256e-01	9.338781e-01	9.351590e-01	9.361513e-01	9.369064e-01	9.374860e-01	9.379244e-01	9.382090e-01	9.383186e-01	9.382332e-01	9.379483e-01	9.374641e-01	9.367867e-01	9.359200e-01	9.348603e-01	9.336021e-01	9.321443e-01	9.305131e-01	9.287595e-01	9.269355e-01	9.250448e-01	9.230821e-01	9.211280e-01	9.195685e-01	9.191902e-01	9.210000e-01	9.255315e-01	9.319661e-01	9.381922e-01	9.427242e-01	9.458838e-01	9.487627e-01	9.522019e-01	9.564017e-01	9.610804e-01	9.659063e-01	9.707406e-01	9.755560e-01	9.802987e-01	9.848689e-01	9.891839e-01	9.931751e-01	9.967994e-01	1.000055e+00	1.002944e+00	1.005519e+00	1.007858e+00	1.010047e+00	1.012198e+00	1.014431e+00	1.016875e+00	1.019689e+00	1.023053e+00	1.027182e+00	1.032237e+00	1.038239e+00	1.044918e+00	1.051683e+00	1.057697e+00	1.062083e+00	1.064052e+00	1.062982e+00	1.058499e+00	1.050657e+00	1.040217e+00	1.029325e+00	1.021273e+00	1.019063e+00	1.023293e+00	1.032018e+00	1.042306e+00	1.052516e+00	1.062443e+00	1.072329e+00	1.082213e+00	
SCALARS Pressure_Coefficient float 1
LOOKUP_TABLE default
6.370496e-01	5.865761e-01	5.624870e-01	5.529602e-01	5.483384e-01	5.385588e-01	5.115763e-01	4.578947e-01	3.695808e-01	2.452511e-01	8.691621e-02	-1.070821e-01	-2.802860e-01	-3.510138e-01	-3.207596e-01	-2.362468e-01	-1.437413e-01	-7.552399e-02	-4.143381e-02	-3.968780e-02	-6.513018e-02	-1.108865e-01	-1.692175e-01	-2.342352e-01	-3.060043e-01	-3.840247e-01	-4.530259e-01	-4.940695e-01	-5.025965e-01	-4.868833e-01	-4.583405e-01	-4.257861e-01	-3.942371e-01	-3.662044e-01	-3.421852e-01	-3.219076e-01	-3.047297e-01	-2.898466e-01	-2.765632e-01	-2.641658e-01	-2.522022e-01	-2.403041e-01	-2.283821e-01	-2.164473e-01	-2.047200e-01	-1.934583e-01	-1.830136e-01	-1.737029e-01	-1.658635e-01	-1.597703e-01	-1.556922e-01	-1.538088e-01	-1.542584e-01	-1.571044e-01	-1.623828e-01	-1.700708e-01	-1.801169e-01	-1.924227e-01	-2.068423e-01	-2.232113e-01	-2.413120e-01	-2.610687e-01	-2.825186e-01	-3.057023e-01	-3.299314e-01	-3.540079e-01	-3.775465e-01	-4.028728e-01	-4.342159e-01	-4.733292e-01	-5.134862e-01	-5.437305e-01	-5.582541e-01	-5.585964e-01	-5.492317e-01	-5.338270e-01	-5.138405e-01	-4.895000e-01	-4.610880e-01	-4.288413e-01	-3.927221e-01	-3.527108e-01	-3.085987e-01	-2.602790e-01	-2.074767e-01	-1.497363e-01	-8.681904e-02	-1.826067e-02	5.679615e-02	1.388793e-01	2.292726e-01	3.298118e-01	4.421266e-01	5.690354e-01	7.123699e-01	8.695663e-01	1.024082e+00	1.155800e+00	1.159959e+00	1.075554e+00	9.772459e-01	7.194499e-01	3.019068e-01	3.811280e-03	-1.949446e-01	-3.194236e-01	-3.950093e-01	-4.429339e-01	-4.755216e-01	-4.986609e-01	-5.155900e-01	-5.283480e-01	-5.378824e-01	-5.452170e-01	-5.505984e-01	-5.539201e-01	-5.555245e-01	-5.558219e-01	-5.548808e-01	-5.522827e-01	-5.471779e-01	-5.390632e-01	-5.283428e-01	-5.162248e-01	-5.039983e-01	-4.924930e-01	-4.822646e-01	-4.737667e-01	-4.671229e-01	-4.620103e-01	-4.580324e-01	-4.549942e-01	-4.529739e-01	-4.521335e-01	-4.525795e-01	-4.543595e-01	-4.574484e-01	-4.618155e-01	-4.674416e-01	-4.743132e-01	-4.824602e-01	-4.918863e-01	-5.024025e-01	-5.136438e-01	-5.253043e-01	-5.373043e-01	-5.496764e-01	-5.617100e-01	-5.710388e-01	-5.727136e-01	-5.606254e-01	-5.314312e-01	-4.902804e-01	-4.501185e-01	-4.203590e-01	-3.990027e-01	-3.790768e-01	-3.552125e-01	-3.259772e-01	-2.931732e-01	-2.589925e-01	-2.243354e-01	-1.893993e-01	-1.545502e-01	-1.205763e-01	-8.810630e-02	-5.774806e-02	-2.983375e-02	-4.621470e-03	1.802992e-02	3.835990e-02	5.690940e-02	7.440278e-02	9.167156e-02	1.096831e-01	1.294860e-01	1.523211e-01	1.797572e-01	2.135212e-01	2.552694e-01	3.054362e-01	3.623233e-01	4.211641e-01	4.751201e-01	5.162020e-01	5.366273e-01	5.298038e-01	4.917797e-01	4.228949e-01	3.314493e-01	2.378169e-01	1.675813e-01	1.438338e-01	1.745552e-01	2.459378e-01	3.336999e-01	4.222248e-01	5.098639e-01	6.031027e-01	6.053145e-01	
SCALARS Mach float 1
LOOKUP_TABLE default
4.929251e-01	5.162298e-01	5.295509e-01	5.353660e-01	5.379784e-01	5.431808e-01	5.558482e-01	5.807287e-01	6.211408e-01	6.777370e-01	7.498444e-01	8.385181e-01	9.207187e-01	9.589944e-01	9.475809e-01	9.075705e-01	8.644363e-01	8.331848e-01	8.171402e-01	8.157984e-01	8.269767e-01	8.476825e-01	8.744313e-01	9.046164e-01	9.383080e-01	9.753716e-01	1.008521e+00	1.028460e+00	1.032333e+00	1.024171e+00	1.009937e+00	9.940503e-01	9.790060e-01	9.657327e-01	9.544615e-01	9.449616e-01	9.369457e-01	9.300465e-01	9.238629e-01	9.181269e-01	9.125722e-01	9.070780e-01	9.015604e-01	8.960648e-01	8.906585e-01	8.854918e-01	8.806953e-01	8.764405e-01	8.728545e-01	8.700806e-01	8.682164e-01	8.673689e-01	8.675795e-01	8.688911e-01	8.713122e-01	8.748464e-01	8.794631e-01	8.851286e-01	8.917758e-01	8.993265e-01	9.077104e-01	9.168736e-01	9.268808e-01	9.377130e-01	9.490832e-01	9.603551e-01	9.714336e-01	9.834553e-01	9.986483e-01	1.017805e+00	1.037594e+00	1.052465e+00	1.059566e+00	1.059511e+00	1.054713e+00	1.046915e+00	1.037012e+00	1.025099e+00	1.011225e+00	9.955650e-01	9.782177e-01	9.591345e-01	9.382993e-01	9.156426e-01	8.910436e-01	8.642681e-01	8.351621e-01	8.035465e-01	7.689409e-01	7.308562e-01	6.885802e-01	6.409099e-01	5.861679e-01	5.220853e-01	4.447825e-01	3.497840e-01	2.342401e-01	9.491826e-02	5.411370e-02	1.731622e-01	2.933862e-01	4.637876e-01	6.388166e-01	7.672565e-01	8.591655e-01	9.224579e-01	9.635518e-01	9.905594e-01	1.008923e+00	1.021896e+00	1.031393e+00	1.038453e+00	1.043776e+00	1.047900e+00	1.050963e+00	1.052966e+00	1.054033e+00	1.054389e+00	1.054156e+00	1.053092e+00	1.050782e+00	1.046965e+00	1.041819e+00	1.035927e+00	1.029980e+00	1.024410e+00	1.019489e+00	1.015424e+00	1.012271e+00	1.009870e+00	1.008026e+00	1.006630e+00	1.005724e+00	1.005374e+00	1.005646e+00	1.006554e+00	1.008096e+00	1.010251e+00	1.013006e+00	1.016372e+00	1.020365e+00	1.024984e+00	1.030145e+00	1.035684e+00	1.041438e+00	1.047391e+00	1.053562e+00	1.059695e+00	1.064584e+00	1.065769e+00	1.060097e+00	1.045860e+00	1.025548e+00	1.005777e+00	9.913062e-01	9.811747e-01	9.719107e-01	9.608014e-01	9.471691e-01	9.318910e-01	9.160246e-01	9.000123e-01	8.839366e-01	8.679710e-01	8.524525e-01	8.376720e-01	8.238822e-01	8.112545e-01	7.998227e-01	7.895994e-01	7.804271e-01	7.720442e-01	7.641468e-01	7.563451e-01	7.481920e-01	7.392064e-01	7.287825e-01	7.161962e-01	7.005531e-01	6.810906e-01	6.574956e-01	6.305362e-01	6.023762e-01	5.765079e-01	5.570832e-01	5.481922e-01	5.530385e-01	5.729933e-01	6.067062e-01	6.495913e-01	6.923474e-01	7.228699e-01	7.311096e-01	7.152898e-01	6.819426e-01	6.411742e-01	5.988400e-01	5.554665e-01	5.095139e-01	4.599633e-01	